QMMM reactant CHA#2 frame 41786
 55680
  29.4326668  48.3668976  40.3754921  29.9414959  49.2339287  40.4727249
  28.5423164  48.4650345  40.8421249  30.0798550  47.7353134  40.8253365
  29.2768440  47.9973183  38.9132385  28.8841248  48.8442421  38.3505745
  30.7155895  47.7354088  38.3310661  31.3064804  48.6379509  38.4871788
  31.1185169  46.9165421  38.9270592  30.7891579  47.3834686  36.8679581
  31.8214493  47.3648338  36.5184898  30.3356361  46.3969498  36.7720451
  29.8606129  48.5357513  35.8157310  30.9609890  50.0015755  36.0017891
  30.6732121  50.7334099  35.2470016  30.8575249  50.4570427  36.9866447
  32.0401497  49.8614426  35.9395256  28.4649429  46.6976547  38.8237000
  28.6538315  45.8147774  39.6386566  27.5438271  46.6937103  37.8425446
  27.2708969  47.4705658  37.2576485  26.8994999  45.4010658  37.5356216
  26.2856846  45.1309967  38.3949165  26.0911560  45.6324196  36.3735924
  25.3387184  46.3930016  36.5820312  26.7192688  45.9417343  35.5381851
  25.3109989  44.5411644  35.6562119  25.9739132  43.7618446  35.2803001
  24.9670181  45.0910912  34.7802238  23.8542099  43.8779106  36.5771179
  22.6194973  45.2199173  36.1781387  21.8057461  45.0514336  36.8834877
  22.1678238  45.1505623  35.1885529  23.1234303  46.1862984  36.1618576
  27.7977943  44.1575890  37.3350677  28.8062649  44.2672844  36.6767616
  27.4830742  43.0675964  37.9930344  26.6690865  43.2255173  38.5697365
  28.1673241  41.8045845  37.9597893  28.9180412  41.7962151  37.1695633
  28.8566666  41.6238403  39.3401947  28.0945034  41.8269501  40.0924988
  29.2494354  40.1975479  39.6689339  29.7921448  40.2181931  40.6139946
  28.4102535  39.5036163  39.7172279  29.9539490  39.8153114  38.9302444
  30.0413055  42.5259781  39.3453178  30.8768063  42.1412659  38.7604828
  29.8406353  43.4567184  38.8146935  30.5304527  42.8259048  40.7732925
  30.7563896  41.9394836  41.3660126  31.3917103  43.4852600  40.6656570
  29.7760582  43.4654655  41.2315025  27.1714840  40.7123184  37.5487480
  26.0065079  40.7144852  37.9309654  27.4952354  39.8580742  36.5635300
  28.4710007  39.9232292  36.3110657  26.6850815  38.9456825  35.7238312
  25.8154335  38.5627823  36.2578697  26.3142414  39.7305679  34.4181976
  27.1320305  40.4283409  34.2380981  26.2377663  39.1408081  33.5047264
  25.0415382  40.5320625  34.6994019  24.1947632  39.9571609  35.0743141
  25.3542194  41.2228203  35.4824600  24.5315361  41.3973618  33.5673790
  25.1419449  42.2988701  33.5146141  24.6835327  40.8635979  32.6292419
  23.0729713  41.6430054  33.8084068  22.7380047  41.0224800  34.5314865
  22.3133545  42.6557045  33.5436401  22.5381012  43.5026817  32.5903282
  22.1097641  44.4155006  32.5321312  23.4207401  43.4558182  32.1016083
  21.1800652  42.7091522  34.1439667  20.9528332  42.1808624  34.9742546
  20.4909325  43.4315376  33.9911308  27.6012955  37.7340965  35.4514732
  28.6238861  37.5757294  36.0571671  27.2138042  36.8799324  34.5280304
  26.3297482  37.0401306  34.0666351  27.9224930  35.7287292  34.0482178
  28.9760685  35.9184418  34.2533684  27.6282501  34.9290047  34.7278976
  27.8124809  35.2394753  32.5775032  27.0240059  35.7570915  31.7605438
  28.6313686  34.3056297  32.1601448  29.2948856  33.8443565  32.7660065
  28.8102169  33.8684387  30.6840496  27.8632870  34.0710564  30.1836796
  29.8987350  34.7020912  29.9315491  30.8758831  34.3470993  30.2590656
  29.8028164  34.3976631  28.4982452  30.2273636  33.4352379  28.2125893
  28.8355064  34.6303902  28.0529900  30.4387321  35.0648918  27.9164219
  29.8114853  36.1917000  30.2399292  28.9206352  36.4339981  29.6604652
  29.7995129  36.4290161  31.3037167  31.0155888  37.0367165  29.7382965
  30.9838638  37.1179199  28.6517849  30.9232731  38.0773468  30.0492134
  31.9706917  36.6479225  30.0914478  29.0242882  32.3327026  30.4791412
  29.8730431  31.7705383  31.2058735  28.2425365  31.6924210  29.6036949
  27.4565029  32.1898651  29.2102489  28.2851124  30.2353992  29.3356876
  28.8128719  29.6809349  30.1116619  26.7983723  29.7442226  29.5794926
  26.1418514  30.5770874  29.3276691  26.5656815  28.8712425  28.9696865
  26.3781662  29.4298458  31.0253162  26.5483875  30.3771210  31.5369759
  25.2919140  29.3741512  31.0964127  27.2326717  28.3223286  31.6290283
  28.2052555  28.6997738  31.9448071  26.7929935  27.8832150  32.5245590
  27.3616257  27.2120094  30.7088947  28.3142262  26.9530849  30.4953270
  26.4501686  26.3573551  30.2253857  25.2096634  26.3102245  30.6719589
  24.9164982  26.9384270  31.4064770  24.5410442  25.6676445  30.2717857
  26.7380276  25.6495857  29.1668816  25.9995670  24.9940929  28.9544964
  27.6321106  25.7870293  28.7176342  28.7801418  29.8201942  28.0244522
  28.6075535  30.5790577  27.0230961  29.1423340  28.5102577  27.9224854
  29.5232735  28.0526772  28.7383308  28.8867321  27.8000908  26.6492062
  27.8238564  27.8085194  26.4077072  29.4954910  28.3139629  25.9052658
  29.2937660  26.3786449  26.6971722  29.4775486  25.8183174  27.7652550
  29.4832230  25.7849255  25.5295200  29.4312687  26.3608360  24.7014332
  29.6736908  24.3712063  25.2871857  30.1998501  23.8992062  26.1169319
  28.3314056  23.6900978  25.1788425  27.7905464  24.0769558  24.3151779
  28.4495811  22.6228199  24.9916210  27.7239513  23.8602486  26.0677471
  30.4967556  24.1938457  23.9932308  30.3866692  25.0300579  23.0555363
  31.0850620  23.0360432  23.8971519  31.0674419  22.4240608  24.7004375
  31.6711483  22.3511925  22.7220325  30.9968796  22.4989929  21.8784599
  33.0147438  22.9568214  22.3731880  32.8953972  24.0401821  22.3595619
  34.0407753  22.5092354  23.4079323  33.6382179  22.6085835  24.4159889
  34.1982918  21.4536114  23.1866932  34.9223137  23.1412621  23.3005009
  33.5083847  22.5155487  21.2426643  34.2177925  23.1314106  21.0450344
  31.6475563  20.8689709  22.9448547  31.0436230  20.3868351  23.9155025
  32.1848488  20.1093273  22.0066319  32.5441666  20.5871792  21.1926003
  32.3227615  18.6662922  22.0521107  32.3654709  18.4111061  23.1109581
  31.1312637  17.7986050  21.5134029  31.3231010  16.8048458  21.9180508
  29.7643070  18.2007370  21.9973259  28.9797077  17.4894619  21.7392902
  29.8743896  18.1953487  23.0817394  29.4502087  19.1438236  21.5500755
  31.0674610  17.7743912  20.1266384  31.8775139  17.4729156  19.7088737
  33.6636734  18.1031246  21.4999981  34.2850914  18.7564087  20.6279240
  34.0200386  16.8856468  21.8819656  33.4524384  16.3037949  22.4814472
  35.1663055  16.1737232  21.1876278  35.4685249  16.6866760  20.2745857
  36.3571243  16.0468884  22.1466904  37.0926170  15.4382229  21.6206875
  37.0606613  17.3313484  22.5793381  36.3594093  18.0722580  22.9632549
  37.7813110  17.0952797  23.3623047  37.7162590  17.6344967  21.7630100
  35.9529152  15.1810207  23.2803097  35.3125458  14.3400717  23.0141754
  36.8478470  14.8270893  23.7921028  35.2697716  15.7529964  23.9082108
  34.6513062  14.8668823  20.6873398  33.6022835  14.3232336  21.0082512
  35.4450989  14.1665754  19.8187828  36.2864075  14.6287413  19.5046196
  35.1633949  12.8433313  19.2379646  34.0947151  12.6346941  19.1880417
  35.7346153  12.7508564  17.7745876  36.8205872  12.8214626  17.8360920
  35.4417229  11.8074703  17.3137856  35.3243599  13.8891211  16.8026257
  35.6526833  13.5430088  15.8225698  34.2402878  14.0025940  16.7990685
  36.0454979  15.2392168  17.0097408  37.2951241  15.2739649  16.8481617
  35.3800354  16.2697964  17.1396503  35.6633224  11.6921263  20.0835590
  34.9824600  10.7805738  20.4151707  36.8143692  11.8776083  20.7679977
  37.3268547  12.7319555  20.6020260  37.4948006  10.8729134  21.5943069
  36.7730942  10.1743803  22.0177326  38.4831085  10.1739435  20.6928368
  39.0964813   9.5658836  21.3577728  38.1094398   9.4750061  19.9445343
  39.5289459  11.0414839  19.9434681  39.0411453  11.6890717  19.2149200
  39.9857750  11.6566505  20.7186947  40.5795517  10.1607561  19.3352909
  40.9600525   9.4379463  20.0570030  40.1427727   9.5948334  18.5124569
  41.7318115  11.0081139  18.9143200  41.6851196  12.0091286  19.0403728
  42.9128532  10.4950743  18.4755421  43.1157227   9.1749563  18.4279232
  44.0349503   8.8691273  18.1422825  42.3418503   8.5889206  18.7068272
  43.9413414  11.2416887  18.2186184  44.7294502  10.8216286  17.7468796
  43.9643631  12.2493629  18.2831421  38.2539825  11.6134968  22.7971134
  38.3975601  12.7564201  22.7604523  38.6591339  10.8534508  23.8333473
  38.7016182   9.8573895  23.6716194  39.2230377  11.3383646  25.0546227
  38.8521576  12.3597317  25.1404343  38.6809998  10.5133095  26.1887932
  37.6039810  10.6595182  26.2709866  38.8974457   9.4615383  26.0016384
  39.2932129  10.9005985  27.5180798  39.5091515  12.0843201  27.7852879
  39.2710037  10.0003729  28.4033680  40.7417603  11.3802795  24.9834881
  41.3565750  10.3217773  25.1800385  41.3945122  12.5284882  24.7094078
  40.8352242  13.3688536  24.7423210  42.8347855  12.7120275  24.5521660
  43.2417603  12.2067518  25.4280472  43.4163857  12.2197208  23.2420979
  43.2473717  11.1570606  23.0680618  42.8128777  12.8769865  22.0276718
  42.8289642  13.9635639  22.1124249  43.3168602  12.3729658  21.2030106
  41.7555084  12.6122990  22.0321064  44.8028450  12.4692717  23.3305988
  45.2056122  12.1811876  22.5081692  43.1913834  14.2637510  24.7200871
  42.4428635  15.1206656  24.3484478  44.2090454  14.4429626  25.5052586
  44.7570839  13.6090956  25.6615372  44.5880356  15.7532721  26.1796780
  43.8046265  16.1691628  26.8132496  45.7201958  15.4925280  27.2432404
  45.2654991  14.8558464  28.0021801  46.5490150  14.9853640  26.7493343
  46.1807747  16.8113174  27.7726364  46.6033325  17.3869419  26.9491043
  45.3568420  17.3429947  28.2486134  47.3688545  16.7823257  28.6885166
  47.8955116  17.8576298  29.0087795  47.7650681  15.6603785  29.0972958
  44.8230629  16.7742939  25.1524239  44.1689758  17.8348522  25.2333851
  45.6654472  16.4686584  24.1761341  45.9657211  15.5071964  24.1017933
  45.7282181  17.4363823  23.0690098  46.0171165  18.3179035  23.6413422
  46.8044167  17.0450344  22.0386486  46.5854378  17.6604824  21.1660824
  47.8184967  17.2661095  22.3716087  46.6491508  15.6990547  21.4238472
  46.3795090  14.9500351  22.1684036  45.7712975  15.6416979  20.7802734
  47.8094368  15.2795973  20.5156822  48.1594772  14.1062546  20.5559216
  48.4887962  16.0267372  19.8242455  44.3874092  17.9206448  22.5284462
  44.2675591  19.1482372  22.2601585  43.4831009  17.0816727  22.0729656
  43.7257118  16.1026859  22.0197201  42.2695427  17.5787773  21.4291897
  42.5559692  18.3644657  20.7300797  41.5788040  16.4642754  20.6507645
  41.3904953  15.7774820  21.4759636  40.5901566  16.7683392  20.3069229
  42.3921814  15.9196291  19.5085449  42.1690331  16.4993057  18.6128445
  43.4477882  16.0955524  19.7155418  42.1914215  14.4567337  19.1626148
  43.0930519  13.8899508  18.5099277  41.1735001  13.8154783  19.5065517
  41.2944336  18.1899452  22.4192772  40.5573425  19.1417751  22.0899010
  41.1745300  17.5521641  23.6079216  41.6701775  16.6892662  23.7806664
  40.4202003  18.1962776  24.7230339  39.3804817  18.3138046  24.4176331
  40.3357010  17.3527870  26.0103836  41.3044357  16.9797382  26.3427773
  39.6677856  18.0529976  27.1864109  39.5635757  17.4064903  28.0577717
  40.1518898  18.9775505  27.5009727  38.6822205  18.3932476  26.8686256
  39.4320984  16.1642551  25.7110157  38.3712502  16.3887177  25.6000195
  39.7118607  15.6797247  24.7755642  39.4850388  15.0587816  26.7102909
  39.2536583  15.4536753  27.6995468  38.8413963  14.2428436  26.3815498
  40.5450058  14.8059063  26.6853638  40.7767944  19.6174126  24.9959621
  39.9114952  20.4950809  25.0506363  41.9744034  19.9713669  25.4552841
  42.6445923  19.2240067  25.5666447  42.4430733  21.3617001  25.5904903
  41.8813515  21.7411709  26.4440556  43.9429321  21.3537216  25.8853378
  44.3756943  21.0112343  24.9453812  44.3273926  22.3362789  26.1589603
  44.3107224  20.4985104  27.1566296  44.1807861  19.4403019  26.9298878
  45.8549538  20.6510315  27.4989300  46.0319862  21.6273403  27.9501209
  46.0102768  19.8044510  28.1677189  46.4106102  20.5995331  26.5626087
  43.4717865  20.8479385  28.3719997  43.6667175  21.9136162  28.4921150
  42.4118195  20.5939388  28.3645096  43.9469109  20.3912868  29.2402306
  42.0874023  22.2234478  24.3573856  41.4914513  23.3158665  24.5481815
  42.3720360  21.7705727  23.1277466  42.8112335  20.8626766  23.0735874
  42.2455254  22.6376648  21.9834118  42.8593178  23.5369225  22.0353642
  42.9279938  21.9408264  20.7833576  43.9913368  21.8517590  21.0057888
  42.5186272  20.9435005  20.6225433  42.8686600  22.6074600  19.3991852
  43.0080795  23.6859932  19.3254948  43.7643929  22.2513752  18.8902950
  41.6241989  22.1607914  18.5955372  40.8142433  21.4062061  19.0035286
  41.4581757  22.5087166  17.3431053  42.1487350  23.1217728  16.9339695
  40.7211075  22.0513744  16.8257389  40.7847939  23.0484123  21.7104053
  40.4484901  24.2031689  21.6554852  39.8530388  22.0197048  21.7183399
  40.2134705  21.0795078  21.7971973  38.4356880  22.2666435  21.7449780
  38.1893005  22.7954082  20.8242168  37.6583290  20.8910580  21.8392086
  38.0365639  20.3995819  22.7355843  36.5999413  21.1441288  21.9014702
  37.6996040  20.0975151  20.5327110  38.7325172  19.7926674  20.3646088
  37.2046127  19.1378994  20.6817760  36.9898109  20.7804089  19.3926048
  35.9695625  20.9856911  19.7167263  37.3996620  21.7617054  19.1534767
  36.8615570  19.8601723  18.1138763  36.3026123  20.5246429  17.4549675
  37.8543205  19.6688995  17.7065277  36.1315231  18.6206436  18.3750782
  35.8233948  18.2117043  17.5044880  36.7216454  17.9159737  18.7937660
  35.3282471  18.7150955  18.9799995  37.9370728  23.2600422  22.8349743
  37.2291908  24.2454643  22.6204510  38.3217926  22.9947987  24.0347061
  38.9996262  22.2744904  24.2391510  38.1971626  23.9639645  25.1511002
  37.1574707  24.1932678  25.3846855  38.7715302  23.3177986  26.4103642
  39.8511810  23.3245697  26.2606506  38.4100723  24.0158615  27.6876678
  39.0031242  23.6171055  28.5107021  38.6247253  25.0843353  27.6679382
  37.3389168  23.9218998  27.8662491  38.3054962  21.9723053  26.5474243
  38.8279190  21.3488808  26.0375061  38.7673531  25.4167366  25.0237427
  38.0354156  26.3851185  25.2305012  39.9567528  25.5561981  24.4395618
  40.5002441  24.7167072  24.2982368  40.5469551  26.8949890  24.0741692
  40.4681244  27.5911884  24.9091511  42.0383759  26.8386650  23.7254124
  42.4452972  26.1264439  24.4432278  42.1179771  26.3592854  22.7497253
  42.7206573  28.1882324  23.6709538  42.2300072  28.8539257  22.9608727
  42.7472191  28.7081966  24.6285706  44.1433067  28.0654697  23.3140297
  44.6378212  27.6397419  24.1871338  44.2349434  27.3223610  22.5218830
  44.9239273  29.3190403  22.8905125  44.3294144  29.8412819  22.1409016
  44.9156494  30.0102024  23.7333221  46.2746506  29.0259686  22.3573494
  46.2988548  28.1548195  21.8468475  46.5146370  29.7810879  21.7310066
  46.9496078  28.9394894  23.1037121  39.7152290  27.5109787  22.9124165
  39.4425964  28.7173233  22.9029636  39.2588768  26.7094517  22.0439148
  39.3270302  25.7346630  22.2993431  38.3335915  27.1115589  20.9617405
  38.7496758  27.9957333  20.4788189  38.4149017  25.9984379  19.9199638
  39.4468803  25.7176075  19.7095909  38.0135193  25.1090145  20.4056854
  37.8368034  26.2954865  18.5773525  37.2220688  27.1885204  18.6900291
  38.5908508  26.5757313  17.8418427  36.9732780  25.2786961  17.9303417
  36.7871132  24.1880722  18.4183407  36.2772255  25.5875225  16.8646469
  35.6852951  24.8901768  16.4363670  36.3767776  26.5098553  16.4652843
  36.9215202  27.4849377  21.3873386  36.2108269  28.3147411  20.7977810
  36.4762154  26.9988041  22.5363770  37.0017776  26.2744751  23.0045986
  35.4352341  27.7026844  23.3302631  34.6680222  28.1418495  22.6925945
  34.7303238  26.6461391  24.1513691  34.4938889  25.8154507  23.4864197
  35.3926086  26.1920280  24.8884315  33.5591850  27.1842518  24.9525795
  33.8420410  28.0706940  25.5203056  32.3598251  27.5538940  24.0696926
  32.5992775  28.3989525  23.4242115  32.1856766  26.7778416  23.3243637
  31.4386711  27.7808743  24.6064034  33.1227112  25.9942856  25.8359547
  33.9019966  25.6861610  26.5329971  32.2293587  26.3330193  26.3606339
  32.8765144  25.2270718  25.1018810  35.8808441  28.9452953  24.0771694
  35.2280159  29.9707775  24.0080910  37.0379753  28.9276505  24.7613201
  37.5853577  28.0839920  24.8546810  37.3243942  30.0441322  25.7234421
  36.4364738  30.1977634  26.3367081  38.5572929  29.7344799  26.5879021
  39.4036407  29.3945332  25.9910431  38.9709320  30.6378422  27.0361671
  38.2742043  28.8510323  27.8234940  37.4705315  28.1436539  27.6189728
  39.5305443  28.1254845  28.1915264  40.0832405  27.7280979  27.3402252
  40.2140541  28.7687855  28.7456741  39.2125092  27.2194481  28.7073288
  37.8838692  29.6649837  29.0247669  37.5332489  29.0058651  29.8189526
  38.6248779  30.4122219  29.3087425  36.9812775  30.1911144  28.7139282
  37.5038872  31.3094215  24.9045353  36.8948402  32.3810120  25.1784039
  38.2360535  31.1970921  23.8698063  38.6046753  30.2730675  23.6954594
  38.6746712  32.3180885  23.0427837  39.1642609  33.0579529  23.6760311
  39.7449265  31.9579086  22.0082340  39.3873367  31.0493088  21.5238018
  39.9088402  32.8210640  21.3631020  41.1344109  31.8255520  22.6973381
  41.3248253  32.6346855  23.4024258  41.0932884  30.9198093  23.3023510
  42.3009033  31.5711536  21.7730789  42.3034019  30.5998344  20.9110012
  43.3334694  32.2985611  22.0319080  37.5477371  32.8993683  22.2025852
  37.5004234  34.1497879  22.1947498  36.5303497  32.1477127  21.7818089
  36.5274467  31.2137527  22.1662788  35.2480812  32.6768951  21.1942348
  35.6348152  33.4397011  20.5184650  34.4916191  31.5978146  20.4298401
  35.2261314  31.1666908  19.7495975  34.0352592  30.8318939  21.0568981
  33.3441696  32.0910530  19.5629387  32.9923515  31.2427235  18.9758606
  32.5274391  32.4277878  20.2014217  33.6700783  33.1984138  18.5693951
  33.7621346  34.1279907  19.1310902  34.6286507  33.0822601  18.0636826
  32.6390877  33.3335228  17.4624443  32.3265190  32.3402138  17.1403561
  31.7436295  33.7201653  17.9490242  33.1440964  34.0900040  16.2173061
  33.6897392  33.4874458  15.6178875  32.3435402  34.4377098  15.7090578
  33.6324768  34.9062729  16.5568523  34.4176674  33.4607086  22.1935043
  34.0522728  34.5773430  21.8822823  34.2056503  32.9137650  23.4016018
  34.8215218  32.1355362  23.5891209  33.5112877  33.5583191  24.5075264
  32.4886208  33.6949768  24.1559982  33.3271980  32.6241493  25.7046242
  34.1968651  31.9673290  25.6853600  33.1916656  33.3978233  27.0400448
  33.0954628  32.7837029  27.9354229  34.0624657  34.0454674  27.1418552
  32.2968102  34.0200157  27.0545502  32.1663666  31.6793785  25.5210743
  31.1899929  32.1333656  25.6904697  32.2304688  31.1345482  24.5791874
  32.1589622  30.4882565  26.4789257  31.8186550  30.7162189  27.4890347
  31.5678558  29.6570053  26.0945873  33.1787605  30.1036053  26.4913921
  34.1131020  34.9318123  24.7944317  33.4645882  36.0067596  24.7008266
  35.4421692  34.9829254  24.9550400  35.9376869  34.1079559  25.0498543
  36.2222023  36.2204514  25.2299595  35.9099960  36.6859322  26.1648159
  37.6611519  35.7227516  25.5929642  38.0057907  35.2391624  24.6789188
  38.6640625  36.8909492  25.7460651  39.6687546  36.4729156  25.8088455
  38.8849068  37.3305855  24.7734165  38.3670998  37.5820084  26.5349541
  37.5513687  34.9179001  26.9871216  37.4169044  35.7444611  27.6848412
  36.6977959  34.2408218  26.9543037  38.8682175  34.1682129  27.3035908
  38.8018799  33.5593834  28.2052708  39.2140656  33.5978050  26.4415436
  39.7745018  34.7688408  27.3810558  36.1157722  37.2179108  24.0252342
  35.9686356  38.3843117  24.3027077  36.2217941  36.7946396  22.7926922
  36.3839226  35.8020554  22.6999588  36.1527023  37.6690559  21.6261425
  36.7339058  38.5731316  21.8076973  36.8296776  36.9800644  20.4889355
  37.7632637  36.5694427  20.8735161  36.1876068  36.1223183  20.2886429
  37.0096016  37.7488289  19.1819744  37.3788795  37.0579948  18.4240265
  35.9669685  37.8580437  18.8835030  37.5980148  39.2095299  19.2258492
  38.5541496  39.4596329  20.0077305  37.1437836  40.0928574  18.4850140
  34.7266808  38.1581421  21.2670269  34.4950218  39.2600975  20.7948284
  33.7351608  37.3809166  21.5770683  33.8700333  36.4023628  21.7876263
  32.3532295  37.7145615  21.4768314  32.1844444  38.2076454  20.5195026
  31.4915524  36.4858170  21.6671543  31.9494686  35.6920509  22.2573662
  30.5828533  36.9355812  22.0672493  31.2058525  35.7240982  20.3722095
  32.1585274  35.8036461  19.8485813  31.0001354  34.6824608  20.6187305
  30.0645294  36.2830582  19.5232487  30.0028458  37.4881020  19.3769264
  29.3921776  35.4051018  18.9619122  31.9770679  38.7722244  22.5213585
  31.2851906  39.6776199  22.2025738  32.3613815  38.5753441  23.7898560
  32.9937668  37.8052750  23.9547100  32.0550919  39.3592682  24.9942665
  31.0546227  39.7112541  24.7427349  31.8878613  38.3994102  26.2637482
  32.7892036  37.8266335  26.4819355  31.7548656  39.0370331  27.1377354
  30.6769371  37.5387192  25.9161835  29.5143700  37.9541054  26.0825195
  30.8439293  36.3768425  25.3103371  29.9637604  35.9028816  25.1662579
  31.7331657  36.1441841  24.8917236  33.0137787  40.5254097  25.1506138
  32.5192146  41.5253296  25.7782536  34.2230186  40.5189819  24.6302013
  34.4314041  39.6705055  24.1234818  35.3853912  41.4922829  24.9788036
  36.1768456  41.2206192  24.2802963  35.0469437  42.9398384  24.5630779
  34.3840332  43.3338127  25.3334255  35.9073944  43.6085472  24.5868969
  34.4035759  43.0769043  23.1869125  35.0875854  42.9532509  22.0023613
  36.0216255  42.5875282  21.8844166  34.2600594  43.3476715  20.9509277
  34.4053993  43.3061867  19.8815575  33.0446281  43.5158691  21.4515934
  32.2192535  43.7904701  20.9383202  33.1055336  43.4029655  22.8836422
  32.2767334  43.6883316  23.5145607  36.0911064  41.4384918  26.3783054
  36.4827919  42.4450226  26.9598560  36.1078415  40.2578659  26.9402733
  35.8503342  39.4981537  26.3265743  36.4887581  39.9847183  28.3065987
  35.9824295  40.6725273  28.9838390  35.8721581  38.5416451  28.6837273
  36.5500870  37.7897720  28.2797508  35.7325706  38.3129196  30.2523327
  35.3288422  37.3187981  30.4442234  36.7282715  38.4005775  30.6870689
  35.1023254  39.1310883  30.6008835  34.6147385  38.3194542  28.1738281
  34.0352249  39.0412560  28.4283199  37.9590034  39.9717522  28.7122974
  38.7894325  39.3031311  28.1851406  38.3398361  40.8059502  29.6951733
  37.6175079  41.4182549  30.0464993  39.6994286  40.8102455  30.3614693
  40.3894958  40.3188400  29.6755924  40.3351936  42.2289581  30.4865723
  41.3832703  42.0919075  30.7527580  40.2194023  42.7411728  29.5314140
  39.8055420  43.1278915  31.5984192  38.7444992  43.3464890  31.4779720
  39.9266624  42.5940895  32.5410156  40.5926704  44.5370560  31.5495186
  41.6731606  44.3947372  31.5691547  40.3964310  44.9954262  30.5802441
  40.1611443  45.4387550  32.6316605  40.1418571  44.8527031  33.5505066
  40.8006477  46.2875290  32.8739777  38.8751373  46.0394707  32.4810066
  38.6556511  46.7119331  33.2019234  38.8816986  46.7116776  31.7272129
  38.1071548  45.3877716  32.5557709  39.7552376  39.9817505  31.6828194
  38.7602882  40.0756721  32.4326096  40.8871994  39.2763023  32.0079193
  41.9995728  39.0831909  31.2336597  42.5017929  40.0402298  31.0924091
  41.6976700  38.6520424  30.2791595  42.9098587  38.1513824  32.0992088
  43.5787659  38.8648529  32.5804825  43.4981308  37.5540504  31.4026203
  42.0991058  37.4307594  33.0663300  42.6906586  37.3757248  33.9801903
  41.8529396  36.4008446  32.8079147  40.8320503  38.3548241  33.1166573
  39.9602661  37.7344170  32.9088402  40.5948524  38.9489555  34.5247993
  39.9051247  38.3954239  35.4174461  40.9775505  40.2194290  34.7205505
  41.6755943  40.5966072  34.0955925  40.8551826  40.9011383  35.9917374
  41.1229515  40.2859993  36.8508110  41.8160858  42.1058617  36.0837097
  41.6313095  42.6015472  37.0367317  42.8663788  41.8246155  36.0069389
  41.6809845  43.2273788  35.0249062  40.6644325  43.1043816  34.6512794
  41.7657471  44.2210846  35.4647484  42.7215004  43.0219383  33.8901482
  42.7807961  41.9060974  33.3383865  43.4695663  43.9311371  33.5666466
  39.4087906  41.3241577  36.3015251  39.0701752  41.4802551  37.4846382
  38.6084099  41.4033318  35.2656555  39.0145760  41.3321609  34.3436661
  37.1354408  41.5892944  35.3892555  36.9692192  42.4248695  36.0691757
  36.6931534  42.1731644  34.0611954  37.1067238  41.5503960  33.2679634
  35.6062279  42.0965195  34.0325851  37.0687752  43.6442604  33.8366547
  37.3520699  44.3655586  34.8490143  36.9071083  44.1153336  32.6767883
  36.3480339  40.3425980  35.7026405  35.1581841  40.5113564  36.0110970
  37.0102463  39.1432076  35.7060814  37.9948769  39.2025948  35.4891205
  36.3572350  37.8455849  35.9631386  35.2738380  37.9238815  35.8724632
  36.8778648  36.7763138  34.9958458  37.9477348  36.5717583  35.0363426
  36.2865868  35.4347572  35.2877960  35.2015266  35.5196381  35.2282257
  36.5726700  34.7709541  34.4719391  36.3807106  34.9377899  36.2533340
  36.4621773  37.1713829  33.5619049  36.9532394  38.1084976  33.2996635
  36.7524757  36.3529015  32.9031830  35.3918877  37.2578125  33.3745193
  36.5954933  37.4488449  37.4060936  37.7356873  37.3975754  37.8660736
  35.5600739  37.1823730  38.1601715  34.7003212  37.2600098  37.6358681
  35.5485039  36.8401794  39.6108398  36.1619873  37.5277596  40.1930542
  34.0264282  36.9404144  40.0308380  33.3763351  36.3735847  39.3643646
  33.6683922  36.4182358  41.4218063  34.0261078  35.4019814  41.5872574
  34.2379608  37.0969849  42.0566254  32.5958672  36.4569244  41.6123085
  33.5234985  38.3983116  39.8926620  32.5599899  38.5240402  40.3865662
  34.2302094  39.0601768  40.3932571  33.4065628  38.7606125  38.8713074
  35.9412270  35.3968925  39.9363899  36.7078209  35.2217216  40.9069939
  35.4397354  34.3624344  39.1852455  34.8811646  34.4948578  38.3542442
  35.5469742  32.8983994  39.4004440  36.6157913  32.6968231  39.4718208
  34.9179802  32.4484177  40.7063789  35.1749840  31.4143353  40.9359970
  35.3709908  32.9760551  41.5457077  33.4207954  32.7303963  40.7943115
  33.3094902  32.9834862  41.8486633  33.0702324  33.5563545  40.1754456
  32.5925598  31.4683208  40.5611343  32.7639389  30.4505634  41.1970673
  31.6910801  31.4494133  39.5779228  31.0920982  30.6400909  39.4983864
  31.4628315  32.2984123  39.0807304  34.8637543  32.1215591  38.2245216
  33.9197159  32.6020393  37.5882607  35.3279114  30.8896599  38.0157738
  35.9729691  30.5439491  38.7118225  34.8863068  29.9560070  36.9365425
  33.9145966  30.2249527  36.5223579  35.8784065  30.1324635  35.7328033
  35.6929359  31.1366005  35.3514824  36.8742027  30.0794563  36.1728935
  35.7447128  29.1233559  34.5899887  36.3117256  28.2299252  34.8514900
  34.7485275  28.6980209  34.4682922  36.3137054  29.5723305  32.9094543
  37.9872437  30.1093292  33.2076378  38.3941116  29.6975594  34.1312218
  38.5830841  29.7686462  32.3608742  38.1002464  31.1862125  33.3327713
  34.7412148  28.4882526  37.2890625  35.4232979  27.9400730  38.1081047
  33.7772255  27.8393631  36.6544418  33.2458649  28.3694229  35.9785767
  33.5970650  26.3683472  36.7086067  34.2529030  25.9516125  37.4730110
  32.1426430  26.1369820  37.1434898  31.4516525  26.3689327  36.3330383
  31.9475193  25.0924873  37.3865089  31.6493168  26.9853306  38.3458977
  31.7611542  28.0488529  38.1349030  30.1767673  26.8134136  38.6581688
  29.7812614  27.3090324  39.5447617  29.6563282  27.2714939  37.8170967
  29.9458752  25.7665939  38.8555450  32.4854546  26.6315918  39.6262360
  32.4900513  25.5606079  39.8288918  33.4630547  27.1073456  39.5484276
  31.9241943  27.0841904  40.4436951  33.8318405  25.8522606  35.3080750
  33.4350548  26.4574986  34.2607918  34.3661728  24.6478844  35.2107086
  34.5671120  24.1367188  36.0583153  34.4221268  23.8215542  33.9722137
  33.8714447  24.3421402  33.1887360  35.8736458  23.7149696  33.3854027
  36.4670677  23.3684845  34.2315102  35.9186935  23.0188866  32.5478210
  36.2982445  25.1199188  32.8552589  35.4913254  25.8526821  32.8488464
  37.4713249  25.6720467  33.6177559  37.7039909  26.7176895  33.4162903
  37.3372459  25.4708061  34.6805954  38.3118134  25.0579033  33.2944794
  36.7243881  25.0672245  31.3215904  37.1019669  26.0179024  30.9450970
  37.4185638  24.2503395  31.1242981  35.7895470  24.8053608  30.8260155
  33.8520164  22.4732265  34.1823158  33.7063332  22.0142670  35.3059578
  33.5881195  21.7304688  33.1232033  33.7022820  22.0931644  32.1875114
  32.8465500  20.4722214  33.2716866  33.2214699  19.9170265  34.1315079
  31.3348255  20.6521740  33.4768219  31.1941452  21.3409348  34.3098373
  30.8058357  20.9136562  32.5603638  30.9371967  19.4049549  33.9647408
  31.3036156  19.3446732  34.8500137  32.9812851  19.6739769  31.9436283
  33.1937103  20.1659260  30.8503857  32.8394966  18.3751183  32.1191368
  32.6750679  17.9950867  33.0403519  33.0007668  17.3889046  31.0309181
  32.8680916  17.8080101  30.0334988  34.4115677  16.9359970  31.0290318
  34.7243729  16.4460526  31.9511013  34.5240784  16.2543793  30.1859169
  35.0941811  17.7756157  30.8979492  32.1528511  16.1889534  31.3367805
  32.0694885  15.8070765  32.5032272  31.6577568  15.4884825  30.3421535
  31.9951878  15.7291441  29.4211102  30.7588272  14.3250408  30.5050926
  29.9682045  14.6930046  31.1590214  30.0637894  13.9260292  29.1703415
  29.3955345  13.0911589  29.3813591  29.2072182  15.0374756  28.5379353
  28.7510643  14.7661219  27.5858936  28.4180870  15.2290297  29.2650394
  29.9042320  15.8530397  28.3452778  30.9036350  13.6201296  28.1103420
  30.6096344  12.7566214  27.8111477  31.5897141  13.1224155  31.0029335
  32.8329849  13.1511002  30.8101387  30.9962025  12.0733862  31.5962906
  29.6888351  12.0031042  32.1285858  28.9691772  11.8064680  31.3338985
  29.4389477  12.9683008  32.5690994  29.7726955  10.9066353  33.1398201
  28.9131927  10.2994270  33.4238167  30.0961075  11.4147520  34.0482941
  30.7833347   9.9386902  32.6793442  30.2702179   9.2867765  31.9723644
  31.3906097   9.3781910  33.3900909  31.7104645  10.8062353  31.8416729
  32.5201874  11.0120916  32.5417252  32.3934097  10.1119642  30.7030010
  33.1317902   9.1507425  30.9046535  32.1712990  10.5797596  29.4952545
  31.6284428  11.4119091  29.3137665  33.0549736  10.1587954  28.3624706
  33.1172142   9.0773001  28.4833126  32.4333382  10.5407715  27.0000019
  32.6755714  11.5765734  26.7622223  32.8744240   9.9066792  26.2309322
  30.9291935  10.2996407  27.1150951  30.5229950   9.1472054  26.8962879
  30.1017189  11.2347126  27.2424240  34.4815407  10.6246948  28.2666531
  35.2542114  10.1603956  27.4227810  34.9337387  11.5905437  29.1482258
  34.2145691  11.9310598  29.7702732  36.1725883  12.3072281  29.0654697
  36.8082390  11.9363337  28.2614250  35.8519058  13.8240414  28.7031441
  35.2836685  14.2049885  29.5517254  36.7401161  14.4542513  28.7481060
  35.1522446  13.9357986  27.3466206  34.2124062  13.4500198  27.6089745
  34.9805107  15.4056444  26.9610214  35.9245796  15.9266500  26.8016739
  34.4385147  15.5275621  26.0232182  34.4044914  15.9737740  27.6914539
  35.7719612  13.3097534  26.1689053  36.6640778  13.8960733  25.9487572
  36.0256729  12.2544041  26.2687359  35.1781120  13.3648224  25.2565422
  36.9280128  12.2332649  30.3467846  36.4475212  12.6858130  31.3955841
  38.1749458  11.6666822  30.2847633  38.5080643  11.3868694  29.3732605
  39.0732613  11.5047407  31.4567871  38.7273026  12.2040243  32.2179794
  38.8725052  10.0544977  32.0672417  39.3456039   9.2546177  31.4976196
  39.3923340  10.0527086  33.0253029  37.4473381   9.6179276  32.3655281
  36.4374466  10.2734957  33.0921135  36.6166611  11.0030155  33.7672310
  35.4134026   9.4625845  33.0668182  34.4804535   9.6015720  33.5928268
  35.7063446   8.3568878  32.3832932  35.1305580   7.5625591  32.1432686
  36.9676094   8.4679213  31.8902130  37.5188713   7.7816367  31.2644920
  40.5929909  11.7408056  31.2818012  41.3695297  11.4074860  32.1634331
  41.1026115  12.2708559  30.1704254  40.4638977  12.3122482  29.3891258
  42.5344810  12.4289455  29.8545055  43.1349449  11.5422688  30.0578499
  42.6256256  12.7958908  28.4055767  43.6911812  12.8226423  28.1775875
  42.1216431  12.0785608  27.7578545  42.0804596  13.7241125  28.2344017
  43.1962929  13.6134663  30.6511955  44.3084259  13.5156431  31.1651325
  42.4811668  14.7575998  30.8700333  41.4893761  14.7238617  30.6821098
  42.9315605  15.9630384  31.5994396  43.7431488  15.6028757  32.2316628
  43.7085686  16.7992935  30.5891113  44.3087997  16.1380634  29.9641323
  42.8257980  17.6515255  29.6076965  43.3859673  17.9724102  28.7294350
  41.9142838  17.0980415  29.3820915  42.4454689  18.5387173  30.1139965
  44.7604408  17.7618008  31.1778774  45.4800873  17.2343807  31.8040123
  45.3657913  18.2776756  30.4325428  44.3346329  18.5280399  31.8256912
  41.7989845  16.7109966  32.3451157  40.6182175  16.7019749  31.9088936
  42.1514473  17.4935570  33.4151497  43.1408386  17.4485722  33.6131020
  41.2799149  18.5421467  33.8898544  40.2310448  18.2772369  34.0233002
  41.7857933  19.1144085  35.2457428  42.8273277  19.4291439  35.1805115
  41.1692200  19.9693336  35.5232925  41.7039642  18.0938263  36.3973083
  40.5763512  18.0860500  37.2061234  39.7422295  18.7462463  37.0196075
  40.4999809  17.2310772  38.3595695  39.5895805  17.2866955  38.9379082
  41.5829697  16.4187489  38.6526718  41.5168190  15.7258978  39.4784966
  42.7344780  16.4029980  37.8247604  43.4743805  15.6179705  37.8764534
  42.7856293  17.3204994  36.7467232  43.6581421  17.3172836  36.1102371
  41.2912865  19.7336636  32.8802567  42.2754135  20.4547920  32.7269554
  40.1947594  20.0840530  32.1553688  38.8582306  19.4296970  32.0975838
  38.1725426  19.8791733  32.8158493  38.8908653  18.3435707  32.1834145
  38.3338890  19.7166786  30.6673260  37.2467690  19.6375179  30.6682320
  38.6859970  18.9727020  29.9527493  38.8332405  21.1268463  30.4147739
  38.1412621  21.7763252  30.9509163  38.8375702  21.4674244  29.3793583
  40.2001724  21.1103783  31.0855370  41.0640526  20.8634109  30.4684296
  40.4987068  22.5369358  31.6900539  40.6538124  23.3844433  30.8675823
  40.5134392  22.7878532  32.9990463  40.1308975  22.0588017  33.5840683
  40.9929161  24.0592785  33.5129089  40.4163132  24.8609982  33.0515175
  40.8216095  24.0093403  35.0309258  41.5375061  24.6073151  35.5948563
  39.8201637  24.3261452  35.3222008  41.1334534  23.0281391  35.3888245
  42.4529915  24.3440285  33.1098518  42.7996788  25.5227661  32.9380531
  43.2078934  23.3458500  32.7282104  42.8279915  22.4100227  32.7277031
  44.5586586  23.4942894  32.1762772  45.1156082  24.0560989  32.9261360
  45.3012619  22.1490250  31.9647121  45.4036674  21.5599270  32.8760719
  44.7646027  21.6348610  31.1673851  46.8037529  22.3391476  31.4869576
  46.8289490  22.9201221  30.5650387  47.2868652  22.9529438  32.2471924
  47.4237213  20.9245090  31.2909126  47.2737579  20.3097878  32.1784554
  46.8096809  20.3678532  30.5829639  48.9371910  20.8790932  31.0557671
  49.1841393  21.4872169  30.1855335  49.3753319  21.3905182  31.9128418
  49.5612869  19.5414715  30.8931274  50.5331612  19.4489346  30.6342907
  49.4423676  19.0478134  31.7662048  49.0983238  18.9829044  30.1904411
  44.5805473  24.3816605  30.9180183  45.6336327  25.0345592  30.6043949
  43.4565315  24.2681427  30.1512089  42.6364861  23.8877831  30.6017170
  43.2013626  25.0254726  28.9213200  44.0170403  24.8318386  28.2247009
  41.9150009  24.4614792  28.3159428  41.8969116  24.6690102  27.2460346
  41.8876381  23.3718529  28.3077526  40.9966583  24.9294815  28.6705132
  43.1055717  26.5557861  29.0976467  43.1477432  27.2455425  28.0762386
  42.8276978  26.9899731  30.3248844  42.6798935  26.2641430  31.0114880
  42.7506981  28.4681625  30.7430382  42.1393547  28.9997368  30.0138016
  42.0003395  28.6450748  32.0920792  42.6572418  28.2748985  32.8792000
  41.7802124  30.0800705  32.4516563  41.2812614  30.2753983  33.4008636
  42.7215996  30.6291027  32.4729843  41.1307526  30.5513763  31.7139778
  40.6275024  27.9140110  32.0681877  40.0448723  28.3677807  31.2664814
  40.7349663  26.8528328  31.8435459  40.2024727  28.0035038  33.0679092
  44.2003632  29.0899811  30.8113918  44.3497658  30.3162289  30.5200005
  45.1685410  28.2428455  31.0823097  44.8837471  27.2860413  31.2356701
  46.6204491  28.5750370  31.5028954  46.6707840  29.5808945  31.9198132
  46.9489441  27.4532928  32.4413567  46.0950356  27.5355225  33.1138000
  47.0192375  26.4624138  31.9926720  48.1314316  27.7346687  33.3711243
  48.9526329  27.1217422  32.9995689  48.3347588  28.8050632  33.3392906
  47.7962418  27.4058819  34.8085442  48.5585480  27.7735500  35.4954300
  46.9073143  28.0211792  34.9475441  47.6948891  25.9644871  34.9614792
  48.6007309  25.5266495  34.8728905  46.6004486  25.2266159  35.2007141
  45.4272232  25.8345909  35.4345284  44.6882057  25.2277737  35.7596855
  45.2738190  26.8308201  35.4985199  46.7677612  23.9340477  35.2943306
  46.0223045  23.3173275  35.5842476  47.6963158  23.6137810  35.0591431
  47.4802437  28.6004829  30.1999836  48.7104950  28.8437939  30.2271214
  46.7793388  28.6707077  29.0570889  45.7796898  28.5319328  29.0963993
  47.2520294  29.2507420  27.8020878  48.3104858  29.0164185  27.6886539
  46.4871292  28.5755672  26.6510582  45.4437180  28.8586483  26.7898540
  46.6991234  28.9748859  25.6592350  46.5075302  27.0516548  26.4876766
  45.8556252  26.6630001  27.2700233  46.0644455  26.7298603  25.5452213
  47.8995285  26.3961277  26.7312317  47.9598045  25.1956806  27.0756416
  48.9779663  26.9812603  26.6188812  47.1872177  30.7502193  27.6696091
  48.1257477  31.2697124  27.1244183  46.1431541  31.4518528  28.1728382
  45.4162903  30.9948215  28.7047138  45.7971268  32.8330841  27.8546257
  46.0573578  33.0956497  26.8292294  44.2464714  32.9585457  27.8202305
  43.8799858  32.8386459  28.8397465  43.9400177  33.9667854  27.5415993
  43.4899178  31.9607487  26.9210262  43.6540222  30.9587975  27.3176003
  42.0195122  32.3059464  27.1262798  41.8328133  32.2449341  28.1984367
  41.8769798  33.3069344  26.7190895  41.3546867  31.6025124  26.6249790
  43.8262711  31.9419823  25.4786758  44.8328629  31.5558472  25.3181248
  43.1063004  31.2556667  25.0329037  43.7051811  32.9549103  25.0947285
  46.5163422  33.7281876  28.8454742  46.7044945  33.4277916  30.0188808
  47.1391563  34.7846489  28.3491287  47.0158424  35.0429497  27.3805351
  47.8440971  35.8122711  29.1146889  48.6828156  35.3048820  29.5913486
  48.4462166  36.8269386  28.1749935  47.5812149  37.0841675  27.5636787
  48.6360359  37.8113022  28.6028976  49.5316162  36.2939720  27.4050083
  49.1372871  36.1223831  26.5467186  47.0663071  36.4932022  30.1823139
  46.0958176  37.1229172  29.9760132  47.6126213  36.4143486  31.3844681
  48.4753304  35.8938217  31.4543705  46.8843994  36.9967232  32.5514374
  47.4834633  36.9967728  33.4620552  46.6642113  38.0505028  32.3806419
  45.6330719  36.1964455  33.1006584  45.0318718  36.5640488  34.1152115
  45.2348061  35.0410843  32.4821663  45.7215919  34.7357826  31.6515427
  44.0509415  34.2138100  32.8917313  43.3021088  34.8234940  33.3973389
  43.4407921  33.6804810  31.6199551  44.2466202  33.2553406  31.0216255
  42.7352867  32.8885880  31.8714886  42.7183914  34.6956406  30.7587318
  43.1979523  35.4292488  29.7797737  44.2242966  35.4790726  29.4472980
  42.2354202  36.2838554  29.2928772  42.3807945  37.0328522  28.6310806
  41.0079689  36.0393906  29.9003906  39.6996803  36.5009041  29.7024593
  39.6068039  37.2121353  28.8950386  38.6065750  35.9493408  30.4099674
  37.6340103  36.3862953  30.2379608  38.8534203  34.8905907  31.3039989
  38.0591202  34.5026703  31.9244881  40.2010345  34.4250145  31.5026321
  40.4082947  33.6679764  32.2444839  41.3279800  35.0211029  30.8313541
  44.4781952  33.0621796  33.8762169  43.5919724  32.4411316  34.4041939
  45.7173271  32.8596191  34.2257004  46.3817635  33.2767372  33.5895920
  46.1603241  31.8758507  35.1716080  45.5202026  31.0066071  35.0207405
  47.6790619  31.6022072  34.9405861  48.0684319  30.8252144  35.5984421
  47.9454765  31.4450722  33.8953896  48.7184868  32.7238808  35.3631210
  48.4300346  33.2078590  36.2962112  49.7307014  32.3263855  35.4373932
  48.7721329  33.7931175  34.2746773  47.9842529  33.9056740  33.3535919
  49.8887939  34.4168587  34.1893158  50.0714645  34.8902550  33.3160248
  50.6350822  34.3181190  34.8626709  46.0132942  32.3305016  36.6223793
  46.1774101  31.5373516  37.5384483  45.5527115  33.5738678  36.8746452
  45.4573746  34.1111488  36.0247421  45.1578064  34.1424332  38.1641197
  45.6772537  33.6405487  38.9804535  45.6018066  35.5896149  38.2406273
  45.0659370  36.2148933  37.5265083  45.4076805  35.9544601  39.2492447
  47.1384087  35.7943993  38.0419502  48.1214485  35.0801163  38.7779045
  47.8155251  34.3640137  39.5262451  49.5033379  35.4697762  38.6390648
  50.3328590  34.9374123  39.0805206  49.8153915  36.5026207  37.7015762
  51.0237083  37.0269470  37.5952950  51.5399017  36.8442345  38.3838158
  48.8419647  37.0802002  36.8991852  49.0523148  37.8534126  36.1751022
  47.4898567  36.7143440  37.0089912  46.7532234  37.2647934  36.4426155
  43.6460724  34.0440598  38.3635826  43.1712761  34.2350311  39.4896202
  42.8587646  33.7391129  37.3590164  43.3053055  33.4949989  36.4865990
  41.3680496  33.5801277  37.4672241  40.9635963  34.4633827  37.9615707
  40.6781960  33.6225548  36.0651093  41.1737442  32.9320641  35.3826447
  39.2139015  33.1984940  36.1534081  38.8332901  33.3291206  35.1404037
  39.0959625  32.1446342  36.4055519  38.5910645  33.8440781  36.7725983
  40.8184395  35.0277672  35.5225906  40.1360016  35.7156601  36.0217819
  41.8609428  35.3419724  35.4719543  40.4831924  34.8991623  34.4934311
  41.0698547  32.2474213  38.2922974  41.4568863  31.1954060  37.8620071
  40.1606178  32.2301483  39.2984276  39.6062202  33.3462067  40.0171852
  38.5688705  33.5518341  39.7531357  40.1705513  34.2779579  40.0557060
  39.6487389  32.8152161  41.5107155  38.8955803  33.3764572  42.0637627
  40.6396217  32.8159447  41.9648552  39.1593552  31.4471130  41.2502937
  38.0779686  31.4486885  41.1135521  39.5204315  30.8461590  42.0849037
  39.9120674  30.9752731  39.9675865  40.8628502  30.5942917  40.3403702
  39.0526810  29.8987293  39.2718315  38.0614052  30.2992630  38.7021065
  39.4789467  28.6374817  39.3756332  40.3121338  28.3837280  39.8870163
  38.9945869  27.5215683  38.5490379  37.9605484  27.8076859  38.3566818
  39.7783127  27.2352943  37.2489128  39.3676529  26.3736858  36.7225227
  39.6711655  28.4453011  36.3021698  38.6288147  28.6721516  36.0782547
  40.0686378  29.3790054  36.7000504  40.1705704  28.0775948  35.4057922
  41.3152428  27.0733871  37.5150909  41.6685753  27.9379673  38.0770187
  41.3691063  26.1538849  38.0979424  41.8008270  26.8707943  36.5604897
  38.8436127  26.2019176  39.3795547  39.5561104  25.9850121  40.3225441
  37.8381004  25.4129791  38.8941765  37.3102722  25.6764202  38.0743637
  37.6577034  23.9468803  39.3339577  38.6509857  23.4990158  39.3641243
  37.0519943  23.7687187  40.7367401  37.8480835  23.9094067  41.4678688
  35.9861488  24.7590866  41.1124420  36.4423599  25.7473049  41.1706161
  35.0955048  24.6227055  40.4990501  35.6575623  24.6394463  42.1448250
  36.6063423  22.5106831  41.0309677  37.2499504  21.7988987  41.0580292
  36.7871170  23.2797432  38.2798347  36.1864700  23.9578056  37.4838181
  36.7586250  21.9331417  38.2515526  37.2281914  21.4634800  39.0124893
  36.1559372  21.1872540  37.1491051  35.6366272  21.8811531  36.4881058
  37.3315277  20.5874500  36.3478279  37.8930969  20.0416126  37.1059875
  36.9315834  20.0277863  35.5023003  38.2689476  21.9476795  35.6483917
  39.0162125  22.0613804  36.7500114  35.1487885  20.2086964  37.8468056
  35.4154472  19.1630611  38.3878059  33.8461075  20.5759144  37.7691917
  33.6667938  21.2298660  37.0206642  32.6581726  19.9376888  38.4105759
  33.0054741  19.5137730  39.3527946  31.5897427  20.9725361  38.6049004
  30.7515354  20.6403027  39.2173805  32.1271744  21.8111744  39.0475693
  30.9966450  21.5231075  37.3043518  31.7727032  21.5322037  36.5390091
  30.2423534  20.8087616  36.9744225  30.1574650  23.1157093  37.3621559
  30.1820030  23.5594311  35.5511971  31.2271919  23.4794655  35.2523918
  29.6963062  22.8189468  34.9156761  29.7636166  24.5595512  35.4380035
  32.2424698  18.7905216  37.4822578  32.1551170  18.9741230  36.2711487
  31.9571991  17.5312595  38.0273285  31.9443417  17.4843216  39.0361557
  31.5470467  16.3237038  37.2951050  32.2988434  16.2726498  36.5075150
  31.4185162  15.0929699  38.1615524  32.4076805  14.8570900  38.5540047
  30.7486591  15.2806807  39.0006905  30.9299126  13.7922497  37.4496384
  31.1778088  12.9741421  38.1259117  29.8459320  13.8982029  37.4065514
  31.7050819  13.4896517  36.2513847  32.8394623  13.1383705  36.3033714
  31.1881008  13.5935373  35.1240654  30.2621937  13.9917221  35.0589104
  31.6588631  13.4271059  34.2461205  30.2019672  16.7222958  36.6284866
  29.3833561  17.3066311  37.3008652  29.9522400  16.4158173  35.3342781
  30.6742668  16.0203037  34.7491722  28.5998058  16.5680504  34.7459335
  28.1471977  17.4869976  35.1184654  28.7871361  16.5106182  33.2920532
  29.5882988  17.1448669  32.9126205  29.0767612  15.4933462  33.0286598
  27.5634880  16.8205338  32.4205742  27.7049904  16.4414234  31.4084702
  26.6422710  16.3718243  32.7922287  27.4385967  18.3403568  32.5186424
  26.7026215  18.8159275  33.4104919  28.1044216  18.9212723  31.6527767
  27.7358189  15.3374786  35.1969147  28.0725250  14.1631927  35.0241661
  26.4542103  15.5326433  35.6004868  26.1973114  16.4866180  35.8103523
  25.5345383  14.4241114  35.9874916  26.1142006  13.9167433  36.7586403
  24.1815300  14.8275557  36.7463150  23.5554314  13.9484806  36.8990517
  24.5669098  15.3664856  37.6118431  23.4175968  15.9043570  35.9457741
  24.1345139  16.6758614  35.6648560  23.0191536  15.3558664  35.0922508
  22.1457081  16.6861763  36.9354515  20.9215946  15.3228016  36.9251060
  21.3048782  14.5212107  37.5564919  19.9759445  15.6618738  37.3480415
  20.8305225  14.9887104  35.8915749  25.2092819  13.5812454  34.8007126
  25.0067444  14.0778809  33.6534157  25.0653038  12.2295980  34.9505577
  24.9790916  11.8518667  35.8832893  24.5914593  11.3337393  33.8555717
  25.1002350  11.6552057  32.9467773  25.0067539   9.8527279  34.1382027
  26.0672321   9.7675362  34.3753204  24.4279976   9.3964176  34.9412727
  24.6945667   8.9308023  32.9586449  24.5208302   7.7413988  33.2158203
  24.6059284   9.3211222  31.8043175  23.1154766  11.4169378  33.4996758
  22.2468491  11.1586609  34.3547935  22.7255249  11.7421188  32.2955055
  23.4601994  12.0381355  31.6688194  21.3534679  12.0534201  31.7457485
  20.6623230  11.6928902  32.5076141  21.0471134  13.5305519  31.6905079
  21.9261684  14.0937605  31.3771896  19.9033222  13.9967823  30.6823235
  20.1747646  13.7313261  29.6605835  19.0354729  13.4259253  31.0125771
  19.8493023  15.0841990  30.7343502  20.6877975  13.9865685  33.0875587
  19.7851486  13.5003147  33.4575310  21.4451790  13.8510866  33.8596420
  20.5223331  15.0638685  33.0753288  21.1005402  11.1867437  30.5068951
  21.9752922  10.9612446  29.6407661  19.8953972  10.6672678  30.5062351
  19.3228359  10.8181667  31.3244667  19.3343487   9.8534431  29.3957443
  20.0837421   9.1802235  28.9794617  18.0091743   9.1859417  29.8415279
  17.2589893   9.9534616  30.0318813  17.5120125   8.1969652  28.7337074
  18.3024864   7.6114712  28.2641983  16.7108994   7.5879974  29.1526051
  16.9875031   8.7826614  27.9787521  18.1978588   8.4067068  30.9890060
  18.2601681   9.0655746  31.6844254  19.1008682  10.7887363  28.2518291
  18.4206676  11.7808838  28.4065628  19.7573814  10.4553728  27.1208248
  20.2202740   9.5576925  27.1209927  19.7307529  11.2366209  25.8698254
  20.1464672  10.6263180  25.0680714  18.7229195  11.5404034  25.5868168
  20.5722141  12.4566441  25.9737072  20.8025455  13.1019373  24.9460087
  21.1239319  12.8209181  27.1296406  20.9237137  12.1796885  27.8838539
  22.0215225  13.9255152  27.3831196  21.5062809  14.8652115  27.1841240
  22.3422318  13.8240681  28.4199200  23.2095623  13.8399172  26.4301567
  23.8005886  12.7801781  26.1983471  23.6620312  14.9784422  25.8965302
  23.2868843  15.8818026  26.1481323  24.6620731  15.0052376  24.8555126
  24.2284374  14.4613695  24.0163059  24.6745548  16.4984665  24.3956318
  23.6943169  16.7983227  24.0250645  24.9614677  17.0868988  25.2671413
  25.7584877  16.8654175  23.3742599  26.7549019  16.5523071  23.6860676
  25.3666801  16.4259281  21.9823399  26.1737919  16.6130238  21.2740517
  25.1993885  15.3535128  21.8821430  24.5588188  17.0883579  21.6714535
  25.9174633  18.4562435  23.4209385  25.0477848  18.9713612  23.0129967
  26.1215210  18.8790836  24.4046402  26.7828445  18.7826195  22.8441410
  26.0513439  14.4773092  25.2962818  26.6506958  14.9368420  26.2539597
  26.4043179  13.4296255  24.5794144  25.8557682  13.3012238  23.7411404
  27.7236423  12.6783104  24.7411346  27.7782059  12.4163790  25.7977867
  27.7463551  11.3868694  23.8332977  27.4737129  11.6790161  22.8191891
  28.7900982  11.0746613  23.7982006  26.8034401  10.3279381  24.4055328
  25.8315697  10.7025146  24.7268772  26.5715237   9.6199942  23.6098385
  27.4136715   9.5445070  25.5670509  28.0166321   8.8001137  25.0470352
  27.9970055  10.2120876  26.2012100  26.3953819   8.7911596  26.4119148
  25.6143761   9.4347353  26.8168125  25.9625530   7.9909406  25.8115673
  27.1516304   8.1258030  27.5189877  27.5201759   8.8562174  28.1112442
  26.5684357   7.5498881  28.1091633  27.8902988   7.5070667  27.2162704
  28.9007111  13.5874586  24.4212322  28.8348541  14.5737953  23.6431522
  30.0186806  13.3834343  25.1530285  29.9482594  12.5954762  25.7809334
  31.3800259  14.0272112  24.8250332  32.0103798  13.7307262  25.6633968
  31.9375973  13.4178457  23.5259686  31.4211864  13.7588015  22.6286564
  32.9528618  13.7208319  23.2699699  31.9455128  11.8997669  23.5820923
  32.7763519  11.5923719  24.2171612  31.0398788  11.4930544  24.0321045
  32.0816574  11.1174955  22.2059383  31.0986195  11.2496052  21.7539654
  32.8231850  11.5571680  21.5389004  32.2300301   9.5889883  22.3690414
  31.6551495   9.2115498  23.2147083  31.8582230   9.1765041  21.4311104
  33.6709557   9.1851120  22.3232250  33.7227020   8.2401571  21.9704037
  34.0378151   9.7516003  21.5718231  34.1647453   9.4678097  23.1577034
  31.3916187  15.5787916  24.8588257  32.2323074  16.1815300  24.2197266
  30.4950275  16.1839638  25.6289520  30.0778580  15.5817947  26.3242702
  30.4817257  17.6359386  25.8469009  30.8947010  18.0615158  24.9323330
  29.0142517  17.9988384  25.9659233  28.4959335  17.7661724  25.0357018
  28.5136337  17.4201431  26.7421932  28.6998768  19.8140488  26.2968521
  27.5566044  19.6812859  26.9752293  31.4448299  18.1907063  26.8853951
  31.7620544  17.5117207  27.8799286  31.9166794  19.4802589  26.7006855
  31.6457996  19.9351959  25.8405933  32.8252754  20.1822624  27.5735607
  32.8527069  19.6944389  28.5479202  34.2326088  20.1633244  26.9809170
  34.2125854  20.8434429  26.1293602  35.2498474  20.5599022  28.0487099
  34.8852921  21.3935947  28.6488419  35.3129692  19.6983776  28.7134609
  36.2320595  20.8421345  27.6696110  34.8084755  18.8365974  26.4128418
  34.9914818  18.1083813  27.2029781  34.1900139  18.5777168  25.5534325
  36.1720848  19.1672516  25.7468910  36.4299049  18.3259773  25.1035519
  36.1931534  20.1386890  25.2529621  36.9655380  19.0837593  26.4895649
  32.3503609  21.6101074  27.7181225  32.1326714  22.3164597  26.7100124
  32.1014214  22.0767307  28.9294033  32.2630005  21.3797150  29.6422577
  31.2865925  23.3045311  29.1645451  31.1491222  23.7842731  28.1954994
  29.7983589  22.9058323  29.6146641  29.8131275  22.5548801  30.6465149
  29.1953030  23.8082066  29.5139523  29.0740414  21.9567719  28.7198009
  29.1122913  22.2898312  27.6826382  29.6223450  21.0165443  28.7784481
  27.6082859  21.7490959  29.1116238  27.0683155  22.6957836  29.0939331
  27.0340195  21.0576763  28.4949722  27.4001064  21.2973709  30.5272064
  27.6101856  20.3174496  30.6525917  27.0905743  21.9140148  31.6714935
  26.5442085  23.1003819  31.6072388  26.1879025  23.2878838  32.5335159
  26.0195160  23.4007130  30.7981663  27.2762852  21.4129944  32.8132706
  26.9803505  21.8028126  33.6967697  27.5205402  20.4341412  32.7654610
  31.9494343  24.2817898  30.0824203  32.5873909  23.7926941  31.0025806
  31.7012844  25.5609608  29.8090134  31.3128681  25.7794399  28.9026470
  32.2784615  26.6822033  30.6413860  32.7115936  26.2217960  31.5293770
  33.4569283  27.2990856  29.9637051  34.0679932  26.4381447  29.6926117
  33.0438080  28.1240520  28.7059422  32.3101044  27.5587444  28.1312962
  32.5370483  29.0208244  29.0624504  33.9575310  28.2783928  28.1320210
  34.1753807  28.2331753  30.9269333  33.7278404  29.2222157  31.0249538
  34.3273239  27.7665310  31.9002056  35.1742592  28.3398800  30.5039043
  31.2849731  27.6282806  31.2506809  30.3569603  27.9435959  30.5410500
  31.4626465  28.0206013  32.5045395  32.3325272  27.7064629  32.9104004
  30.6810322  28.9970932  33.2510834  30.0747128  29.5331631  32.5209351
  29.7381248  28.3111477  34.2734909  29.0302029  27.6945400  33.7196465
  30.2709179  27.6551247  34.9618683  28.9125786  29.2506046  35.0939140
  28.1142960  28.6878643  35.5778275  29.5988407  29.7666187  35.7653847
  28.1263256  30.6228313  34.1213760  27.7423611  31.6767788  35.6079674
  27.0607414  31.1265717  36.2566376  28.6653137  31.9197502  36.1344872
  27.1993160  32.5956726  35.3869705  31.5203476  30.0339527  33.9997215
  32.1200066  29.7016525  35.0170174  31.4079952  31.3780632  33.7192116
  30.7933559  31.6799412  32.9767914  32.2433739  32.4382210  34.3331223
  32.7370987  31.9572563  35.1775208  33.4608955  32.7929420  33.4886398
  34.1164665  33.5012817  33.9951744  34.1245270  31.9484138  33.3029938
  33.1294785  33.3912659  32.1077347  32.7071953  32.6503105  31.4289417
  32.3121185  34.0545082  32.3908157  34.4754715  34.3155594  31.1879025
  35.3568611  32.8208160  30.6954269  35.6463776  32.3246384  31.6217613
  34.6797600  32.1767464  30.1343441  36.2602158  33.1510201  30.1825829
  31.4589958  33.5874825  34.9063530  30.4647636  34.0123940  34.2660141
  31.8123951  34.1080399  36.1053505  32.6006470  33.6491814  36.5391769
  31.1659985  35.2991676  36.7012672  30.1405945  35.3782234  36.3401604
  31.0877934  35.2368202  38.2929916  32.0668297  35.3688087  38.7536087
  30.0661221  36.3532829  38.8250275  29.0811310  36.1794968  38.3917885
  29.7866783  36.2657547  39.8749542  30.4393349  37.3530197  38.6028938
  30.6185131  33.9995728  38.7655296  29.7182884  33.8841782  38.4526749
  32.0610085  36.5328636  36.3620224  33.3146667  36.4528885  36.4930649
  31.4737129  37.6410370  35.8618126  30.4658699  37.7050591  35.8777733
  32.0544281  38.7824860  35.2697678  33.1197052  38.7623863  35.4997253
  32.0585938  38.7521896  33.7337456  31.0053253  38.8120804  33.4596329
  32.9467278  39.7614250  33.0826683  32.5033798  40.7476082  33.2204475
  33.8750229  39.7089310  33.6515388  33.0813637  39.6073647  32.0120468
  32.4965172  37.3179817  33.3016090  32.7333374  37.2230301  32.2418938
  33.3969765  37.0767975  33.8664932  31.7448425  36.5656929  33.5406342
  31.4562263  40.1122169  35.6668663  30.2958393  40.3005867  35.7115250
  32.3320656  41.1290665  35.9697151  33.2873344  40.8047600  35.9208679
  32.0343056  42.6249962  36.1489105  31.1822853  42.7849388  36.8096504
  33.2887497  43.2404022  36.8563538  33.4880562  42.5701103  37.6924667
  34.1795273  43.2149506  36.2286797  33.1556778  44.6326523  37.3969727
  32.8123932  45.3824081  36.6841431  32.4723129  44.6958847  38.2438011
  34.4408073  45.1463737  37.9616966  34.4183159  45.7066536  39.0751648
  35.6342010  45.0308113  37.3803825  36.4742622  45.1353188  37.9312668
  35.7116966  44.8142204  36.3969269  31.8260727  43.1378899  34.6964722
  32.8281822  43.3237152  33.9376488  30.5686111  43.4293251  34.2346344
  29.8654099  43.2926292  34.9466209  30.2708511  44.0804863  32.9466400
  31.0050297  44.8567772  32.7310905  30.3220043  43.1083679  31.7651501
  31.2333717  42.5110092  31.7910404  29.1436977  42.1711960  31.7149067
  28.9586182  41.8693962  30.6840076  29.1084023  41.4135094  32.4976997
  28.1932220  42.6845512  31.8603745  30.5103149  43.8243446  30.4946651
  31.3627796  44.2617836  30.5542545  28.9817829  44.7585640  33.0898933
  28.0997143  44.2716026  33.8437920  28.7404881  45.8846054  32.4857674
  29.5025520  46.2461929  31.9302368  27.4826374  46.6106834  32.5963631
  27.1896057  46.4395332  33.6321907  27.7514935  48.1049347  32.5196648
  26.9171982  48.6440353  32.9684639  28.6044216  48.2767715  33.1762352
  28.0822372  48.6043129  31.0967369  28.6959839  47.8553047  30.3291721
  27.5832977  49.7275314  30.7673054  26.3881874  46.0981750  31.6509113
  25.2851143  46.4954948  31.7080936  26.8206329  45.3742676  30.5807629
  27.8114395  45.1937218  30.5045681  26.0713120  44.8965378  29.3744678
  25.8498135  45.8482552  28.8914738  26.9392929  43.9384384  28.5280361
  27.2188969  43.2286110  29.3065434  26.2252331  43.2565231  27.3426380
  25.8201141  44.0481186  26.7122746  26.9760590  42.6618195  26.8223610
  25.3525734  42.6550598  27.5971985  28.1616058  44.7972641  28.0931206
  28.9333248  44.1744690  27.6407051  27.9158745  45.4755020  27.2759838
  28.6712875  45.2627106  28.9367371  24.7649269  44.2913170  29.7702370
  24.6853638  43.6231346  30.8176537  23.6652946  44.4853973  29.0233078
  23.5367107  45.3675919  27.8751621  23.9356709  44.9338951  26.9581871
  24.2192173  46.2161407  27.9225578  22.0304832  45.6569366  27.7128391
  21.9366951  45.9732513  26.6739693  21.6209393  46.4734192  28.3075905
  21.4051266  44.2963486  28.0638542  21.4966679  43.5868416  27.2414665
  20.3759575  44.4272575  28.3981838  22.3152485  43.9159470  29.1948299
  21.9407654  44.3060684  30.1412258  22.3358784  42.3579674  29.2499409
  22.9845257  41.7574654  28.4282417  21.5950642  41.6842957  30.1511459
  20.9375191  42.2422066  30.6769505  21.5307579  40.2355652  30.2552414
  22.5721149  40.1588593  30.5679569  20.6991310  39.8589020  31.5266304
  20.6669216  40.6618195  32.2631035  19.6838322  39.8083572  31.1332817
  21.0385590  38.5697060  32.2448540  21.2352695  37.7578049  31.5446968
  21.9803600  38.5852394  32.7933693  19.9682598  38.0251160  33.1288681
  18.8062878  38.1432495  32.9395370  20.3633938  37.6021881  34.2805405
  21.3244438  37.7036476  34.5741234  19.7056618  37.4267159  35.0266647
  21.1722736  39.4855614  28.9896145  21.5102463  38.3151932  28.9362221
  20.3473949  39.9735527  28.0687275  20.0432129  40.9363136  28.0945854
  19.9487762  39.2584763  26.8194027  19.9851418  38.1722450  26.9023647
  18.5463161  39.6320305  26.5170040  18.3082180  39.2078400  25.5415688
  17.8653927  39.0973892  27.1792774  18.0763569  41.1203613  26.6079445
  18.7589722  41.9663124  27.1743603  16.9884605  41.4204636  26.0175018
  20.9012680  39.6040421  25.7208729  20.8863525  38.8998184  24.6748409
  21.8416023  40.5871124  25.7720127  21.8582230  40.9827385  26.7011547
  22.8586388  41.0098076  24.7772427  22.4569511  40.8801880  23.7722816
  23.0984325  42.4599380  25.0599442  22.2305775  43.0761757  24.8250294
  23.4414940  42.6764984  26.0716305  24.1853371  43.1490593  24.1610928
  24.3954067  44.0840073  24.6805630  25.1149960  42.5808411  24.1920643
  23.7015877  43.4010162  22.8188953  22.7084370  42.9036064  22.3028564
  24.4849167  44.1359978  22.1446457  25.4546375  44.1553192  22.4263687
  24.3091354  44.3726540  21.1786251  24.1661510  40.1740112  24.8785305
  24.9519768  40.1586990  23.9506550  24.4427643  39.6671791  26.1392574
  23.7259674  39.8351593  26.8306923  25.6372738  38.8347664  26.3981972
  26.4492474  39.5054779  26.1172180  25.7360630  38.4624825  27.9484501
  24.8035564  37.9781189  28.2381458  26.7786007  37.3773117  28.1369095
  27.8158722  37.5899925  27.8781834  26.7448082  36.9879951  29.1544514
  26.4558907  36.4478149  27.6678753  25.9603100  39.8272324  28.7812996
  26.6622963  40.4256439  28.2005939  24.9824867  40.3083687  28.8030167
  26.3763409  39.6332932  30.2668304  26.4746857  40.5513496  30.8461418
  25.4774971  39.2370796  30.7392693  27.3023300  39.0645714  30.3516865
  25.7215405  37.6046181  25.4644966  24.6839237  37.0335846  25.1742725
  26.9203548  37.2503777  24.9184551  27.7664661  37.6918755  25.2490234
  27.0839729  36.3115234  23.8263798  26.1258850  36.0410118  23.3825417
  27.9944038  36.8846436  22.7672901  28.9665642  37.1005898  23.2104282
  28.1950874  36.1671677  21.9716377  27.4781055  38.1863976  22.1942062
  26.9736004  38.7557716  22.9748383  28.3298397  38.7741776  21.8519154
  26.5120468  38.0177422  21.0398331  27.0319519  37.3523636  20.3505802
  25.5601082  37.5833664  21.3451729  26.1721668  39.2922935  20.3417587
  25.3764954  39.7751999  20.7339458  26.8431263  39.7374725  19.2802334
  27.8533821  39.2290192  18.7059231  28.3215370  39.8035774  18.0197620
  28.4115276  38.6356392  19.3029766  26.4950314  40.9052353  18.8164253
  25.6907158  41.3345184  19.2510490  27.2030869  41.3373337  18.2401905
  27.5545521  34.9195938  24.2892094  28.7639141  34.6986122  24.2102852
  26.6621380  34.0443306  24.6485481  25.7298546  34.4227448  24.7366219
  26.8748188  32.6409721  24.9740429  27.7223301  32.5235596  25.6493492
  25.6011391  32.2184944  25.7412415  24.7741108  32.1569595  25.0338955
  25.7950630  31.1845551  26.0266666  25.2517643  33.0999146  27.0198383
  26.0345306  33.1774635  28.2750854  25.3706131  34.1104889  28.9958496
  25.7213974  34.5671997  29.9095039  24.3372288  34.6522446  28.2860146
  23.6825752  35.2835312  28.7253418  24.2580566  33.9782181  27.0494690
  23.4605484  34.0328140  26.3232441  27.1490116  31.7810230  23.7465267
  26.4600163  31.8889160  22.6756649  28.0001755  30.7318344  23.8677292
  28.2365417  30.4618549  24.8118382  28.6327610  30.0037575  22.7853298
  28.1079273  30.2727489  21.8686562  30.1138744  30.3532505  22.6005344
  30.6579647  30.2220917  23.5358791  30.8516502  29.5692863  21.5441456
  31.8248405  30.0219383  21.3541126  30.9204865  28.5633087  21.9581165
  30.3717194  29.5939102  20.5657959  30.2615738  31.8518810  22.3383675
  29.7613258  32.5575371  23.0016079  31.3180122  32.0890884  22.4639626
  29.9685745  32.0653877  21.3104248  28.4265079  28.5269203  22.7880230
  28.5458488  27.8605270  23.7790661  28.1210594  27.9991035  21.5890942
  28.1281185  28.6237259  20.7954311  27.7539101  26.6340179  21.3908863
  28.1238480  26.0860939  22.2575035  26.1976395  26.5574265  21.3555298
  25.8734436  27.3035774  20.6300945  25.8490562  25.5462456  21.1455173
  25.6278000  27.0276985  22.6985664  25.5560551  26.1628208  23.7645931
  25.8351917  25.1223602  23.6876125  25.2888718  26.6071739  25.0937080
  25.2833385  25.9777031  25.9712830  24.8826694  27.9520473  25.2446404
  24.6500149  28.3641701  26.5149670  24.0364132  27.8131218  27.0063305
  24.8411465  28.8148708  24.1057110  24.5097218  29.8426819  24.1184387
  25.1976776  28.3292961  22.8730488  25.2816467  28.9223804  21.9743824
  28.3172798  26.1243877  20.0437737  27.9285717  26.6284866  18.9860249
  29.1950703  25.1717873  20.0839462  29.4583340  24.9174843  21.0252857
  30.1056328  24.7239971  19.0381393  30.0372410  25.0312366  17.9945736
  31.5409279  25.2712917  19.4419880  31.8258686  24.8345528  20.3991547
  32.3085747  24.9958801  18.7188244  31.7482758  26.8410130  19.5596886
  31.0177975  27.2647724  20.2488422  33.1511917  27.1445885  20.0962048
  33.9754219  26.8099422  19.4663200  33.2584381  28.1979103  20.3552647
  33.3182755  26.6197109  21.0367832  31.6831226  27.4930458  18.1071663
  32.0825806  28.5059853  18.1569500  32.2162323  26.8277607  17.4279823
  30.6486492  27.5409336  17.7670593  30.1077042  23.1638908  19.0056210
  29.5053082  22.5322628  19.8398495  30.6816769  22.6454716  17.9316311
  31.0599232  23.3235130  17.2856522  30.7048264  21.3011570  17.5008907
  31.0558643  21.3224812  16.4691830  31.7268753  20.5432987  18.2618713
  31.5015221  20.7186947  19.3137989  31.6225338  19.4772339  18.0600700
  33.1942558  20.9318314  17.9706364  33.3437805  21.9113522  18.4248199
  33.7854652  20.1518135  18.4503651  33.6125946  20.9004822  16.4720001
  34.2780457  21.8328934  15.9141693  33.2731934  19.8513584  15.8343372
  29.2845707  20.7797699  17.4505062  28.4833717  21.3375835  16.6993275
  28.9119911  19.7682724  18.2410450  29.6452217  19.3454533  18.7921314
  27.5398502  19.2927723  18.3264484  27.0773945  19.3366032  17.3403873
  27.6836662  17.7617779  18.6588726  28.5544834  17.4174347  18.1010151
  27.7733803  17.6651173  19.7408657  26.4046955  16.9144020  18.2383900
  25.5549278  17.3518105  18.7624779  26.4464760  16.9802094  17.1511822
  26.7728100  15.4534826  18.5894871  27.4114361  15.0099678  17.8255806
  27.3752060  15.4672356  19.4977989  25.6680222  14.4529257  18.7328243
  25.0722446  14.7477913  19.5966568  25.1142464  14.4816637  17.7944202
  26.1070824  13.1106825  19.0871048  25.3143959  12.4960928  19.2055435
  26.6357098  12.6802368  18.3418732  26.6812477  13.1291094  19.9178257
  26.6892471  19.9767323  19.4478626  25.4175014  19.8502502  19.2917633
  27.2372284  20.7420082  20.4194927  28.2394428  20.6657066  20.5187092
  26.5759907  21.3559856  21.5524082  25.9429741  20.6165276  22.0429115
  27.6789494  21.7364674  22.5175591  28.2410374  22.6083641  22.1829720
  27.1843033  21.9385967  23.4675961  28.3755150  20.9041138  22.6179256
  25.6162071  22.5804825  21.3020306  24.9076080  23.0187187  22.1843605
  25.5684738  23.0444736  20.0531769  26.3547611  22.7790966  19.4774780
  24.4834709  23.9063015  19.4499245  24.7403679  24.9486141  19.6388454
  24.5124702  23.7778625  17.9254589  24.4239597  22.7038155  17.7620811
  23.3243790  24.4173775  17.1188526  22.4111786  23.8427925  17.2738266
  23.3153362  25.4113369  17.5661469  23.6133022  24.3730698  16.0687752
  25.8161201  24.3187389  17.3299866  25.9762402  25.3547192  17.6286602
  26.6775208  23.7191105  17.6241512  25.7888947  24.2571163  16.2420731
  23.0919056  23.5945358  20.0592823  22.3442173  24.5281372  20.1859875
  22.7695122  22.3105392  20.3445225  23.4815292  21.6042519  20.2249813
  21.4489861  21.8733482  20.8766136  20.6686001  22.3420258  20.2770805
  21.1552849  20.3462200  20.8432999  20.1960583  20.0718060  21.2822533
  21.0885925  19.8364220  19.3622398  20.4478703  20.4205780  18.7016811
  22.0408325  19.9401760  18.8420792  20.9454536  18.7566071  19.3221073
  22.1602955  19.5353012  21.5899334  23.1127281  19.4522171  21.0664120
  22.4140987  19.8653793  22.5972729  21.6959496  18.5967522  21.8926010
  21.2342949  22.3304329  22.3161240  20.0988655  22.6341457  22.6992817
  22.2797050  22.6141472  23.0673313  23.1665115  22.5759525  22.5854454
  22.2558403  23.1840172  24.3708668  21.5267334  22.5392990  24.8616333
  23.5226707  22.8713131  25.1246433  24.3102093  23.4863777  24.6892395
  23.4768333  23.2383556  26.1499634  23.9966049  21.4860249  25.0982380
  24.3757839  21.2349949  24.1076221  25.2317162  21.4809170  26.0988350
  24.9868259  21.9257240  27.0633411  25.6438980  20.4888573  26.2832966
  26.0355854  22.0868778  25.6808395  23.0826263  20.3075714  25.5468769
  22.2843761  20.3494568  24.8058262  23.5997620  19.3491631  25.5007668
  22.6617393  20.4482422  26.5424500  21.7566185  24.6388187  24.6008720
  21.5717869  25.0940552  25.7378178  21.7021275  25.4398079  23.5621262
  22.0225773  25.0532417  22.6857815  21.5058155  26.8915634  23.6801643
  22.3478870  27.3585281  24.1910076  21.4398727  27.5312576  22.2836533
  21.3767052  28.6189365  22.2510109  22.3276596  27.3941746  21.6662865
  20.1914520  27.1170330  21.5068703  20.1512661  26.0310421  21.5911865
  19.2879429  27.5374203  21.9485092  20.0983200  27.4599762  19.9858818
  20.1530094  28.5210590  19.7425499  20.9515705  26.9915543  19.4953156
  18.8521023  26.9140110  19.4713783  18.0614471  27.5252056  19.3250656
  18.6425285  25.6506481  19.0400352  19.6208439  24.7197971  19.0298424
  20.5924931  24.9881229  19.0931263  19.4116631  23.7672005  18.7673531
  17.4782658  25.2417431  18.7317028  16.6772518  25.8549347  18.7814293
  17.3689976  24.2882423  18.4170628  20.1861229  27.1895485  24.4188194
  19.3123989  26.3516674  24.2787781  19.9980717  28.4105015  25.0975170
  21.0674629  29.3436852  25.2620544  21.7300224  29.4659157  24.4052162
  21.6641369  28.9933834  26.1042957  20.4451237  30.6514587  25.7908745
  20.2024479  31.3595428  24.9985218  21.1099911  31.2474403  26.4160709
  19.2157497  30.1075344  26.5849342  18.4275532  30.8595085  26.6221085
  19.4133606  29.7991276  27.6115475  18.8191929  28.7631321  25.9010105
  18.7160816  27.9989605  26.6714058  17.4274845  28.9800014  25.1544189
  16.3668957  29.0834599  25.7578545  17.4524288  28.9920368  23.8702507
  18.2936497  28.7508106  23.3660107  16.3220615  29.0009212  22.9929638
  16.7487640  29.1404228  21.9997044  15.6335344  27.6098137  22.9878387
  16.4301510  26.9221802  22.7038288  15.3067665  27.4284172  24.0117645
  14.4839020  27.4760189  22.0156422  14.3761282  28.0664082  20.9437790
  13.6716805  26.5962715  22.3920727  15.3775988  30.2024326  23.0184250
  14.1279402  30.1142273  23.3240032  16.0232868  31.3329582  22.8107700
  17.0055866  31.3425484  22.5760441  15.5087309  32.5928230  23.3260231
  15.4098148  32.4272194  24.3988190  16.5511780  33.7443924  23.2550125
  16.5483570  34.1300201  22.2355099  16.1755447  34.5919991  23.8282146
  18.0143261  33.3522148  23.7870350  18.1982441  32.3565941  23.3832798
  18.9869938  34.3180847  23.1614056  18.8536377  35.3251610  23.5565166
  20.0257263  34.0815010  23.3919773  18.9075184  34.3472900  22.0747013
  18.0192337  33.2054482  25.3440533  17.4993305  34.0784187  25.7386780
  18.9908085  33.1148872  25.8297939  17.2958946  32.4309654  25.5991135
  14.1292000  32.9631538  22.6841164  14.0452166  32.9935303  21.4646530
  13.1050529  33.2960587  23.5381451  13.2977180  33.2331429  24.5275993
  11.7760525  33.4179497  23.0874424  11.6711760  33.7591896  22.0575581
  11.1181459  32.0063705  23.1167393  11.7223263  31.2946815  22.5540962
  10.9222088  31.7525158  24.1585007   9.8311377  32.0347290  22.4287109
   9.5438633  31.1319351  22.2736645  10.8148279  34.3789253  23.8757801
  10.4791164  34.2620354  25.0441170  10.2737312  35.3154526  23.1161232
  10.6287165  35.4143639  22.1757488   9.2540398  36.2889366  23.6018505
   9.5839949  36.6770554  24.5654869   9.0726233  37.3288765  22.5151882
   8.6108570  36.8466454  21.6536045   8.3731441  38.0795975  22.8829651
  10.3737726  38.1081429  22.2613964  11.1590414  37.3893242  22.0273972
  10.1583881  38.9859924  21.0312672  10.0472450  38.3368340  20.1627350
  11.0176249  39.6394539  20.8802700   9.2649288  39.6035042  21.1235313
  10.8161974  38.8912659  23.5017281  11.7165508  38.3557434  23.8028584
  10.9656515  39.9566154  23.3262444  10.0306511  38.9663200  24.2536564
   7.9397182  35.6978951  24.2063236   7.2218809  36.3844719  24.9731827
   7.6750960  34.4211845  24.0083275   8.3321199  33.9731369  23.3856945
   6.4205279  33.7942848  24.4884834   5.6209030  34.5347290  24.4673748
   5.9849625  32.6054649  23.5950680   5.0049548  32.2759857  23.9402161
   5.8837380  32.9055252  22.1367226   5.0915513  33.6205940  21.9148445
   6.8366709  33.3344574  21.8268223   5.6435161  31.9463406  21.6780758
   7.0060763  31.6518021  23.6609974   7.6727748  31.7644119  22.9795055
   6.5612283  33.3933525  25.9614239   5.5270252  33.3193932  26.6614704
   7.7970114  33.2720528  26.4899502   8.5540915  33.1270027  25.8373470
   8.1201239  33.0075836  27.9124699   7.3160114  32.3548622  28.2522564
   9.3782463  32.2140160  28.0376625  10.2803097  32.7827606  27.8120213
   9.4364128  31.7755527  29.0338917   9.5376005  31.0216103  27.0865612
   8.6607866  30.3741188  27.0940533   9.5525951  31.4691620  26.0927925
  10.7106447  30.1535244  27.4447689  11.6606846  30.6812992  27.5283298
  10.4637737  29.6382332  28.3730087  10.7500620  29.1950169  26.3517799
  10.4140339  29.6493721  25.4197140  11.7855673  28.8756466  26.2341690
   9.8426380  28.0423317  26.6570129   9.6704817  27.4307575  25.8718777
  10.2312565  27.4737225  27.3957710   9.0077562  28.3684845  27.1225204
   8.1589956  34.3181038  28.7373066   8.1451235  34.1731796  29.9247932
   8.0555267  35.4440384  28.1537418   7.8976645  35.4534988  27.1562004
   8.2295094  36.7274742  28.8771515   8.6183176  36.5799446  29.8847027
   9.2256823  37.5758171  28.0928917   8.7554159  37.7572861  27.1264458
   9.2940159  38.5257225  28.6230907  10.6284933  37.1383667  28.0056858
  11.0480595  36.2467461  28.7342110  11.4447689  37.7345581  27.1724434
  11.0979214  38.4379578  26.5360222  12.3626575  37.3292122  27.0571976
   6.8984365  37.4602852  29.0909653   6.0461788  37.4984932  28.1329975
   6.8031449  38.2011185  30.1642971   7.5699301  38.1940613  30.8216343
   5.7892938  39.2201614  30.1543732   4.8792853  38.6473351  29.9759007
   5.6812081  40.0849648  31.4012432   5.1833558  41.0516739  31.3256149
   4.9172692  39.3135796  32.5141106   5.5694094  38.5812531  32.9900360
   4.4332170  39.9648743  33.2418518   4.1868348  38.7434731  31.9400520
   6.9739995  40.2522469  31.9339371   7.4956489  40.8190918  31.3610783
   6.0041890  40.1347084  28.9562550   7.1562724  40.4847145  28.5973396
   4.8883052  40.7119522  28.3931293   3.9777167  40.5053673  28.7781658
   4.8871088  41.5962257  27.1677589   5.6071305  41.0566025  26.5525475
   3.5562544  41.6154671  26.5543232   3.2820647  40.5624313  26.6178532
   2.8138368  42.1707764  27.1275234   3.6878386  42.0684853  25.1298561
   4.4055099  42.8883629  25.1007252   4.1628456  41.2206879  24.6361809
   2.3509283  42.4009972  24.5297489   1.4285266  41.5536385  24.6594181
   2.1906228  43.3594818  23.8146286   5.4744720  42.9996872  27.3029118
   4.9032388  43.7746124  28.0807781   6.6217809  43.2923889  26.6761436
   6.9444795  42.5708084  26.0474205   7.3566780  44.5213280  26.6576824
   7.0373869  45.1230965  27.5085793   8.8740234  44.2519493  26.7869186
   9.1073532  43.3461456  27.3465443   9.3011274  43.9763870  25.8226833
   9.6452446  45.4946594  27.2218800   9.2914877  46.3772202  26.6889248
   9.5557690  45.8218498  28.6840839   8.5739641  45.5847359  29.0938988
  10.1818800  45.0743065  29.1711807   9.9674559  46.8227005  28.8141289
  11.0882692  45.2502136  26.9098377  11.2091351  45.2297707  25.8267517
  11.6940279  45.9954681  27.4253464  11.5936203  44.3843002  27.3375225
   6.9119515  45.5520821  25.5656013   6.9794960  46.7877388  25.6829300
   6.5460849  45.1244583  24.4465370  32.7241402  47.7649841  46.9293785
  31.9071846  47.1783295  46.8370590  32.5645256  48.2906837  47.7768822
  32.7733803  48.3618584  46.1161041  33.8720970  46.7840843  46.9329491
  34.6884689  47.3686485  46.5087738  34.1220207  46.3765678  48.4123383
  34.1001015  47.2847824  49.0146408  33.3269463  45.7035446  48.7332726
  35.5054779  45.6029053  48.5387993  35.6294861  44.8379364  47.7722855
  36.3138351  46.3229332  48.4114075  35.8855057  44.9292755  50.2384567
  36.0446701  46.4261627  51.3038864  36.5662041  46.2022285  52.2344513
  36.5720062  47.2360229  50.7997589  35.0333672  46.6916313  51.6119270
  33.7259827  45.5946655  45.9521179  32.6339493  44.9883614  45.9689293
  34.7576256  45.2023354  45.1919861  35.6219597  45.6739464  45.4169502
  34.7032318  44.1086426  44.2679672  33.7196808  44.1528549  43.8002243
  35.8031845  44.3503342  43.2337570  35.5391426  45.2120399  42.6207008
  36.8048706  44.4510536  43.6515923  36.0722198  43.1663246  42.3168716
  36.9467659  43.4009476  41.7100601  36.1729851  42.2868576  42.9528580
  34.6346207  42.8044624  41.1504936  35.4855499  41.7416687  39.9110909
  35.9531097  42.4210434  39.1983833  36.2277565  41.1308060  40.4249687
  34.8104973  41.0453415  39.4135666  34.6830139  42.6700897  45.0304794
  35.1931229  42.5308418  46.1092377  34.1580620  41.6503677  44.3615456
  33.7819595  41.8207512  43.4397964  34.1766014  40.3323250  44.8207436
  34.5341644  40.3071442  45.8501205  32.6941338  39.6978912  44.8141289
  32.8011894  38.6922836  45.2208214  31.8301125  40.5065117  45.7296333
  32.3268013  40.7587929  46.6665154  31.5498714  41.4809036  45.3294792
  30.8786240  40.0040321  45.9036522  31.9949226  39.5678711  43.4594078
  31.6151466  40.5693893  43.2573395  32.8048820  39.4012299  42.7492599
  31.0490780  38.3815918  43.5481491  31.5684814  37.5257492  43.9792633
  30.2012253  38.7703781  44.1121483  30.7832603  38.2369156  42.5010071
  35.1232872  39.4690437  43.9853249  35.3178520  39.6448059  42.7486420
  35.7693138  38.4668999  44.6346321  35.5767555  38.3922653  45.6232910
  36.7815704  37.6454887  44.0495491  36.4698677  37.4511223  43.0233116
  38.1525841  38.3252907  44.0968933  38.4963837  38.6065445  45.0922813
  38.8967934  37.6176605  43.7314911  38.1729012  39.5499229  43.1799507
  37.8447380  39.2258606  42.1923332  37.5075340  40.3297348  43.5504646
  39.5137634  40.2531357  42.9897346  39.8006668  40.4875450  44.0148392
  40.1591911  39.4864845  42.5610466  39.4035072  41.4666557  42.0987434
  39.3258133  42.3920975  42.4957542  39.3373566  41.4043007  40.7669601
  39.2261429  40.3369980  40.1040573  39.1674652  39.4275398  40.5394249
  38.8472099  40.4733391  39.1778145  39.2220268  42.4793358  40.0314331
  39.2542458  42.3545990  39.0296860  39.3164597  43.3697853  40.4986420
  36.6913300  36.2231522  44.6960373  36.1413498  36.1271935  45.7753601
  37.2116356  35.2222786  43.9799995  37.6275787  35.4068413  43.0783157
  37.1229439  33.7962914  44.2951813  36.2757187  33.6231537  44.9587593
  36.9280586  33.2043953  43.4008789  38.3973007  33.4196167  44.9888954
  39.4898415  33.8323250  44.5956345  38.3678627  32.5296555  45.9563522
  37.4705544  32.1625938  46.2395592  39.4762802  32.0443420  46.8094521
  40.3935661  32.3996582  46.3399429  39.4249229  32.6270943  48.2279778
  38.5020981  32.2730103  48.6874619  40.5215187  32.0084000  49.1284790
  40.3647156  31.0017681  49.5160332  41.5274582  32.1167107  48.7229462
  40.6594543  32.5494766  50.0645943  39.3785019  34.2074852  48.2889099
  40.2989082  34.6275597  47.8833389  38.5522041  34.5419083  47.6616173
  39.0125542  34.7830849  49.6216583  37.9924583  34.4524078  49.8169823
  39.6693611  34.4325294  50.4177818  38.9263687  35.8622856  49.4951477
  39.4867287  30.4843845  46.7505760  38.4389648  29.9004784  46.6544266
  40.6507187  29.8882122  46.8158684  41.5276718  30.3690643  46.9567070
  40.8173103  28.5197220  46.3039055  39.8841629  27.9571781  46.3336029
  41.3759918  28.4656200  44.9551506  42.0633850  29.2996998  44.8140984
  41.9584007  27.5597801  44.7867317  40.3905640  28.5534134  43.7527199
  40.0867767  29.5995598  43.7153854  41.0511017  28.4242344  42.8953400
  39.2178345  27.6530094  43.5870590  38.4103813  28.1133919  44.1564178
  38.9331627  27.5983524  42.5363121  39.4816093  26.3259068  44.0544701
  38.8994255  25.9261341  44.7765121  40.4677391  25.5385971  43.5531197
  41.1959534  25.7191334  42.5172958  41.6094704  24.8477554  42.2176247
  41.0430756  26.4964142  41.8907433  40.6657486  24.3715916  44.0896797
  41.3535805  23.7558250  43.6800079  39.9641647  23.9888306  44.7072334
  41.6610680  27.8100605  47.3508911  42.6410751  28.3909473  47.7967186
  41.3219833  26.4977970  47.5716476  40.5642395  26.1478882  47.0028877
  42.2266121  25.4711514  48.0341454  43.2101402  25.7006035  47.6241150
  42.3883476  25.5597229  49.1084404  42.0337982  24.0424480  47.6587639
  40.9402008  23.6934757  47.1825218  42.9881706  23.2415028  48.1217499
  43.8244400  23.6665859  48.4959908  42.7998505  21.7754726  48.1935616
  41.8076401  21.4861031  48.5398026  43.0608711  21.2186337  46.8190536
  44.1185417  21.2383308  46.5562897  42.9858055  20.1366482  46.9275589
  42.3868370  21.5583744  46.0326996  43.6899719  21.1522579  49.3070145
  44.7229919  21.6701565  49.7695236  43.2842140  19.9428692  49.6533318
  42.3950005  19.6553631  49.2702675  43.7887115  19.1055756  50.7436218
  44.8697166  19.2380257  50.7882195  43.3021469  19.5499458  52.1144753
  43.5016747  20.6123409  52.2545204  41.7753830  19.2964764  52.3924751
  41.1927834  19.8289566  51.6407089  41.6358643  18.2157078  52.3685150
  41.5045013  19.6591625  53.3840294  43.9865723  18.8934631  53.1192360
  44.0260162  19.4410172  53.9067841  43.5564079  17.6023083  50.3179970
  42.6268616  17.2509460  49.5340271  44.2369576  16.6661167  50.9896011
  44.6679115  16.8571835  51.8828392  44.1305428  15.1733093  50.7113304
  43.1659889  14.9870615  50.2390442  45.2568512  14.6002169  49.8669319
  45.0899315  13.5266695  49.7789612  45.0494308  15.2641335  48.5186310
  43.9948578  15.1269855  48.2795296  45.2438087  16.3332825  48.6037292
  45.6157570  14.7977085  47.7125168  46.5701828  14.7855644  50.3586426
  46.5619507  14.1171227  51.0476379  44.1819801  14.3715239  52.0087547
  44.7645035  14.8673496  52.9447403  43.7313385  13.1174383  52.0201836
  43.3055305  12.8230677  51.1529236  43.4400139  12.3217354  53.2222023
  44.0731239  12.7163811  54.0168915  41.9126740  12.3270855  53.6030579
  41.8416252  11.8083515  54.5590744  41.4816093  13.7121496  53.9831085
  41.1361732  14.2820930  53.1205826  40.6091537  13.7268953  54.6363297
  42.3100777  14.0674934  54.5958633  40.9328270  11.7203636  52.6486282
  40.7670517  12.3022995  51.7420044  41.3390617  10.7742472  52.2909470
  39.9808159  11.5710936  53.1580276  43.9722099  10.8883476  53.1034012
  44.1159973  10.3032808  52.0291061  44.3110809  10.3461580  54.2736359
  44.2556076  10.8619976  55.1402016  44.7031555   8.8749361  54.3617249
  45.4241104   8.7023916  53.5626259  45.3645859   8.6843901  55.8121643
  44.6909866   9.1903534  56.5038033  45.3693581   7.6354909  56.1086235
  46.7833252   9.1274195  56.0877647  46.8936653  10.1971655  55.9100838
  47.0378799   8.8621283  57.1138840  47.8646545   8.4834423  55.2111588
  47.5740356   7.5794606  54.3545876  49.0444221   8.8781328  55.2102547
  43.5903931   7.8565998  54.2231026  43.8644066   6.7322845  53.8120155
  42.3295135   8.1830215  54.4697227  42.1611252   9.1528702  54.6958618
  41.1871147   7.2975779  54.5514221  41.2191849   6.5240259  53.7841606
  41.0227966   6.6896138  55.9390144  40.8739204   7.4375277  56.7178345
  40.1840744   6.0042915  56.0614166  42.2484436   5.8917623  56.3747978
  42.4199944   5.2092600  55.5424156  43.1492882   6.4231606  56.6817093
  41.9481163   4.8169932  57.4913902  41.2530060   4.0246263  57.2137642
  42.9027252   4.3216677  57.6688156  41.6108246   5.4312348  58.7251244
  42.3069038   6.0318775  59.1432152  40.4420967   5.2964368  59.4107971
  39.3432312   4.6852512  58.9265556  39.3941422   4.2046738  58.0396729
  38.5539513   4.6032515  59.5513840  40.3221130   5.8444581  60.6024170
  41.1053123   6.1170726  61.1789398  39.4010315   5.8145823  61.0157318
  39.9586372   8.1091661  54.3046761  39.9698868   9.3150959  54.5345726
  38.8910522   7.4142962  53.9289055  38.9530640   6.4264660  53.7277832
  37.5524826   7.9186597  53.7663307  37.4961510   8.9440966  53.4010849
  36.9848671   7.0760121  52.6072044  37.4989624   7.4377108  51.7167130
  37.1831970   6.0060253  52.6696091  35.5374298   7.2199430  52.4225693
  35.0090942   8.2963877  52.6594009  34.9137573   6.3225503  51.7931747
  36.8081551   7.6267524  55.1694374  36.3948822   6.5105700  55.5196075
  36.7690048   8.7330265  55.9270592  37.2168427   9.5968990  55.6563759
  36.1234627   8.8240814  57.2479477  35.1568680   8.3338852  57.1317406
  36.8837585   7.9790444  58.3471909  36.9158630   6.9462862  58.0000877
  38.3030243   8.4087610  58.7950211  39.0360184   8.1813908  58.0209846
  38.3456039   9.4902678  58.9239845  38.5391350   7.9062476  59.7330132
  36.1865158   8.0975475  59.5417595  35.4863281   7.4427981  59.5931625
  35.9819870  10.3216820  57.7531052  36.8702621  11.1345062  57.5309868
  34.9514465  10.5801888  58.6311913  34.3528709   9.8269281  58.9384460
  34.8981133  11.9358244  59.1957741  34.7866020  12.6280527  58.3612137
  33.5896111  11.9939718  60.1199074  32.6384544  11.7501602  59.6466599
  33.5656128  11.3211975  60.9771729  33.4417572  13.3906422  60.7873802
  34.2396622  13.4413881  61.5282402  33.7393379  14.1564579  60.0710907
  32.1005630  13.6830730  61.6052170  32.2469940  14.1498871  62.7612915
  30.9613056  13.4594421  61.1241341  36.1137886  12.3859119  59.9619408
  36.3806915  13.5536547  59.7816162  36.8058624  11.5273180  60.7311172
  36.6211586  10.5488739  60.5619125  38.0640373  12.0255222  61.3985863
  37.8215752  12.9565067  61.9110107  38.4787483  10.9712429  62.4255371
  39.3721924  11.2705545  62.9735069  37.6636658  10.9279957  63.1479454
  38.7983208   9.5784130  61.7790031  37.9000473   9.2212725  61.2753563
  39.6908875   9.6626883  61.1590652  39.1754951   8.4749670  62.8585625
  39.9387703   8.7570057  63.7873077  38.7671089   7.2969251  62.7638893
  39.2684708  12.3765259  60.4578896  40.3677368  12.7636280  60.9216614
  39.1808586  12.1700964  59.1047516  38.3110008  11.7774391  58.7741928
  40.1592102  12.7851019  58.0900497  41.0194206  13.2950907  58.5236931
  40.6875458  11.6643229  57.2350731  39.8485336  11.2146063  56.7041168
  41.5155563  12.0575771  56.6452827  41.3506088  10.4523087  57.9649582
  40.6748619  10.1744738  58.7738342  41.5013351   9.6880503  57.2025337
  42.7019653  10.7782516  58.5367050  43.2315407   9.9236641  59.2767601
  43.1860733  11.9663458  58.5038223  39.4733658  13.8894682  57.2626915
  40.0095940  14.9929476  57.1611671  38.3572159  13.5775108  56.6473427
  38.1583824  12.6013718  56.8138275  37.5324783  14.4600887  55.7505722
  38.2880936  14.7072811  55.0048866  36.4497910  13.6974382  55.0288429
  35.7584724  13.3548203  55.7987785  35.6015587  14.6199331  54.0990334
  34.8429451  14.0756741  53.5365524  35.1635246  15.4818878  54.6022835
  36.3362160  15.0872593  53.4432983  36.9512444  12.4500608  54.3046188
  37.5313377  12.7449617  53.4301872  37.4584846  11.7687931  54.9877586
  35.8097191  11.5567465  53.8503494  35.2818146  11.9015083  52.9612122
  36.1324806  10.5630007  53.5398750  35.0513420  11.5526323  54.6332588
  37.1674271  15.7978783  56.3755722  37.6350746  16.8505459  55.8940468
  36.3861809  15.8296280  57.4452400  36.0079651  14.9537058  57.7766266
  36.0692329  17.0504208  58.2304420  35.7211723  17.8339405  57.5573502
  35.0724068  16.7631283  59.3815041  34.0571823  16.6102219  59.0153923
  35.3626709  15.8065748  59.8160820  34.9023094  17.8110638  60.5351791
  35.8891678  17.9895229  60.9622192  34.4492302  19.1865044  60.0473137
  33.3712845  19.0887775  59.9185257  34.8494492  19.9063396  60.7612877
  34.8396339  19.4100494  59.0544777  33.9105721  17.3274860  61.6189346
  32.8856697  17.3555527  61.2489624  34.2519417  16.3241501  61.8736610
  34.0138206  17.9740086  62.4904022  37.3394699  17.6229858  58.8096313
  37.5931740  18.8426418  58.6907578  38.1565437  16.7745495  59.4698524
  37.9354324  15.7903528  59.4191628  39.2672462  17.3113499  60.2344894
  38.7999268  18.1134281  60.8057899  39.9389763  16.3890266  61.1756630
  40.1500626  15.4763880  60.6183128  40.8308830  16.8953590  61.5447578
  39.0803833  16.0043850  62.4490051  38.1369400  15.6375656  62.0447083
  39.6795540  15.2721443  62.9902229  38.7711563  17.0769539  63.4726219
  38.4691353  18.2805977  63.2804909  38.5313339  16.6248074  64.7163467
  38.6029053  15.6342258  64.8999939  38.0257301  17.2203598  65.3564911
  40.2945328  18.0753727  59.4006310  40.7307816  19.1750717  59.7771111
  40.6145210  17.6564255  58.1799850  40.1988487  16.7846661  57.8844299
  41.5150490  18.3421326  57.2774582  42.2945671  18.7651539  57.9110985
  42.1838417  17.3357563  56.2964172  41.5611115  16.4717007  56.0646553
  42.2664108  17.8853607  55.3587532  43.5687828  16.8353558  56.8913574
  44.2360916  16.6179600  56.0573654  44.1010437  17.5396729  57.5306854
  43.3927383  15.5998869  57.8486137  42.6099930  15.7981815  58.5807915
  43.1248283  14.6727896  57.3418350  44.7427292  15.2996187  58.5293198
  45.4451599  14.9392061  57.7777901  45.0106468  16.2801876  58.9227753
  44.7086067  14.2758350  59.5758934  45.5655136  14.2049437  60.1057854
  43.9317055  14.3773851  60.2132454  44.5207520  13.3565922  59.2019920
  40.8824425  19.4814720  56.5301476  41.5577888  20.5467033  56.4803314
  39.6474876  19.3418884  56.1011276  39.2110291  18.4320469  56.1435204
  38.9050255  20.4432087  55.5269547  39.5631332  20.8418770  54.7549019
  37.5484467  20.0462227  54.9129257  36.9094391  19.7685223  55.7511711
  36.8721542  21.0925560  54.1121254  36.4960823  21.8278484  54.8234711
  37.5916595  21.5612049  53.4407234  36.0313225  20.6718616  53.5606613
  37.7163315  18.9018021  54.1102486  38.0806084  18.2599411  54.7241821
  38.6408768  21.5913353  56.5196381  38.9675064  22.6927357  56.1670952
  38.4352913  21.2384224  57.7894325  38.0786781  20.3073883  57.9510040
  38.4922562  22.2609863  58.9190521  37.8544197  23.1176453  58.7013474
  37.9482040  21.6647186  60.2395592  36.9702263  21.2106056  60.0800438
  38.6915359  20.9117279  60.5014038  37.6104126  22.7624664  61.3336258
  38.5017624  23.3695927  61.4917297  36.8491516  23.4154491  60.9067764
  37.1003227  22.2331734  62.6342583  36.1571541  21.7633495  62.3553314
  37.8386765  21.5814362  63.1013489  36.5812721  23.1891403  63.6569901
  35.7521858  23.7046108  63.1722221  36.1626701  22.6219006  64.4883194
  37.6396217  24.0904560  64.2525101  37.3082085  24.8975754  64.7612534
  38.2776680  23.6280079  64.8842926  38.1634369  24.5781269  63.5398407
  39.8461838  22.8307076  59.1508064  39.9697762  24.0643158  59.2736359
  40.9533730  22.0079460  59.0205154  40.9000549  21.0004120  58.9743195
  42.3056641  22.6463184  59.0426064  42.4804726  23.1620369  59.9868393
  43.4102821  21.5599709  58.9526558  43.0984688  20.7080345  58.3484383
  44.2499313  22.0638084  58.4738655  43.8109055  20.9928207  60.2943497
  44.0989571  21.7471695  61.0265312  42.9791946  20.5302906  60.8257904
  44.9178696  19.9336205  60.2826462  45.8854027  19.8781471  59.4769173
  44.7509232  18.9021854  61.0634842  45.4505768  18.1755981  61.0119705
  43.9757195  18.9447842  61.7095070  42.4962959  23.6291103  57.8619614
  43.0816154  24.7064190  58.0300980  42.2961578  23.1644382  56.6533890
  41.8550682  22.2558937  56.6439934  42.2599602  23.9561977  55.4627495
  43.2414818  24.4217224  55.3732452  42.0215874  23.1179771  54.1949425
  42.6929626  22.2596321  54.2195091  41.0018959  22.7385597  54.2610474
  42.1349144  23.8874493  52.8562431  41.5282898  24.7832813  52.9888802
  43.5252113  24.2466278  52.5639076  44.2396545  23.4868717  52.8808212
  43.7156982  24.4678783  51.5137329  43.7099724  25.1147518  53.1966171
  41.6315689  23.0370178  51.6939774  40.5614281  22.8830204  51.8324738
  41.7300339  23.5621758  50.7439194  42.2003784  22.1081963  51.6510315
  41.4062920  25.2176361  55.4954071  41.9586258  26.3349209  55.2593994
  40.1773109  25.0811787  55.9717712  39.8223686  24.1888771  56.2846832
  39.3601379  26.3420639  56.1412849  39.3912964  26.7955093  55.1505661
  37.9450607  26.0320415  56.5985413  38.0517654  25.4090500  57.4865685
  37.4261703  26.9036751  56.9974251  36.9353638  25.3995247  55.5503731
  37.4288750  24.5464306  55.0847816  35.6473618  24.9063225  56.1675301
  34.9062080  25.6970272  56.2840614  35.1296692  24.2849808  55.4367561
  35.6865845  24.3355331  57.0952988  36.5460205  26.4140835  54.4297104
  36.2862244  27.3426609  54.9379959  37.3478661  26.7253265  53.7601814
  35.7818947  25.8977299  53.8486824  39.9181252  27.4033813  57.1183243
  40.0094910  28.6125412  56.7686234  40.4386520  26.9748764  58.2614784
  40.3325081  26.0135155  58.5523758  41.0414810  27.8892651  59.1732407
  40.4286156  28.7550220  59.4241600  41.4537544  27.1918507  60.4080429
  41.9004936  26.2309532  60.1527100  42.1768379  27.8301811  60.9157677
  40.1500206  27.0263348  61.3143768  39.8390808  28.0364513  61.5809937
  39.3343925  26.5471268  60.7728844  40.4418144  26.2793179  62.5776711
  39.7812233  25.2456169  62.8739510  41.4056244  26.7022800  63.3085899
  42.2586288  28.5287113  58.6048164  42.5578499  29.6725597  58.9194336
  42.9997177  27.8400249  57.7140617  42.7559357  26.8794174  57.5193787
  44.2069778  28.3462448  57.1241074  44.7298622  28.9244194  57.8859558
  45.0858727  27.2322807  56.5598412  45.3772507  26.5762119  57.3800697
  44.6228485  26.5992126  55.8029137  46.4700508  27.7723751  56.1186447
  47.0300560  26.9828300  55.6175385  46.4085159  28.6519775  55.4778519
  47.4574242  28.1337090  57.3322754  46.9658432  28.9058971  57.9240341
  47.6909714  27.2099419  57.8616219  48.7682076  28.5820847  56.6559181
  49.1812325  27.6718674  56.2211533  48.6190987  29.3484058  55.8952446
  49.6679077  29.1223373  57.6574554  49.7827911  28.5393486  58.4741707
  50.6209068  29.2124500  57.3353081  49.3443222  30.0172291  57.9959259
  43.8512192  29.3256798  56.0202522  44.4263039  30.4137535  55.9670525
  42.8805809  28.9624939  55.1720543  42.5713158  28.0120678  55.3174629
  42.1392632  29.7735538  54.1200485  42.8745956  30.0099869  53.3509636
  41.0920639  28.9450035  53.3205490  40.4007950  28.3751163  53.9414139
  40.1140938  29.7067986  52.4207954  39.5621262  29.1022778  51.7010841
  39.4442902  30.3809128  52.9546890  40.7522888  30.3098049  51.7748871
  41.8661842  27.9828568  52.4119720  42.5020065  28.5726376  51.7516823
  42.5334549  27.4420834  53.0830994  40.9661560  26.9903488  51.6808510
  41.5176430  26.1189823  51.3277321  40.2009468  26.5950432  52.3488960
  40.6315689  27.3552608  50.7097740  41.4863434  31.1089020  54.7326469
  41.4637375  32.1337242  54.0178070  41.0338097  31.0118885  55.9944077
  40.9434700  30.1267529  56.4723969  40.6345139  32.1870804  56.7862015
  40.0646400  32.8343239  56.1195488  39.6918983  31.7522087  57.8779030
  40.1606789  30.9111328  58.3887291  39.4042816  32.8312874  58.9892998
  39.0026169  33.7353821  58.5317116  38.6730728  32.4076309  59.6777420
  40.3127289  33.0395393  59.5545006  38.3931160  31.1720963  57.2220421
  37.7398262  32.0046234  56.9608803  38.5368195  30.7423306  56.2307014
  37.6473274  30.1103382  58.0798607  38.3003044  29.2974758  58.3976250
  37.3178368  30.5821304  59.0055733  36.7413368  29.8120766  57.5522919
  41.8410797  33.0042686  57.2829933  41.8539619  34.2376366  56.9826317
  42.8809128  32.4679184  57.9632835  42.9184990  31.4701042  57.8114548
  43.9413528  33.2007408  58.5795479  43.5400810  33.8803635  59.3313446
  44.8443909  32.3043327  59.4260254  44.3525352  31.4326134  59.8576279
  45.6797867  31.9827442  58.8041000  45.4376221  33.1005287  60.6561928
  46.0110168  32.3770485  61.2357559  46.1147156  33.8573303  60.2600975
  44.3666763  33.7279778  61.5660133  44.4502220  34.9695320  61.7926903
  43.4164772  33.0208817  61.9874802  44.8306274  33.9040298  57.6204224
  45.2607574  35.0499878  57.8742790  44.9774857  33.3432961  56.4621544
  44.6785545  32.3839149  56.3605118  45.5744324  34.0158768  55.2643623
  46.4727478  34.5909843  55.4888229  46.0093575  33.0196342  54.2056656
  45.2212639  32.3148232  53.9406204  46.3446274  33.6387367  53.3735542
  47.2398109  32.2133064  54.7354431  47.2325897  31.9376354  55.7899818
  47.2028847  31.3358898  54.0897827  48.5470772  32.9031219  54.5075912
  49.4250603  32.2644157  53.9860992  48.7207909  34.0384789  55.0025215
  44.6815681  35.1264381  54.6136627  45.1909447  36.2188530  54.3088837
  43.3611221  34.9288406  54.5443153  42.9566460  34.1127052  54.9806862
  42.4777603  35.9054260  53.7705879  43.2059479  36.3879585  53.1186562
  41.4995766  35.2318687  52.8633194  40.8603783  34.5449448  53.4179916
  40.9051895  36.0273209  52.4138031  42.2186317  34.6764603  51.6264954
  42.5774345  35.4762115  50.8353691  42.4664955  33.4179573  51.6349564
  42.9152565  33.0064468  50.8291206  42.0663490  32.8369751  52.3577614
  41.9533310  37.0007477  54.7343369  41.2238312  37.8784714  54.2629967
  42.2373352  36.8931541  56.0519447  42.7661552  36.0618057  56.2740135
  41.7774391  37.7741051  57.0961647  41.9965019  37.2464867  58.0244598
  42.5457191  39.1342506  56.9741173  42.2432938  39.6359634  56.0549202
  42.1649170  39.8564186  57.6963158  44.0481453  38.9286270  57.1361732
  44.7447319  38.0500298  57.8984489  44.4005966  37.2725983  58.4436760
  46.0679550  38.2144470  57.7394257  46.8447189  37.6564713  58.2411270
  46.2291832  39.1383018  56.7527504  47.1155205  39.4350014  56.3700294
  44.9573860  39.6104202  56.4323959  44.7927666  40.4716263  55.8018188
  40.2889709  37.8080368  57.3330536  39.7203674  38.6986198  57.8790741
  39.6585312  36.6250610  57.0154190  40.2910843  35.9583588  56.5964966
  38.1587257  36.5540047  56.7496376  37.9544907  37.4768181  56.2066727
  37.8300018  35.3560524  55.8051071  38.0988426  34.4882812  56.4074364
  36.4049149  35.2258759  55.3206139  35.7614861  35.1229019  56.1943970
  36.1371613  36.1429787  54.7958946  36.2965813  34.3464661  54.6857872
  38.5635872  35.3243027  54.5713348  38.0125847  35.8433304  53.9809074
  37.0912323  36.4924698  57.8531837  36.9976883  35.4729156  58.6387825
  36.1829224  37.5160980  57.7599907  36.4727859  38.2936630  57.1842537
  34.8643150  37.6834183  58.4839630  34.9886208  37.0370560  59.3527908
  34.6996269  39.1328468  59.0817070  33.7586594  39.1314774  59.6318703
  35.6098785  39.1791306  59.6795387  34.6236610  40.2706680  58.1460495
  35.4328918  40.0368919  57.4542465  33.6528702  40.2018967  57.6551895
  34.8499680  41.6705322  58.7976341  34.2207336  41.7175751  59.6864243
  35.8681564  41.8202667  59.1567535  34.4538879  42.8423195  57.9256554
  33.5165672  42.5955963  57.4270020  34.2677307  43.7208443  58.5434265
  35.5756798  43.2033272  57.0002098  35.4763222  42.6511230  56.1603928
  35.6042519  44.1946793  56.8091354  36.4502525  42.8761826  57.3851814
  33.6587791  37.0894737  57.6690445  33.5516930  37.4683723  56.4974709
  32.7315598  36.2817726  58.1725006  32.7396736  35.8643608  59.5776367
  33.0208969  36.7586365  60.1337776  33.3697281  34.9967880  59.7737274
  31.3309383  35.3423653  59.9537506  30.8007469  36.2504196  60.2408638
  31.2990685  34.6910782  60.8272018  30.8483620  34.7840538  58.6170044
  29.7626400  34.8505821  58.5471306  31.0969143  33.7239723  58.6674728
  31.6074791  35.5688705  57.4789238  31.9575481  34.8513336  56.7368317
  30.7509441  36.5044632  56.7008133  30.1990070  36.1425209  55.6511841
  30.6101189  37.7487831  57.1945572  31.1676807  37.9414978  58.0143661
  29.9568501  38.9143867  56.6283340  28.9335384  38.5606003  56.5027542
  30.1650677  40.0542374  57.6690750  29.9441929  39.6386261  58.6522255
  31.2005768  40.3944893  57.6759987  29.2350731  41.3154259  57.3622627
  29.1137695  41.4049683  56.2827377  28.3145504  41.0044289  57.8562431
  29.6685658  42.6788979  57.8032417  30.8840179  42.9129486  58.0076637
  28.8458042  43.6128998  57.9078255  30.4834442  39.2999535  55.2109985
  29.6626682  39.4149933  54.3031654  31.7362347  39.1057281  54.9019241
  32.3047485  38.7840881  55.6722755  32.3187675  39.4405403  53.6399803
  31.8235455  40.3531075  53.3082047  33.7869453  39.8280754  53.7780647
  34.2574043  38.9881325  54.2892075  34.1988144  39.7429314  52.7724724
  34.0789413  41.2281494  54.3574600  35.2232323  41.5295753  54.8145332
  33.1907768  42.0853348  54.3825951  32.1628571  38.2858391  52.5501747
  32.3659744  38.4859428  51.3475151  31.8712711  37.0558319  52.9892387
  31.6034546  36.9240990  53.9541321  31.6323395  35.8625946  52.0763283
  32.4287643  35.8911018  51.3326912  31.6463051  34.5132980  52.7746353
  30.7133312  34.5049782  53.3381882  31.6684189  33.2265892  51.8580399
  31.6340103  32.3032761  52.4363213  30.8909054  33.3648529  51.1067352
  32.5474472  33.1821861  51.2150536  32.8936958  34.3781128  53.6099281
  32.7920990  33.5040321  54.2531700  33.7802925  34.2786827  52.9836960
  33.1474152  35.1988678  54.2808113  30.3161945  36.1089439  51.3667984
  29.2912102  36.3042145  51.9536400  30.2934437  36.0984230  49.9933434
  31.1735516  36.2542419  49.5229912  29.2040386  35.9641685  49.0476990
  28.4875202  36.7364006  49.3276253  29.6555119  36.1827469  47.5246162
  30.4675159  35.4980659  47.2797394  28.5697098  35.9187164  46.5190811
  28.9042091  36.2335625  45.5306091  28.3332481  34.8590546  46.4226494
  27.6766014  36.5307121  46.6452484  30.2954178  37.6017876  47.3392258
  29.6342373  38.4407349  47.5562592  31.1748695  37.7891960  47.9552994
  30.5568218  37.7423019  46.2904053  28.5692177  34.5373917  49.0866318
  27.3882866  34.3831558  49.2630997  29.3296776  33.4700470  48.8977470
  30.3337078  33.5520515  48.9705353  28.9204426  32.0753403  48.7662392
  28.3544540  31.9843369  49.6933174  28.0314388  31.7494125  47.5280266
  27.4844589  30.8308125  47.7403641  27.3884087  32.6273842  47.4665489
  28.8563099  31.6816311  46.1974678  29.4541798  32.5859108  46.0837517
  29.5174294  30.8193150  46.1112404  27.7793064  31.6506348  45.0276985
  26.7054691  32.2279816  45.1122513  27.9794102  31.0093327  43.9308891
  28.9221573  30.6622810  43.8265610  27.2452526  31.0593681  43.2390709
  30.2044640  31.1903172  48.9359474  31.3128815  31.7592850  48.7808685
  30.0648994  29.8146687  49.1217957  29.1105881  29.5018597  49.2292252
  31.0548306  28.7723618  49.4403954  31.9738216  29.1547012  48.9961243
  31.3239803  28.7640572  50.9479866  31.9815674  29.5910530  51.2158623
  30.3888607  28.9649391  51.4707756  31.9905624  27.5435219  51.5592117
  31.9049835  27.5108433  52.6453552  31.6870060  26.6046600  51.0960732
  33.8285027  27.5394535  51.2716637  34.1511345  28.6901417  52.6325760
  34.0035553  28.3136635  53.6447906  35.2212410  28.8953247  52.6620789
  33.5979691  29.6268559  52.5642319  30.7322445  27.4088192  48.8148994
  29.6046753  26.8304081  49.0077286  31.6653328  26.8339729  48.0831680
  32.5153084  27.3614273  47.9437523  31.4669437  25.5638390  47.2027283
  30.5447845  25.0464230  47.4673119  31.3477345  26.0067444  45.6909294
  30.4155293  26.5504284  45.5376244  32.1053810  26.7326965  45.3958588
  31.3757668  24.8264484  44.6828537  32.2051430  24.1408367  44.8565636
  30.0748596  23.9983692  44.7172012  30.0972805  23.1725826  44.0060883
  29.9716835  23.4711857  45.6656380  29.2128849  24.6265450  44.4924889
  31.4854927  25.5435104  43.3335381  31.9517651  26.5276070  43.3809242
  32.2099571  25.0706501  42.6704712  30.5002251  25.6529198  42.8803558
  32.5837593  24.5975780  47.4695168  33.7520599  24.8851414  47.2574005
  32.3207054  23.3610573  47.9223137  31.4217758  23.1066780  48.3061333
  33.3561058  22.3025398  48.1192780  34.3322334  22.7874088  48.1059952
  33.2279205  21.5223942  49.4599190  32.3011246  20.9490128  49.4794693
  33.9736786  20.7282734  49.4961777  33.2802162  22.1179695  50.8791962
  33.2370796  21.3113079  51.6110001  34.5626488  22.9060230  51.1101189
  34.6503372  23.7036419  50.3724022  34.4594421  23.3416309  52.1039467
  35.4177399  22.2387409  51.0021782  32.0159988  22.9041538  51.2153664
  32.2152901  23.9279690  50.8988419  31.1621704  22.3951550  50.7681541
  31.8983402  22.8614140  52.2981567  33.1772575  21.3068829  46.9717674
  32.0759544  21.0868912  46.4997978  34.2275047  20.5649338  46.6958351
  35.1124229  20.7718010  47.1365471  34.3335648  19.4484940  45.7759285
  33.3858185  18.9671955  45.5346222  34.9673843  19.9133339  44.5166664
  34.4293098  20.8189869  44.2367325  35.9885902  20.1853905  44.7835579
  34.8899269  18.9947815  43.4540596  35.5696602  19.2147350  42.8128166
  35.1897087  18.3863010  46.3212585  36.0562096  18.6318550  47.1608505
  35.0422325  17.1574535  45.8453369  34.5637627  17.0800819  44.9592323
  35.7448883  15.9907274  46.2784805  36.7793503  16.3271770  46.3477287
  35.2068558  15.5367117  47.6730003  35.8580894  14.7424192  48.0378227
  35.2111130  16.4011593  48.3369370  34.1696701  15.2185049  47.5676308
  35.5974312  14.7718067  45.3020096  34.7043800  14.7473478  44.4437714
  36.5430183  13.8626080  45.4174194  37.2641525  14.0363207  46.1029053
  36.4927254  12.6711311  44.5430794  36.1287193  13.0374317  43.5831718
  37.9301262  12.1017828  44.3169861  37.7434006  11.3722630  43.5289268
  39.0341911  13.0279760  43.9057236  38.8467522  13.4006701  42.8987122
  39.1116219  13.8973312  44.5586624  39.9591942  12.4514217  43.8985634
  38.3039474  11.4296665  45.5511932  39.0219040  10.8539267  45.2779579
  35.5541763  11.5710974  45.0653915  35.2027588  11.5935917  46.2387543
  35.0157852  10.6358938  44.2625656  35.0203285  10.6430826  42.8345985
  36.0475121  10.4863224  42.5053253  34.6198883  11.5810270  42.4498825
  34.1703186   9.4777870  42.2759514  34.8833809   8.7128410  41.9685478
  33.4830322   9.8345070  41.5088234  33.3503876   9.0858040  43.4930153
  32.8675613   8.1088171  43.4711952  32.5130272   9.7818136  43.5430107
  34.2516747   9.4824448  44.6799088  33.5734673   9.7317429  45.4959831
  35.0653381   8.2899933  45.2073784  34.5476761   7.2329817  45.3777809
  36.3273697   8.4170456  45.5547104  36.8051147   9.2339449  45.2018166
  36.9888077   7.5682955  46.4676285  36.8133850   6.5221372  46.2168655
  38.5481834   7.7639589  46.4009705  38.7827187   8.5382671  47.1314087
  39.0913429   6.8791308  46.7328758  39.1488800   8.2551880  45.0542870
  39.1351509   7.4782495  44.0487442  39.7748070   9.2993431  45.0684586
  36.5673523   7.8282237  47.9208107  36.6520309   6.9320273  48.7955627
  36.1187935   9.0616217  48.1962700  36.1472397   9.7314577  47.4408760
  35.4869003   9.4238815  49.4505196  35.8949699   8.7952881  50.2420044
  35.9113388  10.8649712  49.8157082  35.5546341  11.6312809  49.1274986
  35.6056366  11.1876574  50.8109550  37.3961945  11.1139984  49.8615532
  37.6869278  11.0283375  48.8145332  37.5032578  12.5900984  50.3061295
  37.0109215  12.8134241  51.2526169  38.5668449  12.6719675  50.5301361
  37.1739426  13.3057108  49.5527725  38.2520676  10.2690430  50.8353081
  37.9506950  10.4710922  51.8631439  38.1660347   9.2003126  50.6390572
  39.3071213  10.5148563  50.7147331  33.9619980   9.4178972  49.4505310
  33.3308792   9.8023596  48.4502411  33.3808975   8.9688253  50.5761299
  34.0244598   8.7668276  51.3278770  31.9167805   8.7477064  50.8311691
  31.3299179   9.4307499  50.2170525  31.6547699   7.2897301  50.5486412
  32.2625008   6.7291713  51.2589531  30.6149368   7.0778384  50.7975388
  32.0883675   6.8971462  49.1792336  33.3317223   6.2613845  49.0020027
  33.9477921   5.9872193  49.7539291  33.3875656   5.8851924  47.7321358
  34.2290916   5.3884344  47.2722816  32.3833122   6.4597869  47.0541382
  32.2866211   6.4318333  46.0491638  31.4482479   6.9641099  47.9741211
  30.4818554   7.3605690  47.6996994  31.4703960   9.0255804  52.3036613
  30.3109016   9.2510605  52.5522041  32.4245148   9.0596418  53.2541313
  33.4114571   8.9353905  53.0791702  32.0475845   9.0055666  54.6795692
  31.4149075   8.1233606  54.7772141  33.3254318   8.6499472  55.5267410
  33.0030098   8.6552734  56.5679474  33.8125000   7.7637663  55.1198616
  34.0753632   9.4282122  55.3852844  31.3042145  10.0944939  55.3094864
  30.6784763   9.8441858  56.3473320  31.3880024  11.3742552  54.9535217
  31.8377171  11.6276188  54.0853844  30.6091042  12.5187311  55.4396820
  29.6020641  12.1052427  55.4944191  31.0488415  12.8876181  56.8739548
  30.9638023  12.0421638  57.5566521  32.4807854  13.3879890  56.8558960
  32.4969330  14.3298054  56.3074265  32.7978668  13.5318470  57.8887863
  33.1337357  12.5683403  56.5560265  30.2913971  14.0255785  57.5760612
  30.6630116  14.0900383  58.5987282  30.3355484  14.9708452  57.0351181
  29.2163048  13.9081945  57.7120819  30.8317528  13.7187843  54.4905663
  31.8149185  13.9354830  53.7388649  29.8203659  14.6181898  54.4375572
  28.9843521  14.4722681  54.9851799  29.8734035  15.8055124  53.5566177
  30.0553627  15.4405594  52.5457726  28.4214859  16.5239315  53.6550026
  28.0968056  16.4579334  54.6934319  28.5450974  17.5772800  53.4034538
  27.4575596  16.0189457  52.5923004  26.0936089  15.9227781  53.0057755
  25.8938274  15.9790268  54.0656433  25.0093250  15.9349689  52.1341095
  24.0073605  15.9297590  52.5371437  25.2461834  15.9093065  50.7561073
  24.4025574  15.7599421  50.0985413  26.5222130  15.9189701  50.2903633
  26.6727581  15.8111629  49.2263527  27.6868668  16.0303555  51.1776886
  28.7039204  16.0448666  50.8146591  30.9792271  16.8231907  53.9432716
  31.0459995  17.1940861  55.1220398  31.7816544  17.4572182  53.0407982
  31.9126492  17.1548424  51.6284561  30.9827747  17.1001091  51.0623894
  32.3610725  16.2049732  51.3373184  32.7980881  18.2838840  51.1624298
  32.1885834  19.1354866  50.8601379  33.3697701  17.8873253  50.3233681
  33.7470360  18.6081486  52.3148880  34.2310753  19.5718937  52.1567688
  34.5396957  17.8599567  52.3153305  32.7707634  18.4237499  53.4463806
  33.3627052  18.0699444  54.2904930  32.1717033  19.8193531  53.8932304
  32.8217392  20.5323429  54.7079887  30.9216747  20.1310291  53.5565300
  30.4709339  19.5476627  52.8661537  30.0548706  21.0971413  54.1949844
  30.4090977  22.1008167  53.9599075  28.5983391  20.9272614  53.7722740
  27.8912354  21.4900684  54.3816566  28.3225975  21.0932083  52.7308655
  28.4370461  19.8717022  53.9910889  30.1451817  21.1537781  55.7263641
  30.0561619  22.2754974  56.2601433  30.1802998  19.9955692  56.3713493
  30.2826366  19.1388397  55.8463287  30.1590137  19.8527393  57.8512230
  29.2075329  20.2432671  58.2121582  30.3614750  18.3603592  58.3013535
  29.8998013  17.6470318  57.6186295  31.4053497  18.0466709  58.3064766
  29.8913155  18.1164856  59.7405128  30.5275898  18.7246208  60.3834953
  28.8687420  18.4730816  59.8641319  29.8303356  16.6811104  60.2755814
  28.9991188  16.2121925  59.7489929  30.7138348  16.0742989  60.0773201
  29.4821568  16.6820011  61.7833710  30.1371021  17.4265766  62.2358780
  28.4248295  16.9441242  61.7452927  29.5888004  15.3222647  62.3959694
  30.0149078  15.4554052  63.3019562  28.6984825  14.8457432  62.4148903
  30.1991558  14.7455711  61.8347282  31.1202621  20.8199043  58.5221100
  30.8132019  21.2679062  59.6381989  32.2155380  21.1737766  57.8492508
  32.3256874  20.7981014  56.9182091  33.3527336  21.9762115  58.3419304
  33.6664734  21.5015068  59.2716179  34.5580711  21.7898426  57.3795738
  34.3605194  22.3054276  56.4397621  35.4742622  22.1805077  57.8223763
  34.5929222  20.7380047  57.0958023  32.9532738  23.3991508  58.6745796
  33.4098930  23.9886398  59.6679840  32.0277634  23.9847813  57.8840828
  31.7156601  23.5519218  57.0265694  31.7586308  25.4201794  58.0809097
  32.6949120  25.9513073  58.2523232  31.0819492  26.0480976  56.7858734
  30.1605835  25.4820976  56.6486549  30.9152470  27.5786343  56.9336357
  31.8158474  28.0179882  57.3625755  30.6377869  28.0795841  56.0061798
  30.0674400  27.7023277  57.6074524  31.8794880  25.8813839  55.5062370
  32.3018303  24.8775520  55.4610138  31.3350029  26.1699810  54.6071548
  32.7874603  26.4781017  55.5934639  30.8549404  25.6925201  59.3215294
  30.8929138  26.7264519  59.9288673  30.0622120  24.7275734  59.7872200
  30.1188965  23.9108810  59.1956863  29.3064003  24.6466541  61.1150589
  29.0044823  25.6751614  61.3128433  27.9380856  23.8238983  60.8365974
  27.2217426  24.1491852  61.5910149  27.5200367  24.1643677  59.8892784
  28.0213966  22.2996044  60.9422874  28.3541660  21.9909039  59.9512939
  28.7480450  22.0487785  61.7150536  26.6796131  21.7645683  61.2611427
  26.4990368  22.0724525  62.2910461  25.9335766  22.1334839  60.5572739
  26.6690903  20.3188305  61.1488457  26.8736038  19.8229733  62.0046501
  26.3223000  19.5355110  60.1280251  26.2735634  19.8279743  58.8575401
  26.4456177  20.7867661  58.5906754  26.0618763  19.0399151  58.2623482
  25.9418793  18.3267498  60.3925858  25.5588417  17.8592529  59.5833702
  25.6660633  17.9625854  61.2933693  30.1255970  24.1451111  62.2492790
  29.7049446  24.2731075  63.4046707  31.2976379  23.5074749  62.0331383
  31.5430336  23.2962074  61.0764503  32.2701645  23.3022919  63.0451813
  31.7040787  23.1454144  63.9633522  33.1084175  22.0038395  62.7137146
  33.3954201  21.9583435  61.6631622  34.0075951  22.1239643  63.3179855
  32.4255142  20.6382275  62.9909439  31.6923180  20.3898525  62.2235870
  33.2760582  19.9565926  62.9840965  31.7990017  20.4905205  64.3810349
  30.6610966  20.0386848  64.3994751  32.3937912  20.8140755  65.4306335
  33.1997032  24.5340633  63.3873405  34.0144310  24.5451813  64.3141708
  33.1664810  25.5555592  62.5939789  32.7479553  25.4807129  61.6778297
  33.6533699  26.9264011  62.9279404  34.4808693  26.9006481  63.6369438
  34.0460663  27.6505680  61.6286240  33.1687241  27.6529770  60.9818153
  34.3442879  28.6941910  61.7286987  35.0636559  27.0164108  60.7361641
  34.6606483  26.0361099  60.4817963  35.3442764  27.7916965  59.3952713
  35.7266922  28.7980442  59.5659256  36.1548767  27.3346596  58.8277016
  34.4678230  27.7022610  58.7534447  36.3981781  26.8913422  61.4753876
  36.9890137  27.7422352  61.1362724  36.3063049  26.9873486  62.5572586
  36.8226395  25.9043026  61.2918472  32.6412544  27.8707085  63.6171188
  31.4188538  27.6026230  63.6434937  33.1157990  28.9244499  64.2648621
  34.1236420  28.9867306  64.2866745  32.2184715  29.8180599  65.1151352
  31.4805622  29.2053337  65.6329727  33.0376205  30.3906918  66.3298264
  33.6637535  29.5955677  66.7345886  33.7545166  31.1626740  66.0501862
  32.1142960  30.9697876  67.2443237  31.5195961  30.2737713  67.5332794
  31.5941944  31.0249844  64.4244308  32.2913132  31.8693848  63.9408264
  30.2620869  31.2709122  64.4572525  29.6524563  30.6530666  64.9737015
  29.5752182  32.4172974  63.7764091  28.5463982  32.3573761  64.1314316
  30.0272923  33.3188095  64.1899338  29.5474396  32.5138702  62.2121010
  29.2871456  33.5985832  61.6966324  29.8328838  31.3804874  61.5282326
  30.0468426  30.5518169  62.0645370  29.5987167  31.2510166  60.0702477
  29.6484909  32.2257309  59.5848999  30.8129387  30.4441261  59.4915123
  31.0277500  29.5088520  60.0084419  30.5344181  30.1472912  58.4803619
  32.1157684  31.1063747  59.3477707  32.8367805  31.7328911  60.3062286
  32.4546661  31.8882961  61.3043442  34.0544815  32.1739426  59.7862816
  34.7032280  32.7653275  60.2857742  34.1175232  31.9737225  58.3770599
  35.0363846  32.3391914  57.4138832  35.9074631  32.9332886  57.6477051
  34.7905769  31.8175983  56.1011391  35.4649506  32.0539474  55.2913513
  33.6955223  30.9506092  55.8552742  33.4432831  30.6424313  54.8513794
  32.7410393  30.7083511  56.8189392  31.8864784  30.1344166  56.4922523
  32.9437943  31.2021580  58.1468925  28.1948242  30.6715851  59.7561493
  27.9877338  30.0182686  58.7206497  27.2807331  30.9124928  60.7066460
  27.5459805  31.4212494  61.5378647  25.9104614  30.2808437  60.7209282
  26.1442451  29.2165298  60.7470818  25.2476635  30.4256287  62.1033936
  25.9763241  30.2819405  62.9012070  24.8979473  31.4534149  62.2006187
  24.1731377  29.4059296  62.4875526  23.2398167  29.5847416  61.9536629
  24.4253731  28.3930798  62.1735229  23.8860855  29.2136879  63.9846497
  24.7200356  29.4610558  64.8476028  22.6117191  28.9757938  64.3414688
  21.9076710  28.7955532  63.6400871  22.3934193  29.0980301  65.3199844
  24.9898758  30.5998421  59.4915047  24.0098801  29.9581718  59.3209305
  25.3602829  31.6108303  58.7547035  26.2050114  32.0803680  59.0480804
  24.5535469  32.1469383  57.7374916  23.5481148  31.7322025  57.6653938
  24.3004570  33.6347618  57.9953308  25.1820469  34.2427864  57.7923355
  23.5243092  34.0308990  57.3405190  23.7773037  34.0351524  59.3595619
  22.6217594  33.4454384  59.8360023  22.0770683  32.7828598  59.1797218
  22.0654926  33.6668510  61.1281281  21.1075554  33.2933044  61.4586182
  22.6993866  34.5316505  62.0165329  22.1524639  34.9329491  63.1865044
  21.2234840  35.1036720  63.0148888  23.9125977  35.1074829  61.6024094
  24.4165249  35.8565521  62.1951637  24.4376965  34.8342972  60.3402672
  25.4386539  35.1432152  60.0774918  25.1723423  31.9053860  56.3461075
  24.5433559  32.2081985  55.3376923  26.4298439  31.4132004  56.2094955
  26.8580933  31.0686951  57.0568581  27.1261520  31.3147392  54.9416885
  27.0489521  32.2666817  54.4163818  28.5607738  30.9686146  54.9741135
  28.7086792  30.0125656  55.4762993  29.3527794  31.0249233  53.6448135
  30.3999996  30.8421288  53.8856812  29.1183701  30.1578579  53.0272751
  29.3364601  32.0067024  53.1715851  29.2534161  31.9882011  55.9804306
  28.8251724  31.9408588  56.9816628  30.3356819  31.8588219  55.9881325
  29.0777950  33.0474930  55.7929306  26.4262581  30.3006229  54.0315475
  26.2942486  29.1416168  54.3824501  26.1544113  30.6414223  52.7713051
  26.2553444  31.8975906  52.1096802  27.1669064  31.9879093  51.5189209
  26.2432842  32.7827835  52.7455978  25.0793037  31.9351254  51.0859032
  25.3719425  32.7475471  50.4207458  24.0939884  32.0500374  51.5376205
  25.0887432  30.4452915  50.5370369  25.7454720  30.4783344  49.6677170
  24.1048565  30.0379829  50.3043022  25.6835079  29.7326202  51.7786865
  24.9415665  29.1095810  52.2781296  26.7346897  28.7084045  51.2809830
  27.6901703  29.1902695  50.5668564  26.6898708  27.4874630  51.7723694
  25.8647842  27.1811161  52.2678375  27.6063328  26.4273300  51.5656395
  28.4685173  26.8286686  51.0330391  28.0999622  25.9433937  52.9612885
  27.2174244  25.8212051  53.5892220  28.9036884  24.6050224  52.8062210
  29.6942787  24.7283344  52.0660439  29.3394222  24.2902470  53.7544594
  28.2123661  23.9048176  52.3372917  28.9880753  27.0014286  53.5931168
  29.2127609  26.7477875  54.6291084  29.9215546  26.8649578  53.0471382
  28.5465813  27.9800186  53.4046059  26.9491673  25.2912617  50.7006454
  25.7839012  24.9622879  50.8617973  27.7653694  24.5731030  49.9200821
  28.7471218  24.8098507  49.9347382  27.2982788  23.5696354  49.0230980
  26.4493408  23.0521660  49.4699020  26.7972755  24.1343212  47.6822433
  26.5915508  23.2536621  47.0737877  25.4786949  24.8962307  47.7764053
  25.0455036  25.2549362  46.8427200  24.8069477  24.1738358  48.2400856
  25.5842228  25.8331757  48.3233032  27.7378483  24.9282684  46.9573326
  28.3137417  25.3109531  47.6232910  28.4913483  22.5733051  48.7025490
  29.6421356  23.0337563  48.7588692  28.2048149  21.3067284  48.3070641
  27.2525539  21.0552082  48.0833778  29.1839447  20.3396473  47.8327866
  30.1280155  20.8732796  47.9426231  29.1737137  19.1630459  48.8429565
  28.3162613  18.4903297  48.8610916  30.0385056  18.5474491  48.5954094
  29.4533882  19.7116013  50.5565414  28.1553764  19.9404888  50.7748795
  28.9276333  19.9310589  46.4250374  27.7825851  19.8822384  45.9202805
  30.0065937  19.4117222  45.7672997  30.8950367  19.5278530  46.2334328
  29.9158249  18.6064491  44.4773293  28.9342880  18.1394081  44.5583076
  30.1429672  19.5586452  43.2908401  29.9113197  19.0774460  42.3406372
  29.4815693  20.4249573  43.3033295  31.5625725  20.1465206  43.2444191
  31.7456207  20.6962471  44.1676712  32.2471237  19.3053818  43.1349716
  31.7602692  21.4015503  41.9508743  33.4820747  22.0405521  41.9777145
  34.1713486  21.1995735  41.9018173  33.7189560  22.7571640  41.1912918
  33.6798553  22.4923077  42.9497757  30.9416103  17.4547768  44.3797035
  31.8249302  17.3572769  45.2263336  30.8491039  16.7475376  43.1964760
  29.9622974  16.9130287  42.7422867  31.7033424  15.6683950  42.7913208
  32.3172035  15.3196182  43.6217613  30.8632565  14.4375839  42.3661575
  30.0112705  14.3082657  43.0336151  30.4608994  14.5731516  41.3622475
  31.5198383  13.0644646  42.5178375  31.2030926  12.3396063  41.7679329
  32.6039772  13.1759186  42.4998512  31.3588181  12.4750109  43.9701614
  30.4472733  11.7794905  44.2910423  32.1673012  12.7748756  44.9688683
  32.9348335  13.4238253  44.8695564  31.9294186  12.3758364  45.8656845
  32.7045288  16.0868092  41.6340599  32.2922440  16.4995098  40.5512276
  34.0295219  16.1866035  41.8573685  34.2889252  15.7416716  42.7261887
  34.9749413  16.7304306  40.8844757  34.5973091  17.7132874  40.6025429
  36.3267174  16.7341614  41.5654564  36.1567802  17.0795422  42.5852318
  36.7015572  15.7232246  41.7254639  37.3647194  17.6370831  40.7902985
  38.3076286  17.2468433  41.1733589  37.3622856  17.3672581  39.7342262
  37.3422928  19.1781445  40.8682709  37.9269524  19.8752785  40.0768661
  36.7821999  19.6885204  41.8646698  35.0799599  15.7708015  39.6811409
  34.8147697  14.5385180  39.8389740  35.4692497  16.1898651  38.5077820
  35.7323761  17.1515884  38.3466797  35.3888512  15.2360573  37.3167763
  34.4953842  14.6188936  37.4112282  35.5016670  16.0477543  35.9808960
  35.1620445  15.4916792  35.1070900  34.8226471  16.8986263  36.0360947
  36.8413925  16.6620216  35.7423325  37.1433640  17.3840313  36.5010223
  37.5688019  15.8508759  35.7103271  36.9409561  17.5645123  34.1797371
  37.4971161  16.2695808  33.1375198  36.8079414  15.4277220  33.0710297
  37.6197586  16.5499096  32.0913467  38.3526955  15.9029493  33.7046738
  36.5496216  14.2737408  37.3821907  37.6005287  14.5722523  37.9523621
  36.2542648  13.0697756  36.9595604  35.3270073  12.9959831  36.5660477
  37.2249527  11.8510828  36.9836502  37.8087120  11.8801050  37.9037018
  36.4634895  10.5286503  36.9401627  35.7922745  10.5056477  36.0816498
  37.1562042   9.7306681  36.6728020  35.6735382  10.1693258  38.1877708
  35.9782829  10.7381449  39.2766647  34.7203636   9.3776140  38.1615906
  38.3288460  11.9097652  35.9194527  37.9733009  12.0489178  34.7248039
  39.5898285  11.8555613  36.3188019  39.7578850  11.5219450  37.2571831
  40.7832680  11.9169607  35.5247688  40.4427795  11.9344044  34.4894562
  41.5382729  13.3015985  35.7516098  41.7976913  13.1838989  36.8037262
  42.8082733  13.4790668  34.7854729  42.5469055  13.4890318  33.7273216
  43.2672462  14.3944473  35.1590042  43.5463638  12.7042980  34.9929695
  40.6052322  14.4511909  35.3578682  40.2536049  14.3590431  34.3302689
  39.6507607  14.4280062  35.8837471  41.0166245  15.4221306  35.6338043
  41.6912117  10.7283049  35.7600899  42.1019440  10.4609489  36.9134178
  42.2588120  10.2653399  34.7109032  41.9194565  10.6157837  33.8265228
  43.3583870   9.2491407  34.8159523  43.0212669   8.4465866  35.4719696
  43.5895042   8.5961504  33.4318542  43.9021072   9.4078741  32.7749786
  44.5787773   7.4810762  33.4642563  45.5569916   7.8447399  33.7788162
  44.3418045   6.6743169  34.1578598  44.6451416   7.0292768  32.4745255
  42.4353638   8.0124531  32.7697144  42.6752701   7.8633609  31.8522072
  44.6294785   9.8463211  35.4107666  45.1088524  10.8969421  34.8904533
  45.1402817   9.1562061  36.4314079  44.6420784   8.2930937  36.5955162
  46.2873383   9.5103073  37.2839432  46.5233040   8.6602564  37.9241257
  47.1166763   9.7489328  36.6180916  46.0859642  10.7601728  38.1383705
  47.0444298  11.1580629  38.7484322  44.9138985  11.4264374  38.1619301
  44.1270752  10.9632435  37.7301025  44.6272888  12.5332613  39.0466156
  45.1458817  13.4563141  38.7875137  43.5653763  12.7627859  38.9585419
  44.8746147  12.3421755  40.5367393  45.1130905  11.2290096  40.9070816
  44.6557693  13.3905325  41.3461037  44.5031242  14.3268585  40.9995575
  44.9122467  13.2968397  42.7659874  45.8069839  12.6891899  42.9012794
  45.3519135  14.6557207  43.3504372  46.2074814  14.9552660  42.7451439
  44.5241394  15.3573389  43.2473869  45.8431702  14.6044207  44.8407784
  45.1215706  14.2663956  45.5845070  47.0308990  13.6653872  44.9812202
  46.6700821  12.6369171  44.9685516  47.7540169  13.8213558  44.1806717
  47.4804688  13.8260489  45.9611092  46.3827209  15.9250183  45.3404541
  45.6211281  16.6939430  45.4702454  46.9202461  15.7887630  46.2788582
  47.0084610  16.3428841  44.5518265  43.7659111  12.5511408  43.4415703
  42.6127586  13.0093298  43.4652290  44.0501404  11.4035969  44.0858650
  45.0227280  11.1319437  44.1053581  43.0581818  10.5695515  44.8187714
  42.1024895  10.5625477  44.2946510  43.3827553   9.0937977  44.7634201
  44.3845596   8.8492384  45.1165199  42.6289253   8.6309834  45.4003258
  43.2104683   8.3848095  43.3692589  42.1619415   8.1240158  43.2254715
  43.5144043   9.1045208  42.6091652  43.9602928   7.0881767  43.1760254
  45.0457306   7.1293068  43.0853271  43.8591270   6.4521804  44.0554428
  43.4314957   6.2735658  41.9991608  42.3488197   6.2655787  42.1250610
  43.7189255   6.8681221  41.1319885  43.9713364   4.8799515  41.8990555
  43.7769737   4.3054638  42.7066956  43.5932465   4.4142590  41.0864754
  44.9800491   4.8311138  41.8846512  42.7496376  11.0472660  46.1730881
  43.5197983  11.8021545  46.7374763  41.6741905  10.6577501  46.8435020
  41.1007957   9.9737597  46.3707733  41.2342262  10.9628830  48.2280426
  40.2224579  10.5575275  48.2174339  41.9614410  10.0529079  49.2927399
  43.0259247  10.2726908  49.3744392  41.5119514  10.3205652  50.2489929
  41.7206726   8.5444822  49.1302261  40.6424789   8.3863325  49.1060600
  42.0697708   8.1871834  48.1614304  42.3562126   7.6502137  50.1402702
  42.0972557   7.9667268  51.1506462  41.9662666   6.6380215  50.0329323
  43.9132042   7.5999475  50.0557823  44.1869736   7.4209433  49.0160179
  44.2968521   8.5425491  50.4461899  44.3221169   6.4959698  50.9490700
  43.8655014   6.5689960  51.8469925  44.1719627   5.5549746  50.6142807
  45.2921638   6.7278256  51.1082993  41.2996254  12.4618187  48.5352783
  41.8242569  12.9420414  49.5234795  40.8503685  13.2280846  47.5791740
  40.3834686  12.7326279  46.8330994  41.0959702  14.6568546  47.5464058
  41.8328972  14.9160023  48.3065948  41.7289429  15.1329613  46.2430687
  42.7262611  14.6936331  46.2641678  41.0836563  14.8588333  45.4084663
  42.0088348  16.9513435  46.1045837  42.4793167  17.1901741  47.3319778
  39.8142319  15.4775457  47.7804298  38.7460938  14.9443731  47.4384727
  39.9350433  16.6615734  48.4211044  40.8150826  17.0501118  48.7287865
  38.7973213  17.5442982  48.6648102  37.9540405  17.3076401  48.0159874
  38.3330650  17.4634914  50.1624451  39.1809006  17.8334694  50.7389755
  37.1285362  18.4137383  50.4455376  36.2726860  18.1333027  49.8315430
  36.6932182  18.2386837  51.4293823  37.4316139  19.4546642  50.3327637
  37.8807602  16.0512447  50.7282066  36.8162842  16.0448875  50.9626160
  38.2486496  15.3214960  50.0069389  38.5134735  15.6318207  52.1450424
  38.0789490  16.2831402  52.9033775  38.3104134  14.5807457  52.3502426
  39.5967064  15.6885395  52.2522507  39.2718887  18.9951782  48.3358955
  40.4329987  19.3394680  48.6159248  38.3678741  19.8110104  47.8649445
  37.4174538  19.4814320  47.7745209  38.7133064  21.2004910  47.4238663
  39.7284737  21.4115734  47.7599945  38.7202682  21.3323841  45.8607750
  37.6911240  21.2282104  45.5171013  39.0792046  22.3122063  45.5457954
  39.6173630  20.2263699  45.2179756  40.6444168  20.2813969  45.5788574
  39.3476753  19.1750164  45.3181000  39.6569023  20.5545368  43.7115288
  38.7392883  20.1409512  43.2931595  39.5837746  21.6209965  43.4984093
  40.8054848  20.0358810  42.9935608  41.4629097  20.7599926  42.7414627
  41.0895004  18.7898426  42.6305313  40.2720375  17.7903347  42.9847183
  39.4693260  17.9393139  43.5793343  40.7540703  16.9031067  42.9608116
  42.2011681  18.5390339  41.9577217  42.8915863  19.2214985  41.6790314
  42.4037857  17.5905228  41.6759949  37.7777672  22.2435207  48.0643463
  36.7208710  21.8796196  48.5107880  38.1296387  23.4926968  47.9345589
  39.0347061  23.5730228  47.4935341  37.4114876  24.6823902  48.3752937
  36.3646164  24.4353390  48.5517387  38.2376251  25.2311211  49.5946884
  39.2886429  25.2487087  49.3063240  37.7735901  26.6514797  50.0062790
  37.8331757  27.3763695  49.1944389  36.7242279  26.6457100  50.3010750
  38.3521500  26.9360657  50.8851318  38.0051155  24.2820263  50.8179550
  36.9355354  24.1059818  50.9324760  38.5119400  23.3269062  50.6802216
  38.4035912  24.6302357  51.7708817  37.4230843  25.7130299  47.2895660
  38.4055519  25.7900696  46.5270004  36.3178673  26.4341049  47.2737694
  35.5269508  26.0470238  47.7684631  35.9888268  27.5791149  46.3589821
  36.8987160  28.0869560  46.0391464  35.3333397  27.1469498  45.0305405
  35.9762077  26.5801582  44.3570633  34.5896645  26.4196301  45.3561935
  34.7344131  28.3483753  44.2309647  34.1335068  27.9486790  43.4141045
  34.0530624  28.9474945  44.8350487  35.8731575  29.5338364  43.5404968
  36.0568733  28.6254120  42.0041962  36.8519325  29.0642796  41.4013824
  36.1239319  27.5464306  42.1434937  35.1552773  28.8190498  41.4230499
  35.1862450  28.5970097  47.1572075  33.9523964  28.4430370  47.2922287
  35.7764854  29.5914307  47.7400208  36.7592278  29.7052345  47.5366287
  35.0880547  30.6617775  48.4135323  34.0879021  30.3076534  48.6633301
  35.8198547  30.9295444  49.7639847  36.0069771  29.9836559  50.2722969
  36.7337532  31.4926529  49.5747719  34.9647293  31.7613583  50.7853661
  34.6587219  32.7692909  50.5051308  34.0101929  31.2648716  50.9598885
  35.7686081  31.9913960  52.4383583  37.4757347  32.5563316  52.2047310
  38.0551720  32.6176414  53.1259193  37.9996338  31.9587631  51.4587097
  37.3945618  33.5419655  51.7464371  34.9975891  32.0513649  47.7161217
  36.0091515  32.4809570  47.2126884  33.8308182  32.6849213  47.7069130
  33.0115242  32.2882462  48.1445236  33.6547127  33.9492760  47.0655746
  34.5138092  34.0820236  46.4079819  32.4528275  33.8768463  46.1014442
  31.5199089  33.6610260  46.6222038  32.5347404  35.0884819  45.1537704
  31.6494656  35.0152397  44.5220871  32.6294937  36.0271339  45.6997147
  33.3805771  34.9961548  44.4724960  32.6671906  32.7781448  45.3097992
  32.9198723  32.0347977  45.8622360  33.5011177  35.0272751  48.1399689
  32.6539421  34.9623871  49.0503807  34.3915215  36.0100708  48.1992722
  35.1224976  36.0574226  47.5039101  34.3082771  37.1250114  49.2284660
  33.3907394  37.0301514  49.8091812  35.4301834  37.0207443  50.3557587
  35.1731796  37.7170181  51.1540413  35.5670586  35.6420822  50.8982468
  36.1651344  35.5928383  51.8081779  34.5519447  35.3209801  51.1317711
  36.0172234  35.0503082  50.1012154  36.8206673  37.4720764  49.9132156
  37.5464058  37.1233482  50.6479225  36.9704552  37.0088348  48.9379845
  36.7902794  38.5598793  49.8511124  34.3375397  38.4933929  48.5455589
  34.7966576  38.5676575  47.4328537  33.9135742  39.6103287  49.2228813
  33.4641113  39.3623352  50.0926971  34.3226776  41.0445366  48.8988380
  34.4230118  41.0625153  47.8136139  33.2273178  41.9855194  49.3395348
  33.4354286  42.9504585  48.8772774  32.2998886  41.4870911  49.0574875
  33.1270676  42.1783524  50.7963371  33.0352249  41.2260666  51.3186569
  34.0876007  42.5350418  51.1681519  32.0551643  43.2088623  51.2916451
  31.6070824  44.0387650  50.4913597  31.5893974  43.2613411  52.5111046
  32.1191978  42.6724625  53.1377144  31.0782814  44.0826797  52.8013802
  35.7513390  41.3963394  49.4126396  36.0386162  41.1294479  50.5435143
  36.5989914  41.9409065  48.5305290  36.3266144  42.0002670  47.5597610
  37.9223137  42.2635994  48.8773766  37.9724426  42.7891388  49.8310013
  38.8975105  41.1267891  49.0065002  38.5851936  40.4599648  49.8101807
  39.0832176  40.2026367  47.7900887  39.4013100  40.8083763  46.9415588
  39.8696136  39.4858284  48.0264435  38.1598969  39.6604233  47.5861626
  40.1787682  41.5724449  49.2945671  40.1309433  41.8350601  50.2167091
  38.4897881  43.2891769  47.9345779  38.3766136  43.2037849  46.6872597
  39.2437439  44.2893257  48.4547195  39.2491188  44.3864441  49.4600220
  40.0247993  45.2536125  47.6567421  39.6462440  45.2712402  46.6347389
  39.9510117  46.6942024  48.2626419  40.5446129  47.3698235  47.6467896
  38.9065208  46.9984207  48.3304100  40.4084320  46.7970963  49.7232132
  40.5556412  47.9443932  50.2294769  40.6258430  45.8005371  50.4191895
  41.4536743  44.7839813  47.4178734  42.2340012  45.4604568  46.7607956
  41.7761803  43.4646072  47.7311172  41.0236549  42.9475098  48.1628685
  42.9816246  42.6889420  47.2419930  43.9157715  43.2220230  47.4188995
  43.1991348  41.4095039  48.0156670  42.2989807  40.8051071  47.9037247
  44.3631706  40.5634880  47.5178833  44.2083054  40.3441544  46.4614639
  45.2808151  41.1500702  47.4737167  44.4795990  39.6629066  48.1207886
  43.4582825  41.7005997  49.5399246  44.2837410  42.4047203  49.6444855
  42.5367165  42.0651398  49.9937134  43.7667046  40.7488213  49.9724808
  42.8911324  42.2752075  45.7354660  41.8294907  41.7956657  45.2213135
  43.9263535  42.4634666  44.8896408  44.8883934  43.4933243  45.1734848
  45.6687851  43.0598221  45.7989159  44.3013420  44.2638741  45.6732063
  45.2994156  44.0479584  43.7821083  46.3147926  44.4441566  43.7938156
  44.5200386  44.7661362  43.5273666  45.1412392  42.8622093  42.8966560
  45.9695816  42.1647911  43.0214005  44.9967995  43.2708397  41.8965263
  43.9139137  42.1607018  43.4868164  42.9950714  42.5651207  43.0622253
  43.9064980  40.6335564  43.2228279  44.6474876  39.8998566  43.8722420
  43.2565002  40.1159897  42.1615067  42.7098541  40.7757111  41.6266670
  43.2040138  38.7452583  41.7336693  42.4008408  38.2263260  42.2568550
  42.7542839  38.8537178  40.2326202  41.8222160  39.3930511  40.0639114
  43.4834633  39.3584862  39.5988960  42.6265182  37.4420128  39.6303368
  43.6507759  37.0765953  39.5564041  41.9334030  36.8842773  40.2601166
  42.0469398  37.4156418  38.2125130  42.7142715  37.1525688  37.2193260
  40.7825737  37.6993599  38.0621681  40.3040314  37.8008080  38.9458008
  40.2654266  37.5512428  37.2073441  44.5358162  37.9397888  41.7794266
  44.4971046  36.7194328  42.0213928  45.6858292  38.5290985  41.4892693
  45.6410141  39.5250587  41.3275490  46.9481506  37.8426552  41.5685387
  46.8421516  36.7879982  41.3144531  47.8435898  38.4588356  40.4329872
  48.7204170  37.8140030  40.3741417  47.2978554  38.3636971  39.4942513
  48.2864838  39.8291664  40.7656097  47.4306412  40.7136307  40.9210472
  49.5072784  40.0222473  41.0426598  47.6947289  37.9162788  42.9009209
  48.5119858  37.0484352  43.1850128  47.1677208  38.8724098  43.7281265
  46.4379578  39.4671097  43.3622398  47.6272163  38.9896355  45.1075592
  48.6543503  38.6311455  45.0399094  47.7653389  40.4793282  45.4645805
  46.7730141  40.9302750  45.4583740  48.3084259  40.4971085  46.4094849
  48.5673294  41.2651405  44.4438324  49.6230125  41.0078850  44.3575058
  48.1163254  41.1209831  43.4620399  48.6890221  42.7225456  44.7820511
  48.6346397  43.2338333  45.9022255  49.0163803  43.4620667  43.7896843
  49.1513710  43.0798264  42.8646049  49.0761948  44.4652519  43.8903923
  46.7540665  38.1840858  46.0724373  46.9627533  38.2039299  47.2807579
  45.7955742  37.3676109  45.5945930  45.6801262  37.4418411  44.5939598
  44.8270607  36.5522499  46.3798103  44.4850197  37.1567039  47.2198944
  43.5795364  36.1224365  45.5802689  44.0157776  35.6964760  44.6767426
  42.6889572  35.0256195  46.2825012  41.6849022  34.9037476  45.8761330
  43.1547852  34.0404053  46.3038139  42.6005630  35.3464966  47.3204422
  42.7106056  37.3052864  45.2451820  43.3167343  38.1586647  44.9411240
  42.0200081  37.1563187  44.4151306  41.9183540  37.8507385  46.4481506
  41.0406227  37.2065811  46.5006294  42.6197548  37.9073067  47.2805824
  41.4933777  38.8100052  46.1526718  45.5271492  35.3401031  47.0608482
  46.2196007  34.5543900  46.3871002  45.3867302  35.2129478  48.3488541
  45.0183334  36.0012970  48.8615837  45.9355774  34.0542603  49.0761337
  46.9032898  33.8574295  48.6147270  46.2795715  34.3923836  50.5673943
  45.3359032  34.7203789  51.0032959  46.5601692  33.4654732  51.0675964
  47.3666687  35.4419098  50.6079369  48.1878662  34.9896317  50.0518875
  46.9772110  36.4189873  50.3220253  47.9056778  35.6182404  52.0561943
  47.2176247  35.9410896  52.8375130  48.3365326  34.6783066  52.4011459
  49.0070572  36.6039658  51.9961395  49.1446266  37.1623192  51.1658287
  49.8412170  36.7889366  53.0039330  49.8508644  36.3488083  54.2163658
  50.4497375  36.7352295  54.9319992  49.1953316  35.6609650  54.5587769
  50.7697220  37.6095963  52.7039909  51.5515518  37.7263870  53.3326416
  50.7882919  37.7472076  51.7035828  45.1535873  32.6921463  49.0311394
  44.4239769  32.2867851  49.9067650  45.3497467  31.9960499  47.9024124
  46.0120888  32.3880615  47.2484016  44.8579254  30.5907803  47.7197762
  43.8538628  30.4366360  48.1149979  44.9460754  30.2330227  46.2827530
  46.0117455  30.2426357  46.0539398  44.4566650  29.2629204  46.1962967
  44.2546463  31.2164192  45.3361282  42.9433250  31.5834560  45.4687538
  42.7046356  32.3965416  44.3657646  41.7931366  32.9174767  44.1123886
  43.8702202  32.6583328  43.7709885  43.9677391  33.4057961  43.0987625
  44.8811150  31.9404583  44.3313675  45.9221992  31.9195061  44.0448265
  45.7901878  29.6685600  48.5275459  46.9843254  29.9723396  48.7157135
  45.3134956  28.4744015  48.9339561  44.3251381  28.3384209  48.7766113
  45.9948616  27.6965923  50.0136757  47.0525398  27.9361401  50.1234169
  45.4778481  27.9703655  51.4225960  44.4829979  27.5318737  51.5006866
  46.4678535  27.2799835  52.3942451  46.2361717  27.5538864  53.4235191
  46.3900299  26.1949711  52.3249779  47.5007095  27.5959682  52.2477455
  45.5917473  29.4481220  51.9517097  44.9548073  30.0558548  51.3090019
  45.2358246  29.6433067  52.9633064  46.5865021  29.8932247  51.9306488
  45.8474998  26.1944618  49.6497002  44.7647209  25.6884937  49.2821922
  46.9162331  25.4495811  49.6014900  47.7779427  25.9253540  49.8277512
  47.0433235  24.0008354  49.3216705  46.0638847  23.5794144  49.0953789
  47.8656654  23.7794590  47.9972115  48.7631149  24.3965378  48.0407753
  48.1484032  22.7373371  47.8483887  47.1003227  24.2833271  46.7487946
  46.9311676  25.7258492  46.5734787  47.4400101  26.3747768  47.2708778
  45.9224739  26.1879044  45.7052345  45.7106781  27.2440491  45.6270981
  45.1768074  25.2412338  44.9713326  44.1627464  25.6952934  44.1920929
  44.0423927  25.1102581  43.4405289  45.3771210  23.8401623  45.1161346
  44.8434029  23.0878162  44.5544167  46.3988152  23.3581409  45.9528008
  46.5406990  22.2875023  45.9538155  47.7875252  23.3215961  50.4651222
  48.8994217  23.7008514  50.7706871  47.2607269  22.2429943  51.0328407
  46.3538437  21.9639606  50.6867142  47.8717804  21.4547482  52.1245346
  48.8774796  21.8490582  52.2700882  47.1521454  21.7426643  53.3987923
  46.1063385  21.4455452  53.3206520  47.5086899  21.1254005  54.2233925
  47.2477455  23.2893715  53.7861061  46.9126320  23.9852886  53.0170174
  46.5251884  23.5761948  55.1156769  46.7660828  24.4521408  55.7180023
  45.4587555  23.4764004  54.9135323  46.8058395  22.6834965  55.6746330
  48.7711334  23.6716442  54.0310402  49.3883934  23.6487484  53.1329498
  48.8074379  24.6839962  54.4334335  49.1501961  22.9229145  54.7266083
  47.9601593  19.9031010  51.8274269  47.4047585  19.3907108  50.8053246
  48.6701546  19.1805954  52.6661835  48.9173012  19.7134190  53.4878464
  49.1367836  17.7826939  52.6039772  49.8941345  17.7400818  53.3867302
  48.0020332  16.8388500  52.9143524  47.2617340  16.9123306  52.1176987
  48.3469162  15.8062754  52.8601074  47.2128296  17.1912613  54.1911774
  46.7572632  18.1794338  54.1273575  46.3558121  16.5177689  54.1860313
  48.0129852  17.0270023  55.5496101  48.3213806  15.9140501  56.0012398
  48.6710320  17.9943485  56.0126572  49.7418442  17.5164013  51.1883240
  50.5881233  18.3162727  50.7906647  49.3699112  16.4715080  50.4083176
  48.6754684  15.8954000  50.8621330  49.9975815  16.1281815  49.1146545
  51.0669327  16.2894039  49.2510262  49.7005463  14.6122608  48.6941795
  48.6138229  14.5898123  48.7756157  50.0205650  14.4698658  47.6619911
  50.4414864  13.6814270  49.6429367  51.5063667  13.6896667  49.4104118
  50.3029175  13.9454165  50.6913681  50.1146584  12.2504148  49.3842583
  50.7598877  11.5991697  49.9738846  49.0984535  11.9538488  49.6440277
  50.2378845  11.9693851  47.8387718  49.4578285  12.4760876  47.2705612
  51.1373978  12.3511620  47.3558311  50.1393127  10.4795189  47.6246910
  49.3226128  10.1135073  48.0928116  49.8672752  10.2145729  46.6887932
  50.9865570  10.0097675  47.9103699  49.5632324  17.0854187  48.0297127
  50.2325325  17.1782455  47.0019608  48.5453377  17.8263302  48.2102509
  47.9888649  17.6194439  49.0273399  47.9947929  18.7421589  47.1736641
  47.8830109  18.1540241  46.2627831  46.6452370  19.1066990  47.6342468
  46.0301170  19.4020939  46.7842674  46.1694984  18.2348900  48.0833702
  46.7946396  19.9013290  48.3652382  48.7976646  19.9865494  46.8258553
  48.4674797  20.6562061  45.9355316  49.8827438  20.2650890  47.5834961
  50.0284882  19.6941700  48.4038086  50.8990479  21.2516766  47.2229118
  50.4253387  22.2327824  47.2564812  52.1024857  21.3708649  48.2206345
  52.2688828  20.3518314  48.5699081  53.4252319  21.8730564  47.7078857
  54.1370201  21.6141777  48.4917450  53.7886696  21.3971729  46.7970924
  53.3110161  22.9502773  47.5868568  51.6449738  22.0984173  49.4784737
  52.2749062  21.9508438  50.3556900  51.5282707  23.1787148  49.3922348
  50.7077522  21.7746315  49.9311256  51.3211555  20.9974651  45.7604523
  51.6280365  21.9886093  45.1333580  51.3743629  19.7422371  45.3054886
  51.1986732  19.0788193  46.0465126  51.6086731  19.3429756  43.8774376
  52.5620079  19.7754345  43.5737381  51.6197853  17.8133430  43.7083168
  52.1697235  17.4434586  44.5736847  50.2305603  17.2450523  43.4694557
  49.5615578  17.6767883  44.2138596  49.7939072  17.3439789  42.4756508
  50.1386604  16.1955204  43.7489929  52.3895760  17.3795891  42.5110588
  52.0324974  17.8814983  41.6117897  53.3553925  17.8051395  42.7834778
  52.2905388  16.3149033  42.2995491  50.7046051  19.9870319  42.8283234
  51.0760956  20.1575413  41.6797295  49.5217323  20.5134830  43.2843666
  49.3451157  20.3930244  44.2714806  48.5732613  21.1489677  42.3483849
  48.4604111  20.4945889  41.4840050  47.1601067  21.0453911  42.9515686
  47.0707626  21.5085278  43.9342308  46.5125351  21.7125797  42.3827057
  46.5638847  19.6228409  43.1977730  47.2286415  19.1314373  43.9082108
  45.1043587  19.7234726  43.7219429  45.0436440  20.1853638  44.7073708
  44.6117134  20.3444328  42.9737396  44.6185532  18.7658100  43.9089622
  46.4526215  18.7286148  41.9311676  46.1497002  17.7241154  42.2266769
  45.7788200  19.1842690  41.2055855  47.4626656  18.6473446  41.5295410
  48.9851227  22.5800877  42.0119324  48.4935226  23.1934776  41.0761261
  49.8451881  23.2166843  42.8604469  50.1866493  22.5762691  43.5628548
  50.4002838  24.5556316  42.8329849  50.5508995  24.8954296  41.8083115
  49.4205055  25.6426430  43.4162407  49.2842293  25.3706646  44.4629326
  49.8833199  26.6292439  43.3933678  47.9923859  25.7338085  42.7639999
  47.4214287  24.8243465  42.9510422  47.4510765  26.4986935  43.3208122
  47.9913063  26.3390560  41.3034515  48.5898285  25.6712971  40.6837959
  47.0193062  26.6344566  40.9084167  48.8129387  27.5027561  41.3164024
  49.7704201  27.2777462  41.0868301  48.6279755  28.8479443  41.4339333
  47.4313850  29.3284740  41.6179276  47.1449089  30.2877464  41.4844017
  46.7140427  28.6818333  41.9135208  49.5497627  29.7435417  41.3426743
  49.3482895  30.7296524  41.4268913  50.4739799  29.4544144  41.0557404
  51.8214111  24.6603260  43.3637428  51.9967766  25.2612133  44.4472809
  52.8239365  24.0070839  42.7285385  52.7553215  23.0146828  41.6072884
  52.5533600  23.5105648  40.6578598  51.9361458  22.3312893  41.8309555
  54.0662384  22.2650719  41.5469437  54.4079361  21.9875145  40.5497971
  53.8903427  21.3660183  42.1375923  55.0490379  23.1322727  42.3519783
  55.6955299  23.5978661  41.6080856  55.5840111  22.5865631  43.1292191
  54.1923828  24.1643944  43.1402206  54.1949577  23.8880939  44.1946182
  54.7674789  25.5903473  43.0208855  55.5842819  26.0068760  43.8052139
  54.2455406  26.3044167  41.9879189  53.4632301  25.9443111  41.4602623
  54.4358978  27.7063046  41.6627083  55.5053596  27.8086319  41.4786453
  53.7924232  27.9441032  40.3632126  54.0088272  28.9099731  39.9067421
  54.2325134  27.2903214  39.6102219  52.2415924  27.9285698  40.3927917
  51.5873871  26.9676323  40.8531570  51.5987434  28.8753395  40.0471191
  54.0559044  28.5155773  42.8580933  54.7427025  29.4527321  43.1302261
  52.9335823  28.2550907  43.4761086  52.3773575  27.5221405  43.0595741
  52.4600029  29.0507793  44.6091156  52.7603073  30.0785999  44.4053764
  50.8866196  28.9840927  44.6192360  50.5980301  29.2723083  43.6084213
  50.5606117  27.9461079  44.6856117  50.1708107  29.8148766  45.7056694
  50.5273552  29.5107994  46.6898041  50.4318275  31.2961826  45.6119728
  49.8501740  31.7759838  44.8248444  50.1696167  31.7530251  46.5662498
  51.4871140  31.5243969  45.4623489  48.7153931  29.3911972  45.4398994
  48.1825829  29.5999107  46.3676109  48.2791862  29.9502983  44.6121140
  48.6157722  28.3062553  45.4070740  53.0193901  28.6933041  46.0048637
  52.9277458  29.5027237  46.9920311  53.5613785  27.4847946  46.1419487
  53.8614044  26.9960403  45.3105621  54.0673904  27.0299320  47.4109802
  53.3185120  27.1554565  48.1929817  54.4998665  25.5572624  47.3271980
  53.8446312  24.9461384  46.7064781  55.4814301  25.5259151  46.8542671
  54.6180191  24.9504318  48.6114349  55.3399239  24.3455925  48.4253616
  55.3503418  27.8401527  47.8751526  56.3339767  27.8552933  47.1458740
  55.3367653  28.5086060  49.0631752  54.4736938  28.3393841  49.5597343
  56.4338036  29.2405682  49.6871567  56.0410614  29.8182793  50.5238800
  57.3233833  28.2434673  50.3691940  57.7938385  27.6072254  49.6195488
  58.0235748  28.7964401  50.9953346  56.6944885  27.2264442  51.3740311
  55.9485931  26.5940495  50.8925514  57.6985092  26.3921928  52.0715866
  58.0951424  26.9034348  52.9487495  57.1640816  25.5030689  52.4061699
  58.4804192  26.1371593  51.3562737  55.9844742  27.9078293  52.5510712
  56.6184578  28.5482903  53.1642418  55.1150894  28.4590473  52.1926918
  55.5676727  27.0654850  53.1031876  57.1211510  30.2791576  48.7000809
  58.2981224  30.5133228  48.7854233  56.3211288  30.8429317  47.8163834
  55.3216362  30.7452126  47.9239197  56.8082085  31.6555328  46.6330528
  57.5991478  31.1248283  46.1030846  55.6659927  31.9873886  45.6449089
  55.4009476  30.9884586  45.2985115  54.5823936  32.8688164  46.2016525
  55.1086540  33.6877136  46.6921120  53.9825897  33.3573570  45.4337540
  53.8667908  32.4571953  46.9133987  56.2700996  32.7863426  44.6194458
  55.8781700  32.6048393  43.7620926  57.5708771  32.9556885  47.0559616
  57.3835487  33.3498268  48.2171478  58.4353828  33.5914764  46.2667236
  58.6250267  33.1197166  45.3940392  59.0683937  34.8565636  46.6550179
  59.0872765  34.9109306  47.7434959  60.5276985  34.8163109  46.2021217
  60.5765953  34.8546333  45.1138916  61.0091019  35.7030716  46.6144485
  61.2911301  33.5691643  46.7216454  60.8415947  33.1873550  47.6382942
  61.2102203  32.7280464  46.0331154  62.7235451  33.8114471  47.0814552
  62.8418541  34.6610565  47.7539635  63.0184708  32.8824692  47.5694351
  63.5468445  34.1163139  45.8234978  63.5198898  33.2738953  45.1323357
  63.0914574  34.9402885  45.2741470  64.9375687  34.4344482  46.1709137
  65.2564621  33.7580757  46.8498268  65.4812851  34.4090424  45.3201370
  64.8956604  35.3630638  46.5659065  58.3533287  36.0958672  46.1968498
  58.9691505  37.1146317  45.9452934  57.0934258  35.9283066  45.7987671
  56.6890602  35.0057640  45.7245560  56.1770821  37.0401649  45.5065765
  56.6761017  37.5101624  44.6591148  54.7811699  36.5361443  44.9896240
  54.9414482  35.7651978  44.2359352  54.3083611  35.9861183  45.8032722
  53.7171021  37.5355949  44.4823990  53.6926231  38.6934853  44.8467026
  52.8419228  37.1023445  43.6113930  52.8635292  36.1441002  43.2929459
  52.3037643  37.8269768  43.1581917  56.0449791  38.0817337  46.5926018
  55.7919083  37.7150650  47.7489471  56.1191139  39.3782768  46.2625389
  56.3523636  39.6107674  45.3077393  56.0513191  40.4226112  47.2558250
  56.3785896  40.0215759  48.2150803  56.9273033  41.6366959  46.9041786
  57.0087166  42.3879890  47.6896896  58.3397141  41.3294067  46.5645599
  58.9092636  40.7167244  47.2633705  58.4132614  40.9753456  45.5362930
  58.8257713  42.3042755  46.5262070  56.4825058  42.2559891  45.6335068
  55.8053246  42.8977432  45.8597374  54.6695786  40.9170227  47.6378288
  54.3890648  41.3310738  48.7482376  53.6843605  40.8639793  46.6881371
  53.8927307  40.4466362  45.7923088  52.3877068  41.5437775  46.8493423
  52.5115852  42.3559837  47.5656357  51.9902153  42.0973969  45.4709740
  51.8318787  41.3068886  44.7374039  51.0271072  42.5949287  45.5849304
  53.1044426  43.0627518  44.8878555  53.9507065  42.4237480  44.6356277
  52.6920280  43.4769440  43.9678230  53.5646019  44.1771469  45.8392525
  54.7604904  44.2408676  46.1158447  52.7215652  45.0329361  46.1674118
  51.3523064  40.5752068  47.5047798  50.5093155  40.9735641  48.2552147
  51.6001663  39.2400017  47.3022690  52.4761810  38.9668808  46.8802414
  50.7780228  38.0946693  47.8083267  49.7439194  38.3220978  47.5494690
  51.3478889  36.7721825  47.0721397  51.1884727  36.9119263  46.0029564
  52.4201279  36.7307701  47.2636795  50.6417961  35.4954491  47.5707703
  50.6457291  35.4083672  48.6572800  49.1733170  35.3539238  47.1056938
  48.5993729  36.2086067  47.4637375  49.1348419  35.3006859  46.0176735
  48.7585030  34.4135895  47.4687386  51.4043541  34.2155075  47.1655846
  51.0070305  33.3415298  47.6817284  51.3000107  34.1770897  46.0812721
  52.4634590  34.3156891  47.4029846  50.8807755  37.9632568  49.3448410
  49.9014969  38.3345757  49.9833984  51.8846397  37.4758835  49.8823357
  25.6878414  48.0726509  46.9816284  26.0612564  48.6425362  46.2360420
  24.9008923  48.4965630  47.4518547  26.4057178  47.8634911  47.6606064
  25.3178959  46.7792778  46.3698730  24.4539337  46.4641457  46.9549904
  24.9075489  47.0392838  44.9046555  24.2525768  47.9087486  44.8486099
  25.7563591  47.2232018  44.2460175  24.0936375  45.9113388  44.2496567
  23.9449978  46.0540009  43.1793060  24.6718884  44.9927444  44.3492126
  22.5144558  45.6114807  45.0725632  21.7166634  46.7754478  44.0851212
  21.7921314  46.6307564  43.0074081  20.6800499  46.5988579  44.3720818
  22.0383701  47.7989082  44.2778282  26.3604507  45.6679230  46.6007729
  27.1664314  45.4336548  45.7057381  26.3870831  45.0669212  47.7467270
  25.6676102  45.3043900  48.4146118  26.9981060  43.7782669  47.9067650
  28.0840797  43.7975883  47.8151245  26.8012123  43.4336052  49.3679466
  27.2543926  44.2783852  49.8866730  25.7835617  43.4848785  49.7550583
  27.4403973  42.1866722  49.9345055  27.4423313  42.1889725  51.0245018
  26.7797623  41.3324776  49.7861328  29.0930672  41.6909866  49.4922066
  29.6944542  40.4256783  50.7092628  29.8305016  40.8870239  51.6874046
  28.8350086  39.7615623  50.8009109  30.5557899  39.8751526  50.3309479
  26.3174229  42.6679840  47.0165482  25.4383888  42.9103203  46.1729355
  26.8863811  41.4696617  47.1413765  27.6833611  41.3361549  47.7472610
  26.3994045  40.2549629  46.5022850  25.3736935  40.4847336  46.2137947
  27.2160873  39.9991798  45.2803879  28.2061977  39.7644844  45.6711578
  26.7093220  38.7815781  44.4872589  26.2662487  37.9500923  45.0353622
  25.8939152  39.1078186  43.8416786  27.5341816  38.4702301  43.8463478
  27.3516216  41.2259407  44.3174553  26.3492126  41.5263023  44.0123978
  27.8942814  41.9717789  44.8982697  28.0021591  41.0218124  42.8783646
  28.0541191  41.9949646  42.3901176  29.0200481  40.6330185  42.9073524
  27.3502369  40.3444061  42.3268051  26.2959194  38.9906960  47.4309425
  27.0660439  38.8273277  48.2958641  25.1059074  38.3060417  47.3860207
  24.4310799  38.6580696  46.7221069  24.7013588  37.1899147  48.2869987
  25.5662746  36.9367790  48.9001427  23.6592331  37.5719337  49.3289986
  22.7902966  37.8982315  48.7575378  23.4208183  36.6281052  49.8193512
  23.9978600  38.6411858  50.3713036  24.4050083  39.4729500  49.7964096
  23.1325989  38.8880653  50.9865074  25.1760731  38.2828064  51.2025223
  25.0301914  37.4152908  51.8461380  26.0501041  38.0129547  50.6097717
  25.6424351  39.3112488  52.0960693  25.2473698  40.2366943  52.0090294
  26.7711163  39.2579079  52.7608032  27.5145874  38.2498894  52.9601173
  28.4069576  38.3919106  53.4113426  27.1139107  37.3416290  52.7740097
  27.2491531  40.3824692  53.1987762  26.5939846  41.1243439  53.3999786
  28.0994606  40.3374023  53.7419548  24.2976627  35.9442215  47.5220566
  23.5618896  36.0158577  46.5072861  24.6788616  34.7867813  48.0627327
  25.2457561  34.9334373  48.8856659  24.1881752  33.5083351  47.6093254
  23.8576546  33.5345764  46.5709763  24.8816757  32.6678810  47.6375008
  22.8555183  33.1937675  48.3461075  22.7119408  33.6557655  49.4961243
  21.9667530  32.4510460  47.7448006  22.1746807  32.1775818  46.7950172
  20.5549774  32.0735970  48.2312088  20.5364914  32.1844864  49.3154030
  19.4708595  32.9909973  47.6637001  19.2466030  32.6931381  46.6394463
  18.1258907  32.7719994  48.3593521  17.3455486  33.3398895  47.8527374
  17.8263683  31.7239647  48.3560219  18.1594963  33.1569252  49.3785706
  19.7645779  34.5278397  47.5661011  19.8413353  34.9709396  48.5590134
  20.7012596  34.6229706  47.0168495  18.8081627  35.4170609  46.7526741
  19.2734547  36.4006119  46.6876945  18.7450237  35.0084381  45.7441406
  17.8186970  35.4384537  47.2094002  20.1222363  30.6438637  47.7691803
  20.3191547  30.2727966  46.6079979  19.6037521  29.7564049  48.6554375
  19.3746243  30.1761322  49.5450592  19.4975929  28.2709827  48.5323524
  19.6999474  28.0558453  47.4831314  20.4931774  27.4745007  49.4111443
  20.2209148  27.4930305  50.4664345  20.4933147  26.4309425  49.0963821
  21.9329510  27.9765606  49.3286095  22.2115231  27.9449959  48.2752800
  22.0349464  28.9670448  49.7720490  23.0458488  27.1536751  49.9277649
  23.9788399  27.4121609  49.4269524  23.1813545  27.3269329  50.9953423
  22.9495468  25.7622490  49.6654778  23.3731594  25.4509678  48.8030663
  22.4626961  24.8039398  50.4659500  21.9408245  25.1175175  51.6445312
  21.7068844  26.0746403  51.8665543  21.6132946  24.3658009  52.2342300
  22.5134869  23.5358944  50.1631927  22.9991035  23.1822186  49.3512878
  22.2500191  22.8428116  50.8489914  18.0771790  27.7196236  48.6931458
  17.1946678  28.2580528  49.3373718  17.8552628  26.5473175  48.0289078
  18.6461430  26.2124691  47.4974136  16.8852386  25.5778179  48.5448227
  17.1194611  25.5287590  49.6082306  15.8595915  25.9402676  48.4757118
  17.0266628  24.1525402  47.9813042  17.9166126  23.8278122  47.1585922
  16.0304832  23.3466110  48.4874115  15.4396086  23.6600399  49.2442017
  15.9805422  21.9073009  48.2566528  16.5486755  21.6551170  47.3612595
  16.7738228  21.2297173  49.3773193  16.2953053  21.4257469  50.3368492
  16.8657360  20.1656647  49.1595078  17.8292351  21.5017395  49.3628387
  14.5104799  21.4317894  48.1820221  13.5762177  22.0377007  48.7441063
  14.3850260  20.3019142  47.4332924  15.1722260  19.8542194  46.9860954
  13.1635523  19.5546246  47.1974335  12.5600042  19.6281204  48.1021042
  12.2972879  20.0407257  46.0209999  12.2943125  21.1248207  46.1342735
  12.7792549  19.6460114  44.6382141  13.8580713  19.7837238  44.5654793
  12.4867887  18.6338425  44.3587914  12.3410368  20.3332462  43.9144859
  10.9951305  19.3994484  46.1127968  10.3308001  20.0035248  45.7731552
  13.5443707  18.0353451  46.8488197  14.6283388  17.8081570  46.3557014
  12.6755753  17.0089569  47.0126648  11.7559156  17.2426281  47.3586769
  12.9532375  15.6118908  46.6600304  13.9598885  15.5210199  46.2519875
  13.0668430  14.7486210  47.9837036  13.2866840  13.7662420  47.5657310
  14.1822109  15.1134262  48.9094391  14.0281935  16.0937786  49.3603020
  14.1312971  14.3578529  49.6934166  15.1411943  14.9823847  48.4081650
  11.8142385  14.5955086  48.4845657  11.5796518  13.7475996  48.1003532
  11.8769379  15.0254765  45.7158241  10.8071661  15.5382013  45.5760193
  12.1461086  13.7806292  45.1693077  13.1362257  13.5812492  45.1653748
  11.3089905  13.1552954  44.0835228  10.3193369  13.5988455  44.1928329
  11.7829752  13.5375671  42.6733971  11.0651674  12.9511919  42.0997925
  11.5252132  15.0698090  42.3388481  12.3303776  15.6623154  42.7732964
  11.6338930  15.2251968  41.2654686  10.6702881  15.4344549  42.9082680
  13.2232094  13.1942549  42.4885483  13.3449564  12.1464376  42.7630653
  13.4205999  13.3949337  41.4355202  13.8169794  13.7632685  43.2039223
  11.1225996  11.7257309  44.3279953  12.0108490  11.0093470  44.8363838
   9.9117956  11.2277708  43.9671745   9.2579794  11.9129448  43.6162300
   9.5519514   9.8247442  44.2338257  10.0618114   9.4523506  45.1223450
   7.9968882   9.8321743  44.4162598   7.7096047  10.5543137  45.1805153
   7.5889611  10.1287804  43.4499664   7.4243231   8.4565125  44.7035904
   6.3381581   8.5463524  44.7201805   7.8002968   7.7184706  43.9950447
   7.8423667   7.9896331  46.1045494   8.6256361   7.0374331  46.2494202
   7.3905606   8.6287870  47.0991058  10.0926762   8.9072723  43.1445465
  10.4829082   7.7479720  43.3938637  10.1379681   9.4583130  41.9529800
   9.7035704  10.3662529  41.8690414  10.5819798   8.7353001  40.7409134
  11.2794485   7.9285474  40.9662743   9.3487597   8.1315041  39.9532776
   9.6515751   7.8359518  38.9487610   8.9446220   7.2684431  40.4823303
   8.2258272   9.1538973  39.8255424   7.8136225   9.5047302  40.7716408
   8.6490526  10.0174208  39.3124008   6.9988160   8.6600647  39.0498047
   7.4604158   8.4340763  38.0885735   6.4387956   7.7830615  39.3743706
   5.9914160   9.7743216  38.9166107   5.7897873  10.3829718  39.6969910
   5.3050241  10.0910320  37.8424225   5.4880757   9.4440699  36.7188606
   6.1856132   8.7146235  36.7569466   5.0814629   9.7513170  35.8468704
   4.4204707  10.9971447  37.9255981   4.1695476  11.4862423  38.7729034
   3.9189587  11.2113972  37.0754929  11.5061541   9.6642990  39.8966026
  11.1643238  10.8023672  39.5872536  12.6634722   9.2086954  39.4398041
  13.0028677   8.3520012  39.8533058  13.3782797   9.8775272  38.3501778
  13.6807175  10.8856640  38.6335373  14.6657991   8.9698305  38.2196388
  15.1276541   8.9053822  39.2048492  14.4354792   7.9436822  37.9331551
  15.6432981   9.4242582  37.2157135  15.6618166  10.6488590  36.9019890
  16.5860920   8.7367382  36.7048416  12.6886444   9.9712324  36.9896622
  12.7166176   9.0404940  36.2376671  11.8915396  11.0373449  36.7378998
  12.0252352  11.8290329  37.3506470  11.3604317  11.2347651  35.3842735
  11.9820194  10.8368158  34.5821724  10.0624857  10.4640493  35.2574005
  10.4243622   9.4399824  35.1655693   9.0495701  10.6385403  36.3693886
   8.8114300  11.7020121  36.3897667   8.1409302  10.0612621  36.1984406
   9.5082655  10.2946568  37.2964478   9.4387407  10.7306080  34.0818214
  10.0058241  10.4225855  33.3710899  11.1373177  12.7403545  35.0756226
  10.9071627  13.5255184  35.9804840  11.3846617  13.1710358  33.8026543
  11.6107550  12.4280996  33.1568756  11.0782337  14.4894381  33.2208328
  11.7058125  15.2288980  33.7182808  11.3416548  14.5981808  31.7186661
  11.2150841  15.6080322  31.3284340  12.3972168  14.4138985  31.5188465
  10.4064407  13.6207275  30.8862801   9.4250641  13.6465340  31.3599167
  10.1866207  13.9817333  29.8815613  10.8384123  12.1574793  30.7472458
  10.2140265  11.3695250  29.9807262  11.7151241  11.7204285  31.4738102
   9.6305542  14.8860016  33.5858536   9.3674374  16.0907097  33.6139259
   8.7179480  13.9990816  33.9241562   9.0183926  13.0471373  33.7704201
   7.4509587  14.4172659  34.4854927   7.0123391  15.1332798  33.7904816
   6.4354639  13.2245731  34.5086250   6.4976368  12.5833673  33.6293716
   6.6417484  12.6134129  35.3872795   4.9641595  13.7794533  34.6923447
   4.8950315  14.8151426  35.0250130   4.6616411  13.9153986  33.6540260
   3.9435129  12.7781868  35.3376884   3.0280950  13.2535572  36.0156593
   4.1104527  11.5103407  35.1638870   7.5533676  15.1029358  35.7815323
   6.9018731  16.0834389  36.1019821   8.4762373  14.7162113  36.6328316
   9.1770658  14.0320454  36.3861389   8.4811125  15.3041830  37.9510956
   7.5474920  15.7783260  38.2538185   8.9320126  14.1143026  38.8695030
   9.6511364  13.5769529  38.2512665   9.4364967  14.4659357  39.7694778
   7.9121804  13.1223822  39.4524803   7.5332670  12.5678968  38.5939484
   8.5056477  12.3907166  40.0007172   6.7039123  13.6908340  40.2599220
   6.5694585  14.9455261  40.5263405   5.8161631  12.8950586  40.6783524
   9.5298376  16.4197922  37.8820724   9.1822557  17.5451794  38.3107071
  10.7512903  16.1080952  37.5043869  10.8588562  15.1584539  37.1777191
  12.0171089  16.7476635  38.0473022  12.0039253  16.7028408  39.1362991
  13.3093939  15.9992390  37.6286736  13.3444519  15.7697697  36.5636787
  14.5735340  16.9008808  37.9051018  14.5115995  17.8767509  37.4234962
  14.7374430  17.1410332  38.9556046  15.3901339  16.4302177  37.3576164
  13.3920250  14.6846542  38.4337692  13.4074507  14.8641748  39.5087700
  12.5529242  14.0352716  38.1841469  14.6722288  13.8403053  38.0280342
  14.5479660  13.6953669  36.9548836  15.6108236  14.3635321  38.2107201
  14.6272974  12.8448763  38.4698524  11.9916000  18.2220688  37.5799599
  12.3983603  18.9640656  38.4783821  11.4078064  18.6002789  36.4063835
  10.8750248  17.9388714  35.8597717  11.4074011  19.9223995  35.8729973
  12.3999615  20.2433739  36.1890678  11.2382641  19.9339256  34.3532753
  10.3052721  19.5173950  33.9736328  11.3669157  20.9603271  34.0096855
  12.2831888  19.1471100  33.5368996  11.9703360  18.1030445  33.5494804
  12.2641649  19.6662178  32.0853271  12.7279987  20.6518192  32.1247597
  12.6612215  18.9807606  31.3365993  11.2577477  19.8613949  31.7150192
  13.7134352  19.2311802  34.0412292  14.2242308  20.1916771  33.9731750
  13.8399315  18.8848343  35.0669670  14.3045464  18.5356827  33.4454346
  10.4500589  20.8288479  36.6835365  10.8697901  21.8734016  37.1218719
   9.1687889  20.5043755  36.7192421   8.8849287  19.6681519  36.2290840
   8.1279888  21.0112953  37.5786057   7.9806933  22.0721951  37.3763771
   6.9118690  20.1744957  37.4774818   7.2081852  19.1321163  37.5947075
   6.1801610  20.2882042  38.2773399   6.1688418  20.3235188  36.2072258
   6.8427219  20.0063343  35.4113731   5.2688990  19.7114525  36.2670593
   5.5066404  21.6726208  35.9381065   5.3962007  22.5739403  36.8027000
   4.8885531  21.8916492  34.7763290   4.9343653  21.1960773  34.0454521
   4.3417034  22.7367287  34.6932869   8.5324049  21.0561028  39.1144676
   8.3704424  22.0569324  39.7596779   9.2201290  19.9967785  39.6294899
   9.1634398  19.1016216  39.1651840   9.8240013  20.1229191  40.9854393
   8.9979334  20.3886929  41.6450424  10.2992411  18.7354946  41.4015236
  11.0374327  18.3466206  40.7001305  10.8174620  18.8286533  42.3559151
   9.2368097  17.7351933  41.5603333   8.4462070  17.8333855  40.8164215
   9.6373072  16.7291260  41.4356880   8.6312847  17.8399868  42.9455223
   9.4336004  17.6299152  43.6528130   8.2323437  18.8278942  43.1757126
   7.4693050  16.9370079  43.2408829   7.7568607  15.8861704  43.2069092
   7.1537070  17.2281609  44.2427444   6.3386202  17.0829868  42.3453293
   6.3669858  16.3673954  41.6331329   5.5019798  16.8488693  42.8604240
   6.2887988  17.9656448  41.8569298  10.9085941  21.1258621  41.1018639
  10.8820810  21.9516907  42.0206833  11.7980690  21.2949963  40.0547066
  11.8118639  20.5159035  39.4121132  12.7432623  22.4592056  40.0783958
  13.2545910  22.4311771  41.0406113  13.8020964  22.1189213  38.9759827
  13.1960211  22.0683918  38.0714264  14.9352074  23.1612091  38.8082924
  15.3119469  23.3757896  39.8083572  15.7734070  22.8135338  38.2044373
  14.5357761  24.0732689  38.3647766  14.4222488  20.8170586  39.3107071
  13.7322235  20.1669044  39.1598282  12.0182781  23.7772884  39.9857368
  12.3512669  24.7164726  40.7249603  11.0392933  23.8691196  39.1578484
  10.7691689  23.0211449  38.6802788  10.3763657  25.1348686  38.8508186
  11.1464968  25.8403625  38.5389290   9.4090977  24.9852047  37.6770287
   9.7810783  24.3694267  36.8581581   8.5978651  24.3521042  38.0364532
   9.0237789  26.2984657  37.0758095   8.4775429  26.8494434  37.8414154
   9.8901806  26.9362640  36.9007072   8.1372252  26.2353592  35.8654137
   8.7155066  25.8937187  35.0069427   7.4250817  25.4145775  35.9506760
   7.5421739  27.5571880  35.4248772   8.2790241  28.3417797  35.5968399
   7.2818127  27.5471630  34.3664780   6.3397851  27.8486252  36.2433815
   6.6545043  28.1044273  37.1683769   5.8857098  28.6405411  35.8111954
   5.7880049  27.0028629  36.2614326   9.6096840  25.5646725  40.0898590
   9.8614426  26.7407436  40.5147285   8.8701458  24.6629944  40.7963905
   8.6217337  23.9003391  40.1825905   8.2597313  24.9448776  42.0765953
   7.5286407  25.7397709  41.9291191   7.4322228  23.7286930  42.5737839
   8.0524426  22.8596020  42.7931252   7.0704989  24.2057247  43.4846611
   6.1049371  23.3764744  41.7555313   6.3080721  23.3649845  40.6846886
   5.9314985  22.3274231  41.9953461   4.9223690  24.2928867  42.0546227
   5.0278773  25.1616592  42.8455315   3.7883642  24.1436424  41.4656334
   3.6727405  23.4855900  40.7082024   3.0813136  24.8531761  41.5950203
   9.1710625  25.4780006  43.1591759   8.8472672  26.3548813  43.9728699
  10.3700666  24.8929977  43.2144775  10.6297350  24.3231125  42.4220734
  11.3444138  25.1891003  44.2633171  10.8879108  25.2416840  45.2517204
  12.4746361  24.1481647  44.3361893  12.0902519  23.2563915  44.8312454
  12.7270584  23.8897419  43.3077927  13.7113085  24.5928612  45.0909042
  13.9917383  25.5919266  44.7572479  13.4511194  24.7279682  46.5853195
  12.9841547  23.7800636  46.8527489  14.3539610  24.9446964  47.1562881
  12.7134380  25.5121441  46.7555847  14.8327055  23.6210556  44.7492981
  14.3260803  22.6599407  44.8369751  15.2901564  23.7379360  43.7668648
  15.6059637  23.8029499  45.4956818  11.8572083  26.6256371  43.8947411
  11.8945312  27.4629459  44.7592812  12.0941343  26.9321518  42.5864487
  11.8168316  26.2265720  41.9190979  12.5755348  28.2347527  42.1984329
  13.3990345  28.4356422  42.8837013  13.1860428  28.2889004  40.7517738
  14.0560083  27.6356373  40.8189316  12.3380947  27.9246254  40.1717873
  13.5830078  29.7405930  40.3802414  12.8923874  30.5420246  40.6426315
  14.9047451  30.1584435  40.9742241  14.8063335  30.4768333  42.0120354
  15.6566877  29.3693657  40.9804916  15.3724966  30.9978943  40.4597969
  13.8165054  29.8489666  38.8636818  13.0530939  29.3735504  38.2478218
  13.9454613  30.8598576  38.4769363  14.7542372  29.3217793  38.6880608
  11.4919491  29.2886181  42.3873444  11.7159777  30.2544098  43.1147919
  10.2757931  28.9639053  42.0539818  10.1207199  28.1459904  41.4820824
   9.1053591  29.8224621  42.3848763   9.2203484  30.8077126  41.9330368
   7.8307796  29.1894741  41.8638191   7.9065609  28.1025696  41.8322487
   7.0095706  29.4895401  42.5147209   7.5779233  29.6424675  40.4037476
   7.5910096  30.7272758  40.2982903   8.3514776  29.2550755  39.7406921
   6.2226191  29.2236290  39.8679619   5.2612839  29.0905342  40.6722832
   6.1363955  29.0584145  38.6619682   8.9748392  30.1704273  43.8218880
   8.6988983  31.3067913  44.2451553   9.1826162  29.2329140  44.7284775
   9.4539585  28.3428726  44.3356628   9.1310892  29.3940544  46.2048378
   8.2814760  30.0299644  46.4536057   8.9242487  27.9539738  46.8255692
   9.3096056  27.1342220  46.2192650   9.4029512  28.0071659  47.8033829
   7.3616967  27.6934319  46.9332047   6.9558330  28.4539909  47.6002350
   6.8522654  27.7606735  45.9719238   7.0143056  26.3265591  47.5922050
   7.4705420  25.4464760  47.1389885   7.4529066  26.4172153  48.5859375
   5.4693942  26.2097473  47.4764824   4.9267898  27.0869598  47.8288727
   5.2569461  26.1488247  46.4091187   5.1139493  24.9692421  48.1928139
   5.6161418  24.1566620  47.8647499   5.2621732  25.0634518  49.1874275
   4.1161633  24.8219910  48.1395187  10.3396463  30.1580048  46.7646332
  10.1541786  30.9291954  47.6645508  11.4484587  29.9303284  46.2061958
  11.4026976  29.2197781  45.4898720  12.6386309  30.6661816  46.5941811
  12.7397900  30.5724354  47.6754227  13.9719877  30.1926327  46.0508499
  13.8665781  30.1099720  44.9691124  15.1720886  31.1287289  46.2938766
  15.3944674  31.2674809  47.3518906  16.0373611  30.8131695  45.7109299
  14.9816465  32.0759888  45.7893753  14.3659687  28.7964897  46.6123810
  14.8555927  28.7863903  47.5861740  13.4505720  28.2085056  46.6789017
  15.1921167  27.9977741  45.6284065  14.7300653  27.8844299  44.6477127
  16.1909084  28.4151859  45.5008011  15.3083658  26.9578838  45.9337158
  12.4386053  32.1501160  46.2668266  12.7268782  33.1023216  46.9814110
  11.8758659  32.3790817  45.1007156  11.6377745  31.6123085  44.4879608
  11.5274391  33.7520943  44.6549683  12.4180651  34.3680801  44.7792816
  11.2197094  33.7465591  43.1243057  10.4925299  32.9609261  42.9191246
  10.5969563  35.0995750  42.7709961  10.6546297  35.1800461  41.6855011
   9.5568705  35.1692467  43.0895386  11.2490950  35.8928185  43.1364822
  12.4085665  33.3430939  42.1500359  13.2478952  34.0337639  42.2312965
  12.9202375  32.4441071  42.4937286  12.1103306  33.0984879  40.6849937
  11.2418480  32.4451370  40.7684479  11.8952255  34.0622177  40.2234116
  12.9987745  32.6653214  40.2255058  10.4410257  34.2935371  45.5290184
  10.6741037  35.3144188  46.1074409   9.3561764  33.6090927  45.8005562
   9.2244139  32.6964111  45.3885536   8.2156448  34.0204353  46.6522598
   7.7215052  34.8932686  46.2255363   7.1246171  32.9590263  46.5451126
   6.7150474  32.8602943  45.5398254   7.6362596  32.0258713  46.7807922
   5.8924952  33.0596657  47.5002594   5.1225882  32.3133392  47.3044662
   6.3670688  32.7074127  48.4161186   5.2831631  34.4977646  47.6538429
   5.3961287  35.3546791  46.7519302   4.6300201  34.7653580  48.6681824
   8.6920757  34.4039307  48.0719032   8.0880747  35.2913666  48.6875725
   9.6501780  33.6888275  48.6283340  10.1142073  33.0002365  48.0533409
  10.2077293  33.9201775  49.9402924   9.3899336  34.1095581  50.6355934
  10.9233007  32.6764412  50.5633011  10.1763926  31.9192886  50.8019447
  11.5810299  32.2542534  49.8035316  11.8386545  32.9217758  51.7984543
  12.6750698  32.2316895  51.6875916  12.2766905  33.9158669  51.7089424
  11.1460075  32.7467308  53.1492767  11.0070419  33.7290344  53.9297371
  10.7296610  31.6245041  53.5311241  11.2383671  35.1351242  49.8532524
  11.0414009  36.1490593  50.4826393  12.2588348  35.0799065  49.0297699
  12.3924084  34.1690903  48.6142311  13.2818623  36.1857262  48.8794441
  13.4036131  36.5193634  49.9099579  14.5963774  35.5953445  48.4774513
  14.4563150  35.0521278  47.5428886  15.3583422  36.3610039  48.3315964
  15.0633936  34.6211090  49.5319290  15.6642780  35.0537682  50.4645653
  14.9288683  33.3708305  49.2777786  15.5726156  32.8295212  49.8369484
  14.4324827  33.0127869  48.4743423  12.9536991  37.4129715  48.0698280
  13.5811596  38.4880600  48.2299728  11.9427528  37.3461494  47.2073860
  11.4466810  36.4913750  46.9991264  11.6143656  38.3172150  46.1812973
  10.8977079  37.8571815  45.5009537  10.9210138  39.4758568  46.8972168
  11.5854120  40.1775780  47.4014664  10.4138746  40.0983276  46.1600342
   9.8467455  39.0454559  47.8034554   8.5759201  38.5112991  47.5228691
   8.3205233  38.2074013  46.5941505   8.0039330  38.2063026  48.6883392
   7.1037297  37.6125031  48.7469635   8.8900776  38.5631447  49.6355057
   8.6333017  38.4261131  50.6026611  10.0337934  39.1179504  49.1188316
  10.9883242  39.3826141  49.5492096  12.6016121  38.6102066  45.1003189
  12.6565895  39.7768593  44.6257210  13.3037434  37.6066780  44.5759354
  13.1969185  36.6703987  44.9393463  14.3426695  37.7918396  43.5768929
  14.8638172  38.6206207  44.0560951  15.2682581  36.5827637  43.5837555
  14.7542353  35.7224846  43.1550293  16.5492096  36.6761246  42.7564964
  16.9992123  35.6916580  42.6283684  16.4296722  37.0693970  41.7469673
  17.2620068  37.2778130  43.3204079  15.5157185  36.2619667  44.9687004
  16.1993179  36.9206467  45.1116295  13.8071346  38.2215958  42.1577721
  12.6173592  37.9614334  41.9284821  14.5700741  38.9488258  41.3540230
  15.4941034  39.1911926  41.6819382  14.2081079  39.3161507  40.0289497
  13.5326529  38.5746803  39.6022377  13.4280910  40.6283302  40.0494652
  12.8808670  40.6857643  39.1085358  12.6658421  40.5815964  40.8272209
  14.2192831  41.9075699  40.1952820  14.7210808  41.9506493  41.1619492
  14.9357338  41.9324455  39.3741989  13.2932034  43.1815338  40.0813293
  12.4744053  42.9750595  39.3921013  12.7293882  43.4722443  40.9677277
  14.1741037  44.3298874  39.5020218  14.6770716  44.0369987  38.5804214
  13.5463438  45.1859856  39.2548141  15.1393681  44.6962471  40.5565834
  15.7029037  43.9128075  40.8544998  15.7451544  45.4593430  40.2904625
  14.5770283  45.0320854  41.3254051  15.3920450  39.3148766  39.0777512
  16.5133018  39.6297035  39.5040970  15.3068542  39.1313133  37.7366982
  14.1007681  38.6994209  36.9812317  13.4216757  39.5049591  36.7018776
  13.4432974  38.0060425  37.5056992  14.5456743  37.9923363  35.7108955
  13.9359236  38.3094597  34.8648834  14.4793186  36.9263763  35.9286690
  16.0072975  38.4277458  35.4637413  16.0243435  39.2843323  34.7898979
  16.6640949  37.6665802  35.0426216  16.4615688  38.7838058  36.9170647
  16.9805069  37.9293976  37.3515701  17.4188881  39.9312973  36.7279167
  18.5895748  39.6431656  36.6528168  16.9681072  41.1643867  36.6339035
  15.9694033  41.3087654  36.6768761  17.8854942  42.3183098  36.5678024
  18.3031120  42.2601433  35.5626602  16.9892311  43.6151466  36.4939003
  16.3642178  43.5684395  35.6021156  16.4067955  43.7281532  37.4082832
  17.7698383  44.9888535  36.3459587  16.9101276  45.6554794  36.4138298
  18.3941212  45.0981140  37.2327690  18.5276337  45.1681557  34.9693336
  18.6160393  44.2383575  34.1484032  19.0983906  46.2628632  34.7688980
  18.9992142  42.3375893  37.6518211  20.0303841  42.9868584  37.4176292
  18.7642078  41.7224236  38.8115883  17.9177208  41.1715012  38.8047943
  19.6740875  41.6257820  39.8942299  20.4772224  42.3151817  39.6338387
  19.0790100  42.1373367  41.2031174  18.8100739  41.2798958  41.8200188
  19.9504509  42.5248833  41.7308464  18.0052986  43.1579170  41.0488052
  18.2988129  44.2161255  40.4953423  16.8721771  42.8732376  41.5716553
  20.3536034  40.3098984  40.0529900  21.2192173  40.1608162  40.8661880
  19.9589081  39.3315163  39.3188553  19.4168186  39.6290054  38.5202713
  20.5436192  37.9776268  39.3747063  20.7650337  37.7211800  40.4107132
  19.5633297  36.8742981  38.8876686  18.9952011  37.1442986  37.9974823
  20.2560005  35.5869904  38.5544243  21.0616436  35.6778984  37.8258858
  20.7034702  35.1998520  39.4698448  19.4789219  34.8943481  38.2311592
  18.5247345  36.6288223  39.9326096  18.8239002  35.8403549  40.6231995
  18.3228893  37.6163216  40.3475876  17.5536957  36.3677864  39.5118446
  21.9322567  37.9815407  38.6641922  22.0080986  38.3748131  37.5407791
  22.9364948  37.4243011  39.3173141  22.7553577  36.9949493  40.2133904
  24.2641945  37.2846031  38.7084732  24.4210682  38.1095314  38.0135002
  25.3374290  37.2068367  39.7842560  25.0851765  36.3674011  40.4321899
  26.7642574  36.8213997  39.3098526  26.7953148  35.7501068  39.1111984
  27.0713425  37.4356728  38.4634056  27.4742012  36.9838486  40.1208344
  25.5078983  38.5065880  40.5609703  24.5864983  38.7584953  41.0860062
  26.3211040  38.3981667  41.2786331  25.7351971  39.4087257  39.9929962
  24.2144108  35.9590721  37.8328018  24.5984306  35.9455338  36.6385345
  23.8137455  34.8637581  38.5225487  23.5437031  35.0085144  39.4849510
  23.9410915  33.4880905  37.9591713  23.6290054  33.3859901  36.9198074
  25.4455719  33.1732368  38.0664368  25.7191296  32.2792702  37.5060005
  26.0249863  33.9085693  37.5081558  25.8847980  33.0831757  39.4931908
  25.6686916  34.0593796  39.9272728  25.2938061  32.3898392  40.0916252
  27.3488617  32.7131767  39.4360352  28.0903435  32.8652458  38.5019951
  27.9349937  32.3747749  40.5702248  28.8949413  32.0752563  40.4759254
  27.4880009  32.6912842  41.4188232  23.1698418  32.4454689  38.8747368
  22.8056946  32.7880058  39.9535446  23.0659103  31.1625576  38.4187126
  23.4151173  30.7943840  37.5454407  22.2910652  30.1481323  39.2035828
  22.4767075  30.3309574  40.2619858  20.7892723  30.4073620  38.9577827
  20.4209480  31.3840885  39.2715416  20.4851151  30.4037094  37.9110870
  19.8862610  29.3063622  39.5017509  20.2536983  28.3294163  39.1876373
  19.9321880  29.3417358  40.5902100  18.1659298  29.3717403  38.8830185
  17.5745735  27.8117199  39.7606964  16.6080933  27.4548874  39.4047623
  18.4240227  27.1656303  39.5390968  17.5231686  27.9991455  40.8332291
  22.7189159  28.7406311  38.8726349  22.6528454  28.2480946  37.8050766
  23.4057198  28.1790657  39.8460350  23.4039650  28.5737209  40.7757339
  23.8675289  26.7913456  39.7977409  24.0194721  26.4518890  38.7731476
  25.2367535  26.5682316  40.5045891  24.9701290  26.5001717  41.5592880
  25.5856018  25.5561199  40.2995644  26.2872486  27.7110481  40.3964233
  25.9668674  28.6517181  40.8443031  27.5386658  27.5432320  41.2259979
  27.9533615  26.5773735  40.9374695  28.1880436  28.3922100  41.0123482
  27.2242680  27.4475174  42.2652740  26.7938728  27.8791370  38.9559250
  27.1816216  26.9223022  38.6063271  25.9599724  28.3133545  38.4044113
  27.5764942  28.6328754  38.8694458  22.8075962  25.8428707  40.3502274
  22.0274620  26.2640762  41.2447853  22.7350121  24.5900440  39.8379059
  23.4958992  24.3364658  39.2240257  21.7362556  23.5222015  40.0933838
  21.3660870  23.8494511  41.0649719  20.6956482  23.4726105  38.9556274
  21.2388420  23.3090343  38.0248833  20.0616131  22.5874901  39.0072899
  19.6898556  24.6978531  38.8028946  19.4611416  25.1260395  39.7788315
  20.3284779  25.6412392  37.8731995  20.5434151  25.0897446  36.9579163
  19.5642624  26.3905296  37.6667137  21.2310143  26.0607624  38.3176537
  18.3823090  24.1035633  38.2842293  18.6142578  23.4284229  37.4605293
  17.9921074  23.5811863  39.1577110  17.7482891  24.9302406  37.9637222
  22.4165134  22.2074814  40.3481369  23.5082264  21.9190521  39.9085808
  21.8067989  21.2987671  41.1350174  21.0488853  21.5145111  41.7667770
  22.5135078  20.0434570  41.4981537  23.0947495  19.7584343  40.6212158
  23.2974033  20.4188824  42.7900581  23.9859734  21.2562199  42.6767426
  22.6204376  20.6173706  43.6209755  23.9484825  19.2499447  43.2890625
  24.5874195  18.8595982  42.6882362  21.5387230  18.9404831  41.8833771
  20.4394913  19.2231808  42.4031677  21.7766781  17.6759129  41.6100578
  22.5853825  17.3798370  41.0823822  20.8868179  16.5439911  41.9089775
  20.4090405  16.8539391  42.8383713  19.8434105  16.3332977  40.8961334
  19.1809788  15.4883223  41.0840111  19.1639843  17.1845665  40.8534241
  20.2860451  16.2525616  39.9033318  21.6760464  15.2468767  42.2381134
  22.7307758  14.9663048  41.7387543  21.1350765  14.4997320  43.1329155
  20.2607021  14.8017530  43.5383224  21.7346153  13.3152943  43.7648621
  22.5563316  13.5444603  44.4433670  20.6577473  12.7661657  44.7422600
  20.8256893  11.7159920  44.9810829  20.6439419  13.4577160  46.1481667
  21.6396217  13.4511108  46.5916405  20.3751354  14.4816017  45.8883553
  19.9434013  13.0783033  46.8920746  19.3699665  12.7771692  44.2116585
  19.1697254  11.9058380  43.8619652  22.2617798  12.2526388  42.7541924
  21.6128330  12.1835833  41.6683960  23.2660580  11.4002619  43.0770836
  24.1085129  11.4929085  44.2880173  23.5124302  11.3487244  45.1891251
  24.5584164  12.4748430  44.4346352  25.1835442  10.4226809  44.0484695
  25.4129219   9.9456367  45.0013123  26.0434589  11.0149412  43.7356186
  24.7544765   9.5025043  42.9322281  24.3004417   8.5837269  43.3034401
  25.5755177   9.1405382  42.3133812  23.6744099  10.2923908  42.1786041
  24.2169914  10.7380066  41.3448563  22.5792389   9.3389549  41.5321808
  22.8614693   8.6590319  40.5508499  21.3447628   9.2224092  42.0395851
  21.1309681   9.9351568  42.7225075  20.2348328   8.3421040  41.7902298
  20.5407677   7.4590468  41.2292328  19.4552498   7.9142160  43.0863228
  18.5271950   7.4457631  42.7586594  20.0100307   7.1674199  43.6543159
  19.1263943   8.9968586  44.1174545  19.2672958  10.1508942  43.8358269
  18.8713875   8.6219854  45.2561684  19.2309170   9.0038986  40.7773781
  18.2160931   8.3716364  40.4110756  19.4512367  10.1980467  40.2064476
  20.2046413  10.7462273  40.5962944  18.5956726  10.8921766  39.2734032
  17.7894821  10.2052221  39.0160103  17.8760223  12.1150246  39.9624977
  18.6887112  12.8197031  40.1387482  17.2139740  12.4454479  39.1621094
  17.1025658  12.0576715  41.2472382  17.6767273  11.6008224  42.0533028
  16.8151970  13.4898100  41.8690147  17.7740345  13.8666487  42.2249832
  16.3533630  14.2396431  41.2267036  16.2399540  13.3558731  42.7851219
  15.8228922  11.1529427  41.0677452  15.1924343  11.3875246  41.9254189
  15.3469734  11.3444452  40.1060143  16.0985680  10.0987749  41.0966415
  19.2302742  11.1440849  37.8180466  20.2736988  11.8394861  37.7617188
  18.6294785  10.6527815  36.7455292  17.8561630  10.0125761  36.8560753
  19.3250008  10.5550489  35.4298744  20.1194592  11.2847948  35.2736473
  19.8483391   9.0618143  35.2907257  19.0265808   8.3587017  35.1549034
  20.4037476   8.9734526  34.3570175  20.9015675   8.7342691  36.2867508
  22.0104675   9.4132204  36.5183907  22.2917156  10.1951609  35.9443092
  22.7453957   8.7920990  37.5000877  23.6597347   9.1269121  37.9672928
  22.1345043   7.6342840  37.7507286  22.4123039   6.9801645  38.4684029
  20.9177971   7.6521564  37.1185608  20.1216259   6.9235535  37.1591911
  18.2830200  10.7522211  34.2364845  18.6238117  10.5269442  33.0513763
  17.0799713  11.1363230  34.4579735  16.6949997  11.1203442  35.3915901
  16.0225296  11.3688612  33.4631386  15.7959146  10.4839239  32.8684654
  14.7971897  11.7591858  34.2849236  14.3525829  10.8591280  34.7095642
  14.9780178  12.5261793  35.0379982  14.1369228  12.2885132  33.5979233
  16.4058552  12.5039043  32.4874077  16.3997955  12.3933229  31.2144680
  16.6386604  13.6925440  33.0542107  16.7622681  13.6580019  34.0560226
  16.7775650  15.0564566  32.4217720  17.3841839  15.0368109  31.5163822
  15.4188223  15.6293707  32.0335083  15.0734816  14.8815613  31.3196297
  14.5774527  15.7269287  33.2904701  14.4356518  14.6801100  33.5590973
  15.0728683  16.2419281  34.1135406  13.5890474  16.1741982  33.1850548
  15.5387993  17.0258732  31.4249325  14.5504923  17.2592640  31.0288506
  15.9342890  17.8192863  32.0591087  16.2299309  16.9013214  30.5913029
  17.6100292  16.0776310  33.3176041  17.5558434  16.0518360  34.5257759
  18.3637009  16.9807911  32.6895256  18.1697063  17.1583633  31.7143631
  18.9443588  18.0904503  33.4879990  19.4406433  17.5770531  34.3115463
  19.9952602  18.8945675  32.6847839  19.4056320  19.4190521  31.9328842
  20.3750687  19.7307739  33.2718124  21.1799965  18.0211124  32.2131271
  22.1910496  17.5657234  33.0983772  22.2031326  17.9149704  34.1202774
  23.3360920  16.9137955  32.6230278  24.1776962  16.6929226  33.2628059
  23.3825130  16.6318588  31.2646027  24.2068291  16.0683804  30.8530216
  22.3147964  16.9366703  30.3946171  22.2467594  16.5034733  29.4076443
  21.2151909  17.6435242  30.8630238  20.3127460  17.7978706  30.2901611
  17.8811283  19.1797829  34.0403442  17.2312984  19.9130154  33.2432327
  17.8018742  19.3344822  35.3771439  18.7526112  18.8062019  36.3537941
  19.7691498  18.8066711  35.9604111  18.4668579  17.7637348  36.4941902
  18.7462368  19.7208900  37.5708351  19.2592983  20.6571636  37.3511543
  18.9594612  19.3115444  38.5582962  17.3310051  20.0697174  37.5192680
  17.0280457  20.8451500  38.2228432  16.8129807  19.1603680  37.8239594
  16.9658527  20.2972202  36.0251160  15.9360390  19.9771538  35.8665581
  17.0024261  21.7508831  35.5982933  16.0219212  22.4808197  35.5824738
  18.1547241  22.1590176  35.0102577  18.8323078  21.4693661  34.7180672
  18.3903656  23.4332523  34.3649025  18.5784836  24.1397743  35.1733208
  19.7306538  23.3070869  33.6199837  20.5145893  23.0143356  34.3184395
  19.5651646  22.6019707  32.8054085  20.0631256  24.2445564  33.1742134
  17.3347797  23.9087429  33.4384880  17.0744305  25.0981445  33.4501190
  16.7311993  23.0594921  32.5363884  16.9618530  22.0776291  32.5897026
  15.6825161  23.5593376  31.6044960  16.2456055  24.2582054  30.9859371
  15.2140436  22.3371315  30.8338718  14.6831684  21.5821972  31.4138260
  14.4945488  22.7073097  30.1035328  16.3608246  21.6319637  30.0246754
  16.8811741  22.3511658  29.3921528  17.1983261  21.2741356  30.6235504
  15.8235035  20.6169014  29.0593338  15.2437162  19.9017563  29.6428699
  15.1577263  21.2040119  28.4267654  16.8714771  19.9326458  28.1308842
  17.4557743  20.7155781  27.6474419  17.4683247  19.3420143  28.8258839
  16.2862988  19.0001240  27.1621609  17.0293427  18.3590546  26.9233665
  15.5666790  18.4085388  27.5523872  15.9261017  19.4602547  26.3383656
  14.4629116  24.2506504  32.1769981  13.8846207  25.1929970  31.6792393
  14.0883045  23.7840900  33.3673553  14.4996576  22.9834557  33.8254738
  12.9846601  24.3965664  34.0971642  12.0683632  24.4774761  33.5123940
  12.7137060  23.5341644  35.3477516  13.6014347  23.5916100  35.9776192
  11.9003811  23.8871994  35.9817581  12.4311495  22.5169678  35.0765038
  13.1831713  25.8784370  34.6090469  12.1884727  26.5024757  35.0405426
  14.3537216  26.4615784  34.4450302  15.1580267  25.8976669  34.2100868
  14.5459490  27.8916912  34.7256927  14.0958710  28.1508102  35.6840210
  16.0230408  28.2179394  34.9114075  16.6649017  27.9980373  34.0583229
  16.3442955  29.6782017  35.1818848  16.0966816  30.2671204  34.2987289
  15.7975883  30.0637169  36.0424652  17.3908882  29.8711433  35.4174995
  16.5294647  27.3316364  36.0704460  17.5325661  27.7385883  36.1980247
  16.0322571  27.6015091  37.0021439  16.5118446  26.2753048  35.8022003
  13.8864126  28.7809391  33.6579628  13.5378876  29.9099026  33.9018250
  13.7038145  28.2752914  32.4449348  13.9111547  27.3012314  32.2766533
  13.4101477  29.1716061  31.3507862  14.1117859  30.0049610  31.3871384
  13.6247854  28.5549774  29.9248619  13.1356115  27.5878105  29.8091240
  13.1266279  29.1786327  29.1825733  15.0869865  28.4306355  29.4616108
  15.0700293  28.0797787  28.4297619  15.5651188  29.4101658  29.4583130
  15.9616642  27.4335842  30.3273335  15.7910805  27.7235813  31.3641090
  15.6063061  26.4319763  30.0852509  17.3947601  27.5974274  30.1046143
  17.8370190  28.3684177  30.5842838  18.2075481  26.7375050  29.6119709
  17.8644543  25.5369091  29.1675339  16.9185028  25.1855183  29.1250782
  18.6161156  24.9824295  28.7832584  19.4277668  27.0718746  29.5619831
  20.1057472  26.3505859  29.3615246  19.7546043  27.9595013  29.9160976
  11.9865170  29.7442627  31.4201908  11.7050972  30.8036118  30.8170090
  11.1781082  28.8619213  31.9816895  11.5854139  28.0740414  32.4648628
   9.7192411  28.8994198  31.9892120   9.3103838  29.1752510  31.0171776
   9.2092371  27.4645386  32.3773155   9.5824366  27.3502445  33.3950386
   8.1221981  27.4642353  32.2970276   9.8729248  26.4615479  31.3340092
  10.9437494  26.3325157  31.4914494   9.4648237  25.4532795  31.4043560
   9.7681704  26.8518085  29.8587952  10.6988811  26.7217808  29.0206146
   8.6084461  27.2448330  29.5337906   9.1877537  29.9968014  32.8958588
   8.0594807  29.9414616  33.4172821  10.0457401  30.9547043  33.3043633
  10.8983164  31.0936832  32.7810135   9.7302933  32.1722794  34.0684776
   8.6772203  32.2530975  34.3379326  10.4289312  32.0806503  35.4959831
  11.4959154  31.9572067  35.3104897  10.1289635  32.9785652  36.0362282
   9.9770632  30.9302425  36.3502884  10.1792269  29.9666862  35.8825378
  10.8856773  31.0997086  37.5786591  10.8239498  32.1077538  37.9886894
  10.4643898  30.4802418  38.3704185  11.9059429  30.8317795  37.3041191
   8.4847040  30.8988419  36.6927414   8.2597837  29.9368267  37.1532173
   8.1367111  31.7847309  37.2239647   7.9281402  30.8305569  35.7580338
  10.2266712  33.4335709  33.2802162  11.2678528  33.4818001  32.6352234
   9.4645386  34.5413399  33.2753754   8.6539412  34.5142174  33.8772850
   9.6434412  35.7464104  32.5372391   9.6773844  35.4580803  31.4866104
   8.5670872  36.8129501  32.8949585   7.5381498  36.5276260  32.6759186
   8.6807203  36.9205055  33.9736710   8.8740692  38.0740166  32.2284660
   8.5602121  38.8259163  32.7361526  11.0342875  36.3777809  32.7733574
  11.4987898  36.5056992  33.9307404  11.8410892  36.5599403  31.6689091
  11.4574375  36.2800713  30.7775154  13.2743778  36.9557076  31.6937046
  13.5880041  37.2919807  30.7054424  13.3871841  37.8971519  32.2313461
  14.3527479  35.9476547  32.1490860  15.5254049  36.1693497  31.9789639
  13.9886990  34.8663559  32.8990860  13.0392075  34.8726501  33.2433662
  14.9011507  33.8624649  33.4344749  15.6948509  34.3277283  34.0189972
  14.1076708  33.0652046  34.4887848  13.1309261  32.7825699  34.0961151
  14.5675850  32.1077690  34.7335243  14.0106611  33.6755905  35.8110237
  13.0308113  34.4633102  36.3028946  12.1259012  34.6151009  35.7332420
  13.3419657  34.9162598  37.5702553  12.7427206  35.4700928  38.1654625
  14.5328531  34.2905159  38.0230484  15.1809711  34.3606377  39.2293854
  14.7901869  34.9953461  40.0109444  16.4584408  33.7442093  39.3072968
  17.1742764  33.9165497  40.0974083  16.8890686  32.8853226  38.2653694
  17.8762665  32.4473305  38.2640076  16.1849880  32.7942619  37.1073723
  16.5591621  32.1674957  36.3114052  14.9700508  33.4830933  36.9214935
  15.6043863  32.9719505  32.3803635  16.5946121  32.3519592  32.8125038
  15.2032909  32.8915443  31.1547470  14.3002462  33.3124733  30.9891319
  15.9358711  32.3369293  29.9941349  16.2638969  31.3094616  30.1516533
  14.9810734  32.3977585  28.7547073  15.5327654  31.9577618  27.9239616
  14.0881519  31.8060341  28.9563370  14.6045742  33.7931366  28.2444248
  14.1865263  34.4128265  29.0377235  15.4393358  34.3017578  27.7621593
  13.5269718  33.6876755  27.1517010  13.7393370  32.9086914  26.2528381
  12.4204674  34.3638229  27.2647877  12.2086296  34.7857628  28.1576443
  11.7529011  34.4477348  26.5115185  17.1841984  33.0908127  29.6748028
  18.1319714  32.6094513  29.1088905  17.3266640  34.3406067  30.1229897
  16.6300068  34.7867355  30.7024193  18.5542927  35.1338997  29.9158878
  19.0976791  34.7537766  29.0508213  18.1534748  36.5601196  29.6728230
  17.7239113  36.8668747  30.6264877  19.0416298  37.1803551  29.5520191
  17.1210556  36.7533379  28.6161041  17.3019848  36.3142624  27.3012924
  18.2849026  35.8961487  27.1417503  16.3325195  36.5847130  26.2550278
  16.5097427  36.3774147  25.2100296  15.0641928  37.0362015  26.6866531
  13.9869862  36.9540863  25.8076668  14.1775503  36.4984894  24.9844303
  14.8339005  37.4148598  28.0311508  13.8992424  37.8367767  28.3699913
  15.8879776  37.3744926  29.0194263  15.7120781  37.6915970  30.0367317
  19.5808907  35.0209351  31.0024605  20.7117252  35.2796478  30.8580570
  19.1895695  34.4456367  32.1579666  18.2701893  34.0275383  32.1638489
  20.1397781  33.9734650  33.2707710  20.7383728  34.8464012  33.5310783
  19.4170189  33.5690651  34.6644478  18.7047424  32.7721291  34.4507751
  20.3689194  33.0531654  35.7382889  21.0875320  33.8082047  36.0570526
  19.7969379  32.8178558  36.6358261  20.7568588  32.0623436  35.5019112
  18.5941772  34.7741547  35.1064568  18.1113739  35.3359833  34.3068619
  17.7375660  34.5267677  35.7334442  19.2649250  35.3451347  35.7484703
  21.0121040  32.8618126  32.7952118  20.4756737  31.8779068  32.2577705
  22.3030701  32.8354416  33.1241150  23.0329094  34.0190697  33.5444832
  22.6719017  34.3811073  34.5071373  22.8618336  34.7392654  32.7443848
  24.5279579  33.6781540  33.5709839  24.5964966  33.3778076  34.6165428
  25.1092033  34.5292320  33.2161140  24.5516567  32.4585724  32.6765823
  25.3393822  31.8198051  33.0760384  24.7102623  32.8048706  31.6552944
  23.2414036  31.7508068  32.8291855  22.9103966  31.2648354  31.9113789
  23.1805019  30.7029781  33.9449692  23.3974895  31.0508633  35.1264114
  23.0879021  29.4448185  33.5414391  22.9096336  29.2322311  32.5702934
  22.9137135  28.3802967  34.5383072  23.3184242  28.7437840  35.4828682
  21.4879799  27.9270725  34.7085419  21.2820911  27.1859837  35.4808769
  20.5371113  29.0773182  34.9811440  19.5854836  28.7147713  35.3698196
  20.9336147  29.7645569  35.7285309  20.3444157  29.5997124  34.0440865
  21.0925980  27.2214203  33.3686676  21.6114941  26.2720909  33.2359238
  20.0162830  27.1290169  33.5139618  21.2428360  27.8854504  32.5174370
  23.8254738  27.1013603  34.3146515  24.4014244  27.0334988  33.2764549
  24.0388508  26.2538395  35.2875366  23.5459881  26.4567280  36.1454544
  24.5219917  24.8955212  34.9936790  24.1354179  24.5517025  34.0342789
  26.0662212  24.9756279  34.8232460  26.2305889  25.4103909  33.8373146
  26.8258400  25.6793938  35.9659767  26.3549290  26.6405582  36.1721382
  26.6977692  25.0820637  36.8686943  27.8943176  25.7444458  35.7605095
  26.5780239  23.6304741  34.7217293  26.6331158  23.1750984  35.5650558
  24.2132664  23.9372578  36.0815392  24.1550713  24.3813915  37.2630997
  24.1160374  22.6195564  35.8129463  23.9442501  22.3179131  34.8644714
  24.1743793  21.5334625  36.8015518  23.5883961  21.9290562  37.6311493
  23.5084953  20.3525238  36.1637802  24.1166172  20.1135597  35.2913208
  23.5851936  19.5724106  36.9211731  21.8032074  20.8162670  35.8134613
  22.1394234  21.5958862  34.7819328  25.6283150  21.2038307  37.2565536
  26.6069107  21.6259193  36.6797829  25.6907101  20.5732899  38.4203072
  24.8402061  20.4231911  38.9439621  26.8325577  19.9034843  38.8957253
  27.4545441  19.5693359  38.0653191  27.6959667  20.8863697  39.6391716
  28.6307297  20.4385967  39.9765472  28.1309433  21.4876232  38.8408051
  27.0070190  21.7376175  40.6820335  26.3595505  22.4711056  40.2015343
  26.4220409  21.0572186  41.3008728  28.0366993  22.7333336  41.7909775
  28.8541374  23.7817631  40.6571121  28.1248837  23.9661713  39.8682709
  29.1737385  24.7083797  41.1339149  29.6559353  23.3306046  40.0725784
  26.4391403  18.7082939  39.7831612  25.5038776  18.7538643  40.6194916
  27.2598114  17.7165184  39.6233711  27.9660912  17.7198944  38.9013863
  26.9947910  16.4800396  40.3524246  25.9661827  16.1992569  40.1260872
  27.9156494  15.3650551  39.7055969  27.6830311  15.2910128  38.6432838
  28.9612522  15.6207409  39.8771820  27.6239319  14.0282440  40.2944717
  28.2333851  13.2489128  39.8369675  27.8322563  14.0604630  41.3638954
  26.1447506  13.6362400  40.2114601  25.5850906  13.3372812  39.1753731
  25.4151440  13.5345316  41.3180122  24.4370995  13.3652267  41.1312904
  25.8272018  13.6817122  42.2283134  27.1323776  16.5955448  41.8843994
  28.2187176  17.0061836  42.3319168  26.1553421  16.1961250  42.6646004
  25.3661079  15.7524738  42.2169571  26.1839828  15.9419279  44.0976830
  26.5045605  16.8415527  44.6230507  24.7134342  15.6147814  44.5571213
  24.0509262  16.3524323  44.1042938  24.3929977  14.6569700  44.1472244
  24.4543972  15.5113001  46.0835838  23.8509331  14.6525850  46.3777657
  25.4544754  15.3831558  46.4977417  23.7493477  16.7961845  46.5638962
  22.4801121  16.8803844  46.5810051  24.3931885  17.7691345  47.0813980
  27.1156769  14.7344494  44.3573952  27.1381378  13.7096605  43.7273445
  27.8069019  14.9754848  45.4277802  27.5232201  15.7099285  46.0604095
  28.7075539  14.0241756  46.1537323  29.5470619  13.7102776  45.5334129
  29.4526005  14.7725267  47.3081474  29.9393139  15.7045641  47.0208893
  28.6318855  14.9410076  48.0053902  30.4967041  13.9106884  47.9738197
  30.0309830  12.9354820  48.1158676  31.3748207  13.7327909  47.3530426
  30.9859810  14.7322721  49.4438858  32.0727539  13.5893993  50.2537117
  31.5717106  12.7293053  50.6978874  32.7554550  13.1364393  49.5347900
  32.7265472  14.0512428  50.9935493  27.9110165  12.7222891  46.5261345
  26.9454556  12.8160715  47.3011284  28.3261166  11.5093451  46.1736450
  29.1371117  11.4225903  45.5779419  27.8545399  10.1462679  46.5422211
  26.7666378  10.1427927  46.6097679  28.3933544   9.0708256  45.5893135
  27.9671917   9.1639128  44.5904007  29.4810886   9.0388451  45.6518555
  28.0031586   7.6246982  46.0403099  28.6915302   6.6447201  45.6133270
  26.9499969   7.4672103  46.6727562  28.3537140   9.8594503  47.9942131
  29.2448521   9.0812635  48.3174248  27.7101746  10.5295267  48.9389572
  27.0318298  11.1828823  48.5741615  27.6982155  10.2844095  50.3798180
  28.6616592   9.9447184  50.7599335  27.3687077  11.6160955  51.1651993
  26.4134464  11.9793596  50.7862282  27.1832638  11.4537497  52.6525688
  26.5869236  10.5842772  52.9291611  28.1478539  11.3115883  53.1398659
  26.7775307  12.3477831  53.1260529  28.4692841  12.6017838  50.8949928
  28.3410072  12.9477329  49.8693352  28.2705288  13.4376087  51.5658073
  29.4921570  12.2936707  51.1115532  26.6548386   9.1737213  50.5463104
  25.4198723   9.3246984  50.3014374  27.1670532   7.9776969  50.8107986
  28.1504192   7.7473216  50.8152237  26.3748837   6.8067493  51.0458870
  25.8775711   6.4290266  50.1525192  27.2263050   5.6619296  51.5153809
  27.6601524   5.8797927  52.4912949  26.4924431   4.2843308  51.7050514
  25.7429066   4.1396384  50.9270058  27.2376690   3.5117507  51.8944168
  25.9961758   4.3655820  52.6721230  28.1947975   5.4878149  50.5229530
  27.6606255   5.2438483  49.7635193  25.1213970   6.9417400  51.8448105
  24.0548973   6.3928509  51.4690590  25.1427574   7.7412553  52.9464531
  26.0236053   7.8292251  53.4327316  23.9047070   7.9588814  53.7381096
  23.3078594   7.0478702  53.6941414  24.2691650   8.0435877  54.7618752
  23.1472511   9.2428169  53.4985428  22.3328094   9.5495539  54.3279381
  23.5502243  10.0105276  52.4187698  24.3062115   9.7210188  51.8148079
  22.8501816  11.2729187  52.1520882  22.7881737  11.8594980  53.0687027
  23.3393059  11.7730761  51.3161964  21.3076859  11.1316385  51.7389336
  20.8402863   9.9887619  51.5464172  20.6031742  12.2401438  51.6583176
  21.1256294  13.1041174  51.6320496  19.2011204  12.1997852  51.5182495
  18.8589001  11.4922047  52.2734413  18.4994564  13.4484835  52.0397072
  18.8200588  13.7252750  53.0440483  18.6877155  14.2673569  51.3453712
  16.9546280  13.1871300  52.1675568  16.7008953  12.6958179  51.2282295
  16.6393070  12.1353073  53.2244682  15.5979939  12.2574968  53.5225372
  16.8625431  11.1236410  52.8856506  17.1140633  12.1824322  54.2045097
  16.1902485  14.5148001  52.1509132  15.1366014  14.3888426  52.4000320
  16.7573547  15.2546549  52.7158089  16.2334270  14.9902010  51.1710014
  18.8331299  11.7678471  50.0393753  19.1004162  12.5999489  49.1712837
  18.3365440  10.5340843  49.8044434  18.2756767  10.0027637  50.6612396
  18.1993370  10.0132732  48.4535370  19.0958385  10.1155567  47.8420372
  17.7232533   8.5902052  48.4853973  16.7608433   8.6145315  48.9965515
  17.5790024   8.2446795  47.4617233  18.6934147   7.6796761  49.3454933
  18.6732750   7.9891500  50.3904457  18.3904228   6.6330929  49.3764725
  20.1281948   7.7844610  48.9002762  20.2589607   7.3666306  47.9020691
  20.4192009   8.8346186  48.8760681  21.0512714   6.9791641  49.8296356
  21.1694241   7.5408092  50.7562943  20.6115265   6.0074892  50.0545197
  22.2885475   6.6671200  49.2036629  22.7605400   7.5120816  48.9149361
  22.8943291   6.1759138  49.8454208  22.1698780   6.0969791  48.3784599
  17.1190624  10.7530355  47.6076202  16.1787796  11.2762833  48.1630325
  17.3094826  10.8871384  46.2532425  18.1465340  10.4437466  45.9027481
  16.4077988  11.5785704  45.2857857  16.9460468  11.5183277  44.3398705
  15.1057262  10.7399454  45.0913162  14.5364132  10.8586950  46.0132103
  14.4955797  11.1507339  44.2869072  15.2372408   9.2427759  44.9140892
  15.8666353   8.9949932  44.0593567  15.8446550   8.8748865  45.7410164
  13.9151535   8.5166674  44.8348656  13.2960653   8.7779188  45.6931076
  13.4753151   8.8796759  43.9059601  14.1809969   7.0197220  44.7606277
  14.9115000   6.8578329  43.9679985  14.5873327   6.5819817  45.6724281
  12.8668652   6.3527298  44.5806656  12.2928476   6.4314122  45.4079552
  12.4556026   6.8083463  43.7785530  13.0218449   5.3661485  44.4298706
  16.2620907  13.1426373  45.5009499  15.1597052  13.6581411  45.3097534
  17.2946758  13.8829136  45.9402733  18.2211533  13.4967651  46.0526581
  17.1261768  15.2632036  46.1640053  16.1318684  15.5557604  46.5014381
  17.8980236  15.5004978  47.4009171  17.4824104  14.8713093  48.1879921
  18.9516277  15.2534800  47.2705383  17.8251820  17.2527695  47.8821983
  18.7594471  17.7413750  47.0616417  17.6405563  16.1010685  44.9301834
  18.6406231  15.7926054  44.2319374  16.9869003  17.2443943  44.7337341
  16.2549801  17.5089359  45.3774834  17.4882412  18.3753452  43.8648415
  18.4182091  17.9986496  43.4389763  16.4845295  18.7658730  42.6752243
  15.6183834  19.2114048  43.1645012  17.1821346  19.8340530  41.8210068
  16.7463207  19.7975750  40.8225899  16.9543095  20.8461266  42.1555290
  18.2185421  19.6065502  41.5715981  16.0528088  17.4986439  41.8719406
  16.1568527  17.7172203  40.8091583  16.7515717  16.6861134  42.0710030
  14.6528854  16.9387779  42.1633530  14.5392323  16.0709190  41.5137291
  14.7321444  16.5236969  43.1681061  13.9198647  17.7196865  41.9609604
  17.7245502  19.6668224  44.7610779  16.9070759  19.8910275  45.6621628
  18.7729588  20.4425468  44.4278069  19.3830032  20.1646328  43.6723557
  19.2821903  21.6175041  45.1575165  18.4076042  22.0416584  45.6507607
  20.3508587  21.1065903  46.1699333  20.6397495  20.1078873  45.8424644
  21.1915798  21.8002949  46.1776543  19.8217983  21.0613899  47.5838470
  19.4442596  22.0430851  47.8699226  18.9892063  20.3618984  47.6587143
  20.8263550  20.7218647  48.6929588  21.6281281  21.4597588  48.6650848
  20.3946095  20.8788986  49.6814079  21.3298359  19.3535423  48.5154495
  21.6243439  19.0189838  47.6091194  21.4189816  18.4727840  49.5155792
  21.3970413  18.6308727  50.7917290  21.1134872  17.8533592  51.3706741
  21.3236828  19.5924473  51.0918846  21.5670605  17.2570915  49.1862602
  21.7193565  16.5803814  49.9204140  21.6712437  17.0959892  48.1946487
  19.9366589  22.7089672  44.2841606  20.5540466  22.3622456  43.2821579
  19.7466469  23.9693680  44.7399979  19.1771832  24.0962772  45.5644379
  19.9885712  25.1250076  43.8933144  20.7865715  24.7975140  43.2269516
  18.7233753  25.6704369  43.1349716  19.0675602  26.3335171  42.3412704
  17.9658775  24.5640373  42.4147720  17.4596500  23.8759899  43.0918465
  17.2392082  25.1491947  41.8511772  18.5830631  24.0253944  41.6957130
  17.7501221  26.4249401  44.0285950  17.4010677  25.6767864  44.7402992
  18.2005081  27.2382526  44.5976067  16.9666710  26.9044037  43.4417229
  20.6704769  26.2158146  44.7867966  20.3423500  26.4342670  45.9344215
  21.5733490  26.9682770  44.1121864  21.8482418  26.6573963  43.1913795
  22.1579590  28.2144947  44.5436401  21.6118145  28.4679127  45.4522667
  23.5442600  27.9707031  45.0310402  23.5747910  27.0467491  45.6085167
  24.2252121  27.6701031  44.2347679  24.1360149  29.1188545  45.8426857
  24.2917957  29.9407368  45.1438713  23.4873238  29.4861870  46.6379013
  25.6952038  28.7321129  46.7378044  26.7101707  27.9058323  45.5053406
  26.3197823  26.9018517  45.3388710  26.7443542  28.4056263  44.5372849
  27.7564430  27.9354000  45.8095512  21.9727688  29.4493332  43.5448723
  22.5507183  29.4137478  42.4586678  21.1955776  30.4222012  43.9083595
  20.8203392  30.4003754  44.8458138  21.0875092  31.7289352  43.1315498
  21.2695942  31.5882397  42.0661125  19.6728764  32.3891754  43.2817879
  19.5142250  32.5181465  44.3524399  19.7240734  33.2683105  42.6394463
  18.5160904  31.5168743  42.9217300  18.8297215  31.0465279  41.9897919
  18.2044353  30.7670231  43.6488457  16.9860840  32.4190826  42.5197144
  16.9172516  33.2666206  44.0560570  17.6170082  34.1019325  44.0823936
  15.9539042  33.7000847  44.3247070  17.0749111  32.5175323  44.8320045
  22.2101002  32.6585197  43.7488785  22.1767826  32.9174004  44.9391975
  23.1345348  33.2236862  42.9006691  23.1226845  33.0331726  41.9088707
  23.9639606  34.4220657  43.3397179  24.0611420  34.4278145  44.4253693
  25.3785172  34.3818398  42.7714005  25.2068901  34.7501831  41.7599831
  26.3793278  35.2321014  43.5340843  26.2480850  34.9689140  44.5836601
  27.4119530  35.1242943  43.2021751  26.2561188  36.3098640  43.4275627
  25.8345699  33.1153870  42.7939186  25.9844074  32.9919128  43.7340813
  23.4457073  35.8223991  42.8894234  23.0553570  35.9941254  41.6841888
  23.2351379  36.7579765  43.7932701  23.5551987  36.6172409  44.7408218
  22.3022518  37.9105492  43.5090752  22.0866604  38.1527328  42.4684181
  20.9881954  37.6014366  44.1923714  21.1687241  37.5462189  45.2659035
  19.9466267  38.7409821  43.9699936  18.9601612  38.4712410  44.3471222
  20.1983910  39.6557274  44.5066032  19.8133411  38.9856873  42.9162140
  20.4089584  36.2563515  43.7416611  20.5038033  36.1020126  42.6668205
  20.7764988  35.3886871  44.2895393  19.3371296  36.2496109  43.9397469
  22.9510860  39.1952591  44.0399475  23.4055767  39.2187309  45.1548195
  22.7808819  40.2417564  43.2974014  22.3006992  40.1143265  42.4180374
  23.1091080  41.5524368  43.7358818  24.1056843  41.4762421  44.1707726
  23.2460690  42.5120621  42.5405998  22.2631683  42.5605812  42.0719299
  23.5034523  43.4920235  42.9425163  24.4074459  42.0492210  41.6448784
  25.2770481  42.2893372  42.2566261  24.3023319  40.9721260  41.5147629
  24.4085999  42.7561913  40.3229141  25.2523136  43.5834198  40.0225677
  23.3864117  42.6526794  39.5078812  23.4875469  43.1876831  38.6572075
  22.7878857  41.8425484  39.5823860  22.0590191  42.0674553  44.7241745
  20.8763580  42.0077705  44.3909264  22.4692154  42.5744934  45.9035416
  23.4507217  42.7154198  46.0955925  21.6007061  42.8135452  47.0693207
  20.7134132  43.3866844  46.8003922  20.9360600  41.5128975  47.4727936
  20.3937778  41.1382370  46.6046524  21.9299088  40.4586334  47.9907532
  22.1557064  40.5467377  49.0534592  21.5933762  39.4316940  47.8484879
  22.8780403  40.6086311  47.4743767  19.9355965  41.8032494  48.4549446
  19.0787964  41.4364128  48.2248878  22.4196186  43.5835991  48.1643677
  23.5518322  43.2589798  48.4865837  21.7161083  44.4732628  48.9363403
  20.7673721  44.6679192  48.6497955  22.1322041  45.1173744  50.1823807
  23.1221752  44.8297272  50.5363808  22.1221542  46.6648750  49.9774666
  21.1857338  46.9528084  49.4996452  22.1656837  47.1346474  50.9600754
  23.2969036  47.0629311  49.1044998  23.1414280  47.9817924  48.2958603
  24.3869190  46.4391861  49.1782837  21.3913326  44.5431213  51.4463196
  21.4286537  45.1767387  52.4996567  20.7740993  43.3436356  51.3930588
  20.6875744  42.9361191  50.4729805  20.1232548  42.6036530  52.5410194
  19.7201328  43.2841530  53.2910271  19.0263309  41.6591759  51.9590569
  19.4852886  41.2273064  51.0697060  18.5267525  40.5414734  52.8692322
  18.1475716  40.9202461  53.8183632  17.7217064  39.9841766  52.3902550
  19.3054047  39.8635368  53.2188072  17.8971958  42.5898170  51.4896927
  17.5829182  43.2305031  52.3136177  18.1873093  43.1748466  50.6169510
  17.0053310  42.0547791  51.1634712  21.2384605  41.8170586  53.2773247
  21.9212284  41.0063553  52.6552963  21.4092522  41.9921074  54.6504021
  20.6497478  42.9108047  55.4803734  19.6114330  42.5797501  55.4602280
  20.7180119  43.8991280  55.0257721  21.3230724  42.8680534  56.8353004
  20.6572380  43.1084518  57.6641388  22.1639500  43.5431633  56.6763763
  21.9476891  41.4539719  56.9475060  21.1934681  40.7882004  57.3670273
  22.8581638  41.2435951  57.5086441  22.2383480  41.1804276  55.4578972
  23.2515526  41.4885139  55.1998177  22.1204281  39.6494484  55.2515717
  21.1149998  39.0683937  54.8731689  23.1958637  38.9677505  55.5366974
  24.0454273  39.4084473  55.8593864  23.3786125  37.5470428  55.2275848
  23.3017998  37.3998375  54.1503029  24.7641697  37.1056747  55.6387367
  25.5267601  37.8717613  55.4984856  24.7384930  36.8944664  56.7077675
  25.2607327  35.8405266  54.9308395  24.4535427  35.1222496  55.0744362
  25.3616543  36.1713676  53.8971748  26.6860924  35.4604874  55.4436722
  26.9985676  35.5762978  56.6476860  27.6276245  35.1911583  54.5287933
  28.5768547  35.2984428  54.8567543  27.4066181  35.0434799  53.5543976
  22.3884964  36.6155090  56.0247841  21.8764420  35.5989723  55.4460106
  22.0315323  36.9717598  57.3440819  22.5377350  37.7229996  57.7907295
  21.0496464  36.2056885  58.0784454  21.2579689  35.1477585  57.9188004
  21.0182610  36.6340408  59.5763397  20.2583885  36.0648651  60.1118164
  21.9962864  36.3981285  59.9957619  20.7361813  38.1407127  59.7873421
  21.4901791  38.9849205  59.2180977  19.7568340  38.4719925  60.5001793
  19.6442070  36.4336433  57.5320091  18.7690144  35.5226364  57.5011635
  19.4699402  37.6971703  57.0606537  20.2049713  38.3898621  57.0571899
  18.2059994  38.1296463  56.4687271  17.4126701  37.6734734  57.0608826
  18.0337906  39.6333160  56.3886185  18.8475475  40.0085907  55.7680817
  17.0731544  39.7093811  55.8792152  18.0708656  40.3282318  57.7383080
  17.3412132  39.8115082  58.3617706  19.0359325  40.1740189  58.2209740
  17.8469810  41.7583656  57.7457695  17.3609238  42.3305855  56.7486992
  18.1072273  42.5726852  58.7468872  18.5569992  42.2020988  59.5717926
  18.0548344  43.5723381  58.6125488  17.9976768  37.5505066  54.9871330
  16.8428459  37.4790955  54.6283836  18.9861069  36.9786339  54.2906036
  19.9329605  37.2083855  54.5566559  18.8050098  36.0433998  53.2006683
  18.0113068  36.4553528  52.5774155  20.0735092  35.8500633  52.3556404
  20.8451519  35.4161110  52.9915276  19.8625164  34.7639923  51.3192711
  18.9452000  34.9540596  50.7620392  20.6662598  34.5999832  50.6014977
  19.4823627  33.8372231  51.7490158  20.6928482  37.1200829  51.6766968
  20.8122444  37.8045349  52.5165634  21.6797485  36.8199387  51.3245049
  19.7817879  37.7919731  50.6170273  20.3817253  38.5205040  50.0716553
  19.5620785  36.9813194  49.9222832  18.8503761  38.2347374  50.9699173
  18.2238388  34.6728096  53.6320496  18.8280888  33.9538956  54.4996605
  17.1421680  34.1850662  53.0206833  16.8098812  34.5723305  52.1490669
  16.3697243  33.0753326  53.4970436  16.6428051  32.6908188  54.4797325
  14.8681316  33.3480606  53.7629089  14.3642683  33.2980995  52.7976494
  14.3793583  32.6285820  54.4198341  14.6552477  34.8077507  54.2977066
  15.1001024  35.5035019  53.5862770  13.6001234  35.0812683  54.2979317
  15.2404718  35.0629883  55.7459259  16.3302994  35.0738182  55.7298889
  15.0518932  36.0807495  56.0875397  14.5984011  34.1794243  56.7194977
  13.7147980  33.8322639  56.3747902  14.8524609  34.0118828  57.9843559
  15.8859301  34.5537376  58.5101624  16.0558510  34.4043159  59.4944878
  16.6024055  34.8757401  57.8752785  14.0012474  33.3344231  58.7344666
  14.1596851  33.3703804  59.7313156  13.1512613  33.0771561  58.2533875
  16.3052769  31.8960915  52.5737038  16.3438568  31.9889488  51.3527489
  16.0284672  30.7036972  53.0880661  15.7780542  30.5850334  54.0593071
  16.3427753  29.3712635  52.5119362  16.5178738  29.4361935  51.4380493
  17.7105141  28.8491821  52.9570885  17.5794144  28.6027546  54.0107460
  17.9949512  28.0306072  52.2959290  18.8368912  29.8973598  52.7786827
  19.5508366  30.1127720  51.6159134  20.3899689  31.1224232  51.9423637
  21.2086563  31.4229240  51.3053017  20.2860832  31.5635033  53.2244530
  20.8230953  32.2767639  53.6966553  19.2618103  30.7707882  53.7635727
  19.0093365  30.7440777  54.8133125  15.1244040  28.4280243  52.6758423
  14.3049679  28.5472946  53.6012917  14.9541903  27.5611553  51.6655579
  15.7079601  27.5222359  50.9944267  13.7112732  26.7630806  51.3961372
  13.0264759  26.8524342  52.2394447  12.9118652  27.2936497  50.1444664
  13.4293003  27.0722179  49.2110176  11.5114889  26.7079124  50.0333672
  11.6214781  25.6561413  49.7692223  10.9085999  26.7762585  50.9388771
  10.9843235  27.0032845  49.1261940  12.8142033  28.7790928  50.2490044
  12.1242561  29.2288303  49.5349960  12.4432173  29.1060238  51.2203827
  13.7724066  29.2679234  50.0729599  14.0026722  25.2398701  51.3087730
  14.9080429  24.7458344  50.6182289  13.0767670  24.5054970  51.9783897
  12.4497309  25.0275383  52.5737076  13.2123737  23.0173512  52.0207253
  13.7198572  22.6435680  51.1314278  13.8535118  22.5417023  53.3617287
  13.1553783  22.7805042  54.1640282  13.7799673  21.4552517  53.3136177
  15.2520533  23.1247063  53.6212730  15.5119886  24.3792286  54.3044739
  14.6161251  24.9193783  54.5729256  16.8531075  24.7521400  54.5291862
  17.0396881  25.7124863  54.9867058  17.8604164  24.0062351  54.0314598
  19.1401100  24.5532589  54.1496391  19.7564220  23.9367638  53.7475281
  17.6208458  22.8229332  53.3259277  18.4316025  22.2116394  52.9579620
  16.3293915  22.3482704  53.1849937  16.1586151  21.3537331  52.8001099
  11.7847004  22.4593582  51.8986244  10.8355064  22.8737011  52.5691605
  11.6272631  21.6505375  50.8388290  12.4478092  21.4016361  50.3051147
  10.3818483  21.1854630  50.2349396   9.5562725  21.5669441  50.8357773
  10.2625465  21.8111763  48.8259583  11.1936646  21.5225410  48.3383026
   9.3762493  21.4612083  48.2967110  10.1708899  23.2928028  48.6942863
  11.0546141  23.8276520  49.0422325  10.0171890  23.7232037  47.2450256
  10.0362720  24.8114090  47.1854515  10.8989124  23.3469563  46.7262764
   9.1804686  23.2163048  46.7643585   8.9507284  23.9165516  49.3819160
   8.0485182  23.4936695  48.9400024   8.8712149  23.8951225  50.4688034
   9.0323334  25.0009441  49.3074837  10.2249517  19.6390133  50.2169418
  11.2412090  18.9742737  50.1284676   8.9720840  19.1697807  50.1698914
   8.2068911  19.8281193  50.2041130   8.6782112  17.7347412  50.1518097
   7.6536579  17.5752525  50.4878998   8.9182329  17.1625633  48.6951675
   9.9903145  17.2479687  48.5178261   8.6150856  16.1210194  48.8018799
   8.2013674  17.9273186  47.5832329   8.7551985  18.8434582  47.3781509
   8.3198080  17.3479710  46.6675758   6.7604985  18.2783012  47.8418884
   6.0846210  18.4307823  46.7985420   6.2131386  18.4714108  48.9490089
   9.3407574  16.9511032  51.2791290   9.1859674  17.2427845  52.5252228
  10.0851336  15.8816795  50.9879646  10.3843498  15.8218164  50.0251656
  10.7930126  15.0873575  52.0266304  10.0928831  14.9520082  52.8510094
  11.0609665  13.6521540  51.6215172  11.8032789  13.4890127  50.8402023
  11.5017242  13.2085238  52.5142822   9.9137793  12.7548733  51.2382812
   9.5272808  12.9832973  50.2450294  10.3702564  11.7711897  51.1283035
   8.6602125  12.8298168  52.1735420   8.9097033  12.3101330  53.0986290
   8.2576981  13.8305569  52.3303947   7.5478487  12.0201597  51.4336586
   7.2520070  12.4770765  50.4893036   7.9079304  11.0163116  51.2084274
   6.3221207  11.8894777  52.2469521   5.6938949  11.1927156  51.8728485
   6.5302191  11.6118479  53.1954880   5.8020840  12.7547951  52.2171516
  12.0105534  15.7947140  52.6027145  12.3620224  15.4691973  53.7605247
  12.6765356  16.7681885  51.9599266  12.2119102  17.0092220  51.0961418
  13.7718191  17.6978016  52.4536552  14.5909204  16.9937782  52.6003685
  14.3152676  18.6491184  51.2888489  15.1102972  19.3309803  51.5906525
  14.6309681  18.0743332  50.4181824  13.4988022  19.3028412  50.9820442
  13.4076834  18.4168167  53.8201637  14.2798281  18.9711246  54.4394073
  12.1539993  18.4634686  54.2717018  11.4240770  18.0213146  53.7315025
  11.8141232  18.9844666  55.6081619  12.0409594  20.0472069  55.6931801
  10.2744503  18.7574749  55.9045868   9.7046843  19.2334709  55.1065254
   9.8311567  17.3096867  55.7872429  10.0058966  16.8979549  54.7932396
  10.2535725  16.8119431  56.6601219   8.7641840  17.2361679  55.9976349
   9.7638741  19.3635426  57.2065010   8.6763668  19.4118938  57.1508560
  10.1792707  18.6720314  57.9395485  10.0880318  20.3741913  57.4547119
  12.7349443  18.4735966  56.7153702  13.0047493  19.1723099  57.6514626
  13.3207531  17.2300186  56.5693207  13.0213175  16.6686001  55.7849464
  14.2883749  16.7450237  57.5366898  13.8173103  16.9925671  58.4879646
  14.3848400  15.2224684  57.5545921  15.0279617  14.8943357  58.3711853
  13.0546265  14.5012608  57.8839607  13.0883417  13.4645929  57.5488853
  12.7759981  14.5209961  58.9375610  12.3613911  15.0680113  57.2624168
  14.8194752  14.6451893  56.2005272  15.1466808  13.6139488  56.3331070
  14.1034536  14.8259516  55.3988152  15.6857719  15.2366238  55.9041672
  15.6636343  17.5428505  57.4702682  16.3997307  17.4373436  58.4519310
  16.0261860  18.3317623  56.5031776  15.2902842  18.3620186  55.8120651
  17.3257008  19.0363216  56.4187775  18.1081867  18.5075817  56.9630737
  17.8326073  19.1427517  55.0157852  17.1857529  19.8282909  54.4683189
  18.8043365  19.6282864  55.1058083  17.9421234  17.8428955  54.1541443
  17.0318031  17.2435513  54.1399384  18.1054058  18.3342190  52.6351280
  18.8092651  19.1631203  52.5601921  18.2590752  17.4313850  52.0440483
  17.1169167  18.7410831  52.4219360  19.1549053  17.0203171  54.5757599
  18.9810867  16.6594982  55.5895157  19.2365818  16.1900692  53.8742447
  20.0020390  17.6949425  54.4518967  17.2798996  20.3780594  57.1187744
  18.3153133  21.0091114  57.2712440  16.0369701  20.8928432  57.4002342
  15.1932793  20.3744526  57.2013474  15.9757452  22.3542271  57.6606789
  16.5974274  22.8033676  56.8861580  14.5408716  22.8872623  57.4252281
  14.5341949  23.9771938  57.4354973  14.0881033  22.5562038  56.4906082
  13.6740017  22.4789848  58.5637169  13.8810806  21.4262905  58.7562141
  13.9819231  22.9866161  59.4778290  12.2058411  22.6874771  58.3564491
  11.9582529  23.7257290  58.1354675  11.9357204  22.0427513  57.5201073
  11.5001249  22.1101971  59.4871140  11.2785435  21.1253014  59.5185204
  10.7645016  22.7692242  60.3344803  10.8136549  24.1019211  60.3863907
  11.3577175  24.5731659  59.6778526  10.4472475  24.6948929  61.1173019
   9.9598904  22.2652721  61.1851997   9.2720118  22.8583317  61.6270180
   9.9293718  21.2805347  61.4076118  16.6551590  22.7986374  58.9264679
  16.8440533  22.0731106  59.9187508  17.1701870  24.0677223  58.9312096
  17.3382874  25.0323372  57.7835770  16.4480724  25.3231030  57.2258377
  18.1016941  24.5332699  57.1867180  17.8685150  26.2682323  58.3707199
  17.0800858  26.9614849  58.6637764  18.4476490  26.7785530  57.6011238
  18.6318607  25.8693275  59.5600853  18.4535599  26.7180233  60.2204094
  19.6422710  25.7033882  59.1864090  18.0288734  24.5880775  60.0768585
  18.8678608  23.9371967  60.3229370  17.2529144  24.6952286  61.4175911
  17.8992367  24.7023182  62.4453163  15.9417953  24.7073116  61.3778229
  15.5119600  24.7241077  60.4640083  15.0749140  24.6127872  62.5567780
  15.6301184  25.2339897  63.2595978  13.7825575  25.3374825  62.2332230
  13.2142811  24.8260880  61.4562836  13.1831503  25.3202934  63.1434517
  13.9858751  26.8096123  61.9136467  13.8170547  27.3563538  60.8236885
  14.4025965  27.4443665  62.8763962  14.8885040  23.2082558  63.1653175
  14.2273397  23.0707932  64.2233353  15.5398359  22.1354847  62.6525726
  16.0427780  22.3198509  61.7963257  15.6210842  20.7951279  63.2690048
  14.9194746  20.6512222  64.0906677  15.2273636  19.7742920  62.2045937
  15.6944580  19.8520222  61.2228203  15.3604403  18.7483654  62.5479126
  13.7155809  19.9445534  61.7987213  13.5284100  20.9495258  61.4204369
  13.3028307  18.9784889  60.7498665  13.1800127  17.9810257  61.1718521
  12.3893375  19.4106331  60.3413544  14.0916195  18.9842148  59.9976158
  12.7733545  19.7173653  63.0159111  12.6496010  20.6555061  63.5569038
  11.7980471  19.2663002  62.8331146  13.2384205  18.9836369  63.6742897
  16.9648933  20.4815903  63.9137039  17.0869808  19.4623032  64.5350342
  17.9420414  21.3983517  63.9073753  17.6549854  22.2702255  63.4860153
  19.2928104  21.0454006  64.2054062  19.5636349  20.2394695  63.5233307
  20.2295952  22.2063046  63.7708435  20.1021996  23.0166245  64.4886551
  21.2457542  21.8134117  63.8048325  19.9085445  22.7325249  62.4931145
  20.7343998  22.7432079  62.0037766  19.5431919  20.7352848  65.6292267
  20.3504887  19.8271446  65.8722153  18.9513226  21.4172096  66.5803833
  18.3076267  22.1467743  66.3092957  19.0496216  20.8987770  67.9635315
  20.0181522  20.4433422  68.1699982  18.8955555  22.0260601  69.0057678
  19.5714874  22.8190536  68.6858063  17.8779793  22.4017944  68.8987274
  19.2343502  21.8299484  70.4763260  18.6987457  20.9339390  70.7900085
  20.7170391  21.6414795  70.7136765  21.2098122  20.7508526  70.3237228
  21.2110271  22.5039139  70.2661438  20.9281349  21.5272408  71.7769241
  18.7274055  22.9286346  71.4341888  19.2589912  23.8801632  71.4231567
  17.6803455  22.9582882  71.1327209  18.7026749  22.5821133  72.4673462
  18.0223064  19.8073750  68.2830811  18.2568989  19.0535564  69.2152252
  16.9219551  19.7119713  67.5239716  16.7677307  20.3171349  66.7301865
  15.9467258  18.6502476  67.7147217  15.6175261  18.7658958  68.7473679
  14.6914568  18.7673225  66.7761078  14.9004536  18.6989841  65.7085190
  13.7542791  17.6027336  67.0369568  13.6414928  17.4094429  68.1037369
  12.7967930  17.7829819  66.5482483  14.1583538  16.7338219  66.5175171
  13.9282541  19.9475574  67.1699142  13.4743843  19.7425022  67.9906235
  16.6844425  17.3668003  67.3618469  16.9272385  16.5467682  68.2150803
  17.3192654  17.1657429  66.1837463  17.1396885  17.8027821  65.4208298
  18.4574089  16.1798019  65.8311768  18.0190220  15.2011938  65.6356201
  19.3356171  16.6072807  64.6491318  19.7068310  17.6307106  64.7029190
  20.1041527  15.8439980  64.5272598  18.4828987  16.5725288  63.3735390
  18.1430092  15.5398521  63.2950745  17.6342411  17.2432575  63.5077095
  19.4074478  16.9164619  62.1975822  20.0771561  17.7697468  62.3048134
  20.0766068  16.1048622  61.9118652  18.4209366  17.1260414  61.0223846
  17.6501579  17.8588238  61.2611961  18.9515457  17.4908867  60.1429291
  17.6710930  15.9038954  60.6055832  17.6158066  15.7136993  59.6151924
  18.1838894  15.1103897  60.9626465  16.7651005  15.9174900  61.0517807
  19.3729095  15.9301834  66.9931870  19.5075245  14.7959986  67.4658356
  20.0083790  16.9657307  67.5607529  19.8953266  17.8400345  67.0678864
  21.0054169  16.8391781  68.6855240  21.6903477  16.0188332  68.4710388
  21.9144287  18.0755234  68.7477417  21.2998753  18.9284382  68.4597168
  22.2400856  18.2445774  69.7741318  23.0922203  17.8912296  67.9583435
  23.0403214  18.0803776  66.7787704  24.1597977  17.3837337  68.5931778
  24.0138893  17.1212063  69.5574875  25.0700169  17.4230003  68.1572189
  20.3892536  16.4829636  70.0571289  21.0736752  16.6333618  71.0753860
  19.0544338  16.1880894  70.0997086  18.5359135  16.2419453  69.2346420
  18.3123627  15.9802294  71.3374939  19.0059071  15.7225657  72.1379318
  17.5337677  17.2932606  71.6401978  16.9639912  17.6099606  70.7666092
  16.6064854  17.1953335  72.8976059  15.8596649  16.4058590  72.8134613
  17.2108936  17.1597042  73.8039856  16.1110325  18.1545105  73.0479507
  18.4624043  18.3418884  71.8560181  18.4372444  18.7853584  71.0049591
  17.3079643  14.7926483  71.1313171  16.9492359  14.1446056  72.0764542
  16.8684559  14.3941431  69.9317780  16.9946270  15.0368977  69.1629868
  16.0441532  13.1774263  69.5910110  15.0999737  13.2693357  70.1278458
  15.6312943  13.2441769  68.0933228  14.8945122  14.0376759  67.9683609
  16.5625801  13.4372883  67.5608673  14.9152203  12.0014143  67.5367584
  14.9325523  11.9622068  66.4476013  15.4023762  11.0800543  67.8559341
  13.4391251  11.8416014  68.0246735  12.8351707  10.7737885  67.6732483
  13.0287981  12.6438646  68.8883896  16.8432884  11.8995571  69.9003143
  17.9995823  11.7205610  69.4007034  16.1516628  10.9696770  70.6518250
  15.1555738  11.1295061  70.7004089  16.7674847   9.6026487  70.8860321
  17.8183060   9.7372541  70.6295853  16.6411591   9.1813555  72.3266983
  15.5846519   9.2414255  72.5880127  16.8924522   8.1221313  72.3815155
  17.4952450   9.9912453  73.2569046  17.3318405  11.0234299  72.9470749
  17.1948471   9.8354254  74.7146301  17.6753159   8.9215145  75.0639343
  17.4698162  10.6503019  75.3843079  16.1202126   9.7406492  74.8704453
  18.9707184   9.7440357  72.9124603  19.4842701  10.0638599  73.8191452
  19.2058010   8.7162609  72.6358490  19.2196007  10.3551559  72.0448837
  16.2820244   8.5018682  69.9338913  15.1138849   8.1647511  70.1624985
  17.1130829   7.8774495  69.2455292  23.7556858  21.0582199  29.4274521
  23.2737198  20.1117134  29.6627483  24.8209782  21.1227646  29.2164803
  23.0596371  22.1862812  29.7372169  23.7218494  23.5408325  29.5507545
  23.1736870  24.5602989  29.7724705  24.9084015  23.6685925  29.4129791
  21.7781963  22.1808701  30.2812748  20.6781597  22.3057575  29.4528198
  19.7980328  22.3578529  30.1053925  20.6325073  20.9866009  28.7503948
  20.9333153  20.0877705  29.2843819  19.8451576  20.8595982  27.5738850
  19.3185158  22.0729504  26.9379559  18.5831661  21.9070644  26.1530113
  19.7017632  23.3278790  27.3317451  19.3183784  24.2508984  26.9021206
  20.7193737  23.4508705  28.4377441  21.6860104  23.4541397  27.9192924
  20.5799294  24.6846066  29.0807438  21.4598446  24.7427559  29.4919567
  19.6196194  19.4954567  26.9314594  20.0237446  18.4511070  27.5092659
  18.8115196  19.4275208  26.0638008  44.7725716  22.1325054  40.3852463
  45.2158279  21.3625088  39.7574310  45.3437538  23.0404396  40.5667229
  43.5490417  21.9023170  40.9509811  42.9446907  22.9102192  41.9630318
  43.3911743  24.0180588  42.1736565  41.9827042  22.6118641  42.5927010
  42.7344360  20.8125782  40.6507797  41.9309425  20.7620106  39.4393463
  41.3895493  19.8086586  39.4739914  42.8316460  21.0188560  38.1855316
  43.4605980  20.1792030  37.8975563  42.9954414  22.2495899  37.5948601
  42.1898422  23.3021946  38.1594391  42.4095078  24.3348713  37.8953857
  41.1714249  23.1064873  39.0291824  40.7269402  23.9649925  39.5281105
  40.7610092  21.7868614  39.4692307  40.3628769  21.9734592  40.4741516
  39.7085037  21.2494488  38.6665611  39.2443924  20.6199741  39.2454376
  43.8592949  22.6330490  36.4595337  44.8143387  21.8971691  36.1781693
  43.9681511  23.7955418  36.1003571  20.9683495  21.2261581  55.3276749
  20.7090416  22.2745724  55.4585037  20.8853874  20.5275192  56.1574631
  21.1803246  20.8028526  54.0559998  21.3260727  21.6963291  52.8472023
  21.0209045  22.8699951  53.0278091  21.6558094  21.3199215  51.7028008
  21.3789806  19.4342709  53.8648415  22.6993504  18.8273754  53.9149513
  22.6801338  18.0640125  53.1274872  22.9697609  18.1926422  55.2622604
  22.0995541  17.9282246  55.8592072  24.1776905  18.0169582  55.8656197
  25.3508625  18.5255337  55.1907234  26.3147640  18.5294361  55.6959686
  25.2426682  19.3543854  54.0945625  26.0819626  19.9117908  53.6841812
  23.7904625  19.7861767  53.5728455  23.5516090  20.7886639  53.9485550
  23.9245319  19.7765408  52.1237755  23.1688595  20.3263741  51.8529015
  24.2799950  17.3198051  57.1815948  25.3477001  17.4045143  57.8732567
  23.1992111  17.0243320  57.6391411   7.4311714  43.7296104  22.9383316
  19.4719372  55.5134583  38.8497467  54.9010048  46.8713379   0.1953387
   7.5780292  65.8520660   5.5798793  72.5197906   3.6247802  58.8257713
  80.7015381   1.7030065  43.1705322   9.2076283  71.2567520  73.1286926
  14.2826576  68.9407043  40.8218651  75.4078522  44.9670410   0.9476160
  80.7918167  49.2860413  51.1134491  81.0214844  49.0438690  50.2163239
  81.1217728  48.5640755  51.6483574  25.5529518  31.5678864  70.4610825
  26.4141273  31.6989021  70.0642853  24.9648209  31.4332714  69.7179718
  13.2580643  68.9436035  76.7547455  13.5796843  68.6585922  77.6100616
  13.8444347  68.5227966  76.1259918  50.9689484   3.1436124  79.5369492
  50.2857971   3.4764545  78.9549255  51.7482529   3.0873997  78.9839859
  52.5676804  52.2168999  67.7430038  51.8987045  51.5607147  67.5477448
  53.3568687  51.8903084  67.3108521  63.4394951  49.2485542  50.9619408
  63.3599434  50.1576347  50.6730156  62.7703743  49.1532364  51.6397514
   2.9445977  21.6217937  68.4912872   3.2443712  20.7377014  68.2797470
   2.6784844  21.9922409  67.6497574  52.2053375  29.6446075  26.7964478
  51.6181068  28.9941826  27.1815891  51.7427483  30.4761600  26.9001846
  62.6965256  11.9164391  70.8977966  63.5816345  12.2146654  70.6883240
  62.1432037  12.6823502  70.7446671  51.8349648  48.4495430  68.2472992
  51.1182976  49.0840569  68.2440872  51.9670830  48.2327766  67.3243790
   1.2927133  42.1891174  42.1780243   1.9442463  41.7917252  41.6002579
   0.7117709  42.6702805  41.5887718  76.1850281  47.7058640  62.2158813
  76.5589294  47.7359657  63.0965233  75.3633347  47.2262459  62.3208160
  57.9380379  66.0152206  27.5796185  57.1904869  66.2519760  27.0306664
  57.8679199  66.5910034  28.3410606  14.2320395   3.7713385  68.1755600
  14.2012682   3.5054369  69.0945740  13.9344912   3.0000937  67.6929855
  57.9539337  20.4896278  84.9445190  58.5907516  19.7908554  85.0942230
  58.4632339  21.2970009  85.0151749  51.5135078  24.2552032  83.6665573
  52.0570831  23.5004826  83.8927307  51.5778465  24.3197613  82.7137070
  40.5267601  55.6246490  19.9284286  40.2477074  55.0478897  19.2172928
  39.8257370  56.2724152  20.0005322  71.2582626  23.5084343  48.6170807
  70.6708145  22.8616962  48.2261047  71.5924301  23.0822544  49.4063454
  56.6253357  62.3824921  58.4784584  56.6070213  62.8998451  59.2835960
  57.5556641  62.2294769  58.3131981  28.6091061  59.2536049  23.2716141
  29.0536518  58.5336418  22.8241043  29.2414989  59.9719887  23.2563686
  55.8042450  25.3156281  65.2901382  56.5276108  25.8156052  64.9119949
  55.0714188  25.4656181  64.6928940  80.4931641   9.5653410  31.4499626
  79.6380081   9.9719725  31.5899143  80.3479614   8.9407701  30.7392864
  71.2310104  18.5256977  67.3665390  70.8137360  19.0405788  68.0572052
  71.9051514  19.1044464  67.0104370  32.5001793   7.9658732  64.8016891
  33.0279541   8.2485962  64.0548553  32.8325539   7.0935335  65.0133133
  64.4803696  32.4006386  75.1667404  64.9856567  32.4782906  75.9759979
  64.3063126  31.4632130  75.0820694  43.3878136  39.7461014  69.6161270
  42.9118004  39.6403084  68.7924423  42.9842873  39.1122208  70.2090759
  38.4320984  29.9506378   2.9402850  37.6884232  30.3999062   3.3419526
  38.3737755  30.1742630   2.0114026   0.9324911  57.5989380  10.0937996
   0.4468032  56.7788620  10.1822195   0.9861755  57.9428444  10.9854717
  66.0582581  44.4641380  12.3577442  66.9886780  44.4567566  12.1330194
  65.6468811  44.9715004  11.6580429  75.8342819   4.5364680  18.1709442
  75.9055252   5.0891328  18.9492226  76.6293564   4.7225194  17.6714706
  20.2876301  46.5049248  70.9272537  20.2704964  46.6985092  69.9899902
  21.1050186  46.8946800  71.2374191  52.9329414  50.6397133   8.2860041
  53.8016624  50.5540924   8.6787167  52.3323555  50.6423187   9.0313387
  70.2552032  64.0424423  66.3683472  70.4685211  63.3105354  66.9471741
  71.0206757  64.6152878  66.4145126  43.5191269  54.2353706  25.7887421
  43.8040352  53.5849724  26.4306431  43.3140030  55.0119133  26.3094521
  36.6807060  23.8440762  85.2074890  35.9513092  24.1071453  85.7687378
  37.4443741  24.2778130  85.5881653  23.6023064  71.4482574  56.8160019
  23.1650429  71.5011520  57.6658478  22.8959923  71.2751617  56.1935959
   2.8976278  35.8513603   3.6019895   3.1159935  35.0731392   4.1147432
   2.2907262  36.3412628   4.1568751  19.4130955  51.2369537  43.9021187
  20.0638618  51.7583809  43.4321747  18.6460114  51.2386131  43.3295670
  73.9323349  57.4227829  13.2615519  74.0299454  56.8264313  14.0038939
  73.2309341  58.0189781  13.5238895  85.9097900  10.1924868  63.5408974
  86.0218658  10.7811041  64.2873535  84.9635773  10.0618210  63.4788704
  49.9132500  22.8438206   7.8347640  49.8061905  23.6892300   7.3988142
  50.1203575  23.0668430   8.7422867  81.5510101  22.3503380  79.9441528
  80.7646179  22.1468353  79.4377975  81.7232361  21.5554771  80.4488983
  52.6187515  36.4080315  61.6490593  53.2216911  37.0009460  61.2005730
  52.1233940  36.9733810  62.2417107   8.3674345   7.7482176  17.4185829
   9.2362518   7.8000827  17.0202103   8.1909075   8.6377363  17.7248917
  72.2033463  63.9010696   9.9243402  72.1401215  64.6641312   9.3499060
  73.1174393  63.8900146  10.2081442  54.0804863  -0.3691092  48.7886238
  54.7476730   0.3170558  48.7721863  53.2510185   0.1047500  48.8492393
  51.2502098   8.5821171  53.9096680  50.4487953   8.5011463  54.4267845
  51.9057770   8.0915928  54.4054985  36.8752670  65.3491440  85.3677673
  36.8135948  64.7938461  86.1449890  37.7066956  65.8123550  85.4697113
  65.8395157  66.7990417  84.0498352  65.9605484  66.0361252  84.6151123
  64.9318771  66.7353058  83.7525711  76.3727188  29.5581341  30.1091118
  76.2778091  29.4930038  29.1588593  77.3185806  29.5798721  30.2544117
  48.1697731   4.0519152   2.8081636  47.7685051   4.9152484   2.9075217
  48.6615486   4.1092138   1.9889531  68.6088257  54.6977119  83.9198380
  69.4453735  54.2358170  83.9753265  68.5088730  55.1157608  84.7751007
   7.3043656  28.8278294  16.3103619   6.4222560  29.1060638  16.0639915
   7.3021283  28.8442039  17.2674198  60.5002098  20.0230961  74.8011093
  59.6767464  19.5967941  74.5636139  61.1685448  19.3551502  74.6481018
  59.4955101  23.9073677  30.0252075  60.0580139  24.6522961  29.8133011
  58.6062431  24.2287941  29.8764896   4.7913051  18.9149857  65.8563080
   4.0048270  18.5954227  65.4140854   4.9352393  19.7869587  65.4886398
  70.3669205   4.3698168  42.5007935  70.1847610   4.7256246  41.6310501
  71.2754288   4.6159096  42.6747856   4.7924371  14.1031542  70.5422592
   4.8231177  13.7537155  69.6516495   4.0490327  14.7061129  70.5374908
  62.6431541  70.3465195  17.6940937  63.5596123  70.4623413  17.4432507
  62.3120003  71.2371750  17.8094215  40.3241081  48.8411217   0.9923695
  40.0005760  49.4314537   1.6728618  40.8965187  48.2307320   1.4571279
  67.6877594  51.0867500  53.8393364  67.0823288  51.4940338  54.4588509
  67.2307968  51.1227570  52.9990234  77.8254929  53.3127937  58.3984070
  77.7653961  53.0108719  59.3047523  78.6929855  53.7125549  58.3361397
  78.2328491  28.1268215  34.0341301  77.8451691  28.8573647  33.5522118
  79.1492462  28.3769817  34.1518860  62.5758247  28.9906025  45.7271042
  63.5085220  29.1232853  45.8965378  62.1369400  29.3862495  46.4801445
  77.3025513  46.2314072   7.1700830  77.0473099  46.3379173   8.0864553
  78.0765915  45.6691437   7.2008524   6.8963366  17.1808624  86.1875000
   5.9977875  17.2900848  85.8761978   7.3062110  16.6075764  85.5397568
  70.0054016  37.9871597  49.4011497  70.4459686  37.9424629  48.5525436
  69.5201797  38.8118744  49.3759651  86.6434937   9.2962627  27.4845810
  86.2730331   8.7070103  26.8274879  86.1469040  10.1085005  27.3850727
   6.6941872   5.1665363  47.2826920   7.1594205   4.4512610  47.7164803
   7.3874741   5.7192230  46.9219666   1.8442969  15.2959509  23.0796547
   2.7912755  15.2972422  23.2191620   1.4991981  15.8576660  23.7736397
  85.5927963  43.5700874  18.9167309  85.3684692  42.7238083  19.3036747
  85.4178009  43.4600449  17.9821186  66.1149902  56.0272789  31.4597588
  66.6016846  55.6072998  30.7505474  66.7525635  56.1156387  32.1682243
  52.5150757  54.9173317  48.9599571  52.2167969  55.6859055  48.4735870
  52.5079460  55.1957932  49.8757324  49.5267296   4.8425035   5.3655386
  49.7244835   5.7227349   5.0456672  49.0213013   4.4391360   4.6597972
  67.2308807  16.2156811  23.7609482  66.9412994  16.7439747  24.5047779
  67.9580383  16.7110386  23.3839970   4.9002872  34.2883835  82.8650513
   4.7262096  34.3529663  81.9260330   5.4861817  33.5360947  82.9488449
  38.9155312  60.9753532  69.0720139  39.1992722  60.0808029  69.2604294
  39.7230797  61.4892120  69.0787964   5.9069786  50.4184265  37.4849930
   5.0564237  50.2377701  37.8851814   6.1239061  49.6157303  37.0108070
  64.0345078  50.4166679  23.6738682  64.4451294  51.1636848  24.1092892
  63.1794281  50.3337364  24.0959930  20.2940693  69.6883392  78.9182510
  20.2922153  69.8931274  79.8532867  20.6768703  70.4619141  78.5043945
  58.5643692  49.4564247  12.9251738  57.6417923  49.6070786  13.1310482
  58.8965759  50.3172035  12.6703682  45.5999565   8.5375614  11.4679279
  45.2424812   9.2185116  12.0377951  44.8959312   7.8932829  11.3938560
  86.3033981  51.1049690  28.6025524  86.1255417  52.0362244  28.7343102
  85.7894135  50.8699226  27.8300190  48.8289032   3.3048296  46.7205963
  47.8756485   3.3659019  46.7823410  49.0735970   3.9942901  46.1033440
  14.2616339  41.2028046  33.3600464  14.7812443  41.9736595  33.1319733
  14.8860502  40.4776802  33.3370132  10.2466373  26.0618629  62.2740669
   9.7640152  26.8884678  62.2797699  10.3579044  25.8430920  63.1992645
  60.6114044  35.9312820  86.2506638  59.7626190  35.5276756  86.0692902
  61.2517586  35.2662888  85.9977646  35.1152420  59.6557083  17.3594227
  34.5357018  59.5100822  16.6116543  34.7552643  60.4286003  17.7944889
  39.1375084  25.1033821  85.4908447  39.7497406  24.8954887  86.1966629
  39.2237930  26.0489559  85.3696976  20.6234856   0.3816149  40.2219963
  20.5820866   0.5409991  39.2790680  20.4115143  -0.5469221  40.3174896
  45.3089027   4.6419673  62.5817413  45.0398903   5.5447812  62.4120598
  44.4995956   4.1926818  62.8254547  65.7605896  21.1393967  55.5635872
  65.5322495  22.0503693  55.7485809  65.7662582  21.0831966  54.6080551
   7.6284628  33.1240578   8.8111229   8.3430319  32.6520081   8.3835773
   7.6636567  32.8366585   9.7234793  49.1884155  13.6698170  78.6476517
  48.3827400  13.9018993  78.1858521  49.0373955  13.9524374  79.5496216
  65.5146103  47.6820679  75.1724930  64.9982681  47.8385582  74.3818436
  66.1291122  48.4152031  75.2062607  27.0068455  51.4014282  12.2439814
  27.1317120  51.5431099  11.3055964  26.2282715  50.8475342  12.3010626
   1.9734048  53.4484825  41.0557785   1.2592309  53.0331154  40.5723953
   2.4596822  52.7184372  41.4389267  25.7005672  68.7065048  79.1813507
  25.6372490  68.4060135  78.2747498  25.8200130  67.9053879  79.6914215
  80.9109268  24.0392532  70.1450043  80.4314041  24.5899048  70.7639313
  81.2444458  23.3162251  70.6762619  57.8455429   3.6741517  39.5000839
  57.0433235   3.4400556  39.0333176  58.3276749   4.2271442  38.8852806
  11.3924294  69.7407990   4.1353030  12.2766943  69.9723129   4.4193916
  10.8180828  70.2920532   4.6667881  48.0894966   0.5916275  44.6619987
  48.5003242  -0.1421845  44.2048607  48.6404724   1.3449357  44.4494362
  80.2736282  61.6534615  40.6694031  80.4503098  62.1341743  41.4780617
  79.4500732  61.1956749  40.8379745  72.0041275  33.6011314  15.7089844
  71.3003922  33.8443604  15.1074629  72.0688934  34.3405838  16.3133450
  29.9552059  21.2725067   9.7302656  30.6145267  21.2161522   9.0386362
  30.2917709  21.9399090  10.3282051  77.5370865   6.1947598  30.0367756
  78.0769882   5.7517223  30.6913414  76.7543869   5.6487727  29.9625702
   0.2988321   3.1162038  29.9595432   0.2809450   4.0712905  29.8985386
  -0.5684971   2.8809712  30.2891445  78.4604187  52.7278557   1.3629911
  79.2589493  52.9147301   0.8693683  78.1825790  53.5794487   1.7003670
  25.9118671  64.9476013  44.6468887  26.3928223  65.7629013  44.7889938
  25.5913677  65.0122757  43.7472610  58.4928627  58.4884033   6.1480269
  58.6390724  59.3495064   5.7564230  58.7392845  57.8682442   5.4617972
  50.5601387  30.4564152  32.5577583  51.4551773  30.7267838  32.3527107
  50.0078545  31.0984211  32.1116180   6.9240255  31.4875889  84.7172012
   6.1010957  31.8095856  85.0850830   7.0043797  31.9401932  83.8776016
   4.1465492  29.8711510  73.7140656   3.5215178  30.5625515  73.9320908
   5.0028343  30.2525558  73.9078140  58.2699585  51.3596687  10.0277576
  58.7346916  51.8372231  10.7149258  58.8627892  50.6473389   9.7882366
  26.7628002  11.8477345  68.4900665  26.7536507  12.6384716  67.9507294
  26.1663456  11.2465744  68.0438843  74.6119385  52.4752426   8.0059929
  74.8201218  51.8751526   8.7220821  73.6793594  52.6621590   8.1135912
  60.1403580  38.6739311   1.9736198  60.6085892  37.8736076   2.2112553
  59.8041039  38.5024796   1.0939783  43.8923569   3.7528603  10.6793022
  43.9878693   2.9256577  11.1513672  43.7936363   3.4955018   9.7626495
  61.8648186  14.3650322  30.8854618  62.3410530  15.1952486  30.8986149
  62.5483131  13.6978006  30.8232555  24.4837074   7.8749485   4.9970136
  25.0371284   8.2587194   4.3168092  24.2829380   6.9962082   4.6749282
   4.6284003  69.2666702  47.4534340   5.4729924  69.1106110  47.0308914
   4.7542586  70.0760880  47.9486351  31.1292515  14.5255375  79.0266724
  31.6070957  14.3808289  78.2099991  31.6238651  15.2113504  79.4752808
  73.4065781  21.3511829  43.9535446  72.8551941  20.7623920  43.4382439
  73.3252182  21.0306149  44.8517914  65.3975601  68.2309265  49.3282776
  64.8826752  67.9776001  48.5621529  64.7644043  68.2527695  50.0458221
  21.5725994  57.4453926  26.1833935  22.4713516  57.7004280  25.9749928
  21.6633339  56.6310768  26.6782570  33.5155296  28.6129017   2.1075356
  34.2681122  28.6721554   1.5190266  32.8025818  28.2952900   1.5534062
  80.7892303   3.7471585  14.0076294  81.1616669   4.5822392  14.2907600
  80.4722672   3.9148836  13.1201429  67.0917892  63.7132797  40.0646172
  66.7616425  63.7154121  40.9630737  66.3053970  63.7534447  39.5203743
  29.5166492  53.2773857  12.9910278  28.5762691  53.1814804  12.8402910
  29.8587265  52.3845329  12.9459438  41.5439110  39.8496666  67.5173187
  40.6146889  39.6505432  67.6318893  41.6615944  40.6978989  67.9449692
  73.3296051  68.5503235  72.7519379  73.3063812  67.5935287  72.7366028
  74.1461792  68.7628708  73.2038956  27.9769707  15.7095089  11.7000418
  27.3564129  16.4336510  11.6178284  28.0566616  15.5683060  12.6434097
  10.4135141  54.6017418  63.2867165  10.6017246  54.5704193  64.2247086
  10.5047312  55.5259438  63.0548592  79.4194260  71.4453888  37.7513390
  79.5451813  71.0305176  38.6047440  78.4750977  71.4023514  37.6009331
  77.3320084  54.5178680  19.1645470  77.0655289  55.0556946  18.4189186
  77.8571472  55.1052856  19.7080555   0.8214499  60.7721481  54.0664864
   1.3183531  61.5878372  54.0034676   0.7665930  60.5970840  55.0059433
  10.6284237  44.6457062  54.8324928  11.1300125  44.0267830  54.3018570
  11.2697420  45.0157661  55.4391212  38.0937614  34.6440392  18.9752045
  37.6651115  35.0505409  19.7283630  38.8132629  35.2375259  18.7599773
  35.3246002  39.9903450  12.1030159  35.9482384  39.9053497  11.3818464
  35.4016953  40.9033508  12.3799791  83.3172989  68.1819687  36.2810287
  83.9713669  68.8042831  35.9629898  82.6696472  68.7243195  36.7311783
  55.8882141  26.5112457  55.7229996  56.5360870  27.0798836  56.1391106
  56.3826256  25.7330475  55.4657097   9.0684795  18.2627831   9.9794922
   9.5551138  18.8504753  10.5574512   8.1934700  18.2181263  10.3649740
  20.4495125  39.4368324  74.9352036  20.0469437  39.7170219  75.7571945
  19.7120152  39.3099632  74.3383560  32.7303886  46.2176056  34.1695786
  32.9799309  45.3228111  33.9387093  33.5110283  46.5844421  34.5846291
  28.1172142   2.9779472   8.6096220  28.0143452   2.2459805   8.0014496
  27.4104023   3.5812294   8.3800631  74.1581421  32.5480957  87.8242722
  75.0555191  32.6429367  87.5049667  73.6116943  32.7176971  87.0569000
   7.1783295  24.5047779  85.8455200   8.0390797  24.7992802  85.5478439
   7.3129735  24.2574825  86.7603683  56.9203339  49.1987877  26.2840786
  56.5488777  49.7311020  25.5805931  56.9288635  48.3087387  25.9319839
  35.3418694  63.0786095  64.8273621  34.5858688  63.6279259  64.6201248
  34.9950905  62.4044571  65.4117355  78.7264252  56.4318085  20.5757694
  79.6752243  56.4832420  20.6913338  78.3938217  56.1765289  21.4362583
  53.8484230  62.3039589  39.8868561  53.8124237  62.5336571  38.9583206
  54.7823372  62.3004303  40.0966797   3.1209278  48.0885315  53.5596809
   3.6697969  47.7208176  54.2523270   2.2255771  47.9786186  53.8798332
  41.0014648  66.4422455   7.1801624  41.9172668  66.1696930   7.2372346
  40.5352287  65.8376999   7.7575574  23.0978184  51.8434067   0.9408728
  24.0323124  51.7751961   0.7451710  23.0348949  52.5726471   1.5577068
  58.0513344  58.9515152  86.2044830  57.6245079  58.1603966  86.5333939
  58.9164085  58.9449043  86.6141586  80.9731674  56.5516472  70.6864548
  81.3154831  57.3406105  70.2662354  81.1379623  55.8525543  70.0537262
   3.5448232   4.0472031  52.6206703   4.4318485   4.3840294  52.4943123
   2.9812400   4.8150172  52.5254517  26.5309258  50.7259712  28.5421238
  26.0713692  49.9518852  28.2168102  26.8109894  50.4848022  29.4250927
  71.8426590  36.7980118  14.1655416  72.3538589  37.6067047  14.1352272
  72.3580322  36.2094078  14.7170591  79.4417725  24.0050983  65.4155960
  79.9284821  24.3976784  66.1403275  78.7756958  23.4640446  65.8396606
  86.7672272   6.0987396  73.1756134  86.1634827   6.6594491  73.6627808
  86.2029800   5.5822654  72.6001892  55.5590286  68.0396805  19.3841038
  54.7997284  67.4582062  19.3444443  55.3242645  68.7787857  18.8229885
  18.1016483  69.4256821  43.5382423  17.3569698  69.7451935  44.0477524
  18.5610332  68.8318939  44.1320572  76.7358627  12.9461603  37.9363747
  76.5990219  13.8623838  37.6954536  75.8892975  12.5281019  37.7789268
  82.6870651  55.2121391   8.1195059  83.3937073  55.4351921   7.5135918
  81.9696503  55.7974358   7.8766575  84.2737656  18.2603951   7.8299756
  85.0702896  17.7419395   7.7160144  83.7208786  18.0163345   7.0876923
   4.6277928  20.7888451  53.2500343   3.9641557  21.4758396  53.1879311
   4.6037822  20.3548431  52.3972168  80.6271286  64.8757477  28.4788799
  80.5372543  64.1587296  27.8511505  80.1509323  65.6041565  28.0802650
  14.8479500  27.7286205  11.2573080  15.7452536  27.4630032  11.4586182
  14.7005987  27.4171429  10.3642788  81.8093948  71.8804016  61.5890388
  81.3437042  71.6268845  62.3859673  81.4507217  71.3090210  60.9099960
  21.2630978  22.0706615  86.8596954  21.8882561  22.7954865  86.8657227
  21.8056202  21.2858028  86.9364929  21.7309685  12.8906555  56.2758560
  22.6543980  12.6709909  56.1523361  21.3353004  12.0845842  56.6074142
  84.5056152  22.9618912  72.1419449  84.0812302  22.6854115  71.3297348
  84.7432404  22.1438618  72.5785141  13.3398905  60.3242188  12.4629993
  13.1822910  59.6930962  11.7608032  14.2572384  60.1921539  12.7022982
   2.7101090  39.6086121  59.7042046   3.1801789  39.8393860  60.5054588
   2.0303562  40.2777596  59.6241417  23.9926739  67.0456238  45.9571838
  23.6852207  66.2138596  46.3175659  24.7848148  67.2447052  46.4562950
  21.2307587  34.7837639  88.2240753  20.6473351  34.0344925  88.1039047
  22.1025524  34.3974953  88.3077621  83.3395691  12.2305574  19.2145271
  83.5898666  13.1033173  18.9114189  83.2042007  12.3338270  20.1564617
  16.3393917  47.1770325  48.8337059  16.8394566  47.4505806  48.0647240
  16.2983036  47.9595261  49.3834801  15.1998596  66.3800659  81.7304001
  15.7788620  65.6221161  81.6497879  15.3764400  66.9007645  80.9468689
  60.7732048  42.3242683  42.7912064  60.0944138  42.9834747  42.9358253
  60.6172752  41.6671181  43.4694901  17.3488636  56.5063629  37.2711983
  17.4910030  57.1717873  36.5979691  16.6987267  55.9157715  36.8907280
   2.4037764  64.2334366  32.8950386   3.1649475  64.5555649  32.4122543
   2.4243867  63.2847404  32.7693977  64.7172546  49.5424156  34.8042488
  65.3615265  49.1162224  34.2390060  65.2005997  50.2538414  35.2243500
  12.5206871  52.7367668  77.6348953  13.3466444  52.3333435  77.9018707
  12.5617619  52.7564087  76.6787796  71.9128723  48.0332947  37.5652809
  71.5388565  48.2738876  38.4128990  71.1699524  47.7012787  37.0612297
  58.6052208   5.8918099   9.0221767  59.5148354   5.9910436   9.3032150
  58.1362991   5.6330414   9.8155127   4.6881037   3.5121503  76.2493591
   5.0735316   4.3249593  75.9222183   5.3584089   2.8478334  76.0893402
  51.1437569  14.0779314  88.6265335  51.0096054  14.9900894  88.8838272
  50.4907265  13.9230633  87.9440384  58.3441315  62.9026985  15.4482698
  58.8708267  63.6934090  15.5649195  57.5586929  63.2033730  14.9912004
  19.6935825  42.5095329  68.7702713  20.2426014  42.3279953  68.0074768
  18.8247910  42.1949005  68.5203934  61.2272797  63.1793289  69.4968262
  62.1228943  63.2881393  69.1770401  60.7652130  62.7534904  68.7747574
  48.3851585  48.2466812   0.0516680  48.9026909  48.3384209   0.8516538
  48.3698997  49.1261368  -0.3258959  44.2002449   6.4894691  37.1706810
  43.3889389   6.1324024  36.8094063  44.8309708   5.7732663  37.0967216
  74.6112595  16.8575668  25.8992081  75.2049408  17.4722080  25.4679413
  73.9759903  17.4141846  26.3495827  55.6671486  66.8883667  64.7561646
  56.0533104  67.7596588  64.8453827  56.3754501  66.2876053  64.9877319
  27.7033939  60.2191544  34.0308533  28.2329025  59.4228935  33.9882164
  26.8376217  59.9476662  33.7259483  30.9905491   9.1568003  81.6168747
  31.4397335   9.3637028  80.7973251  30.4715500   9.9377222  81.8093109
  57.7212105  10.4689054  13.9373598  58.1433372   9.6615801  13.6436481
  57.5440636  10.3222189  14.8665171  41.2204323  17.5962696  74.5770645
  41.4413185  16.7216530  74.2569275  41.9600143  18.1425743  74.3109818
   2.6786668  44.7434158  84.5811539   1.8973585  44.2256622  84.3869324
   3.2491651  44.1445694  85.0629730  23.5700855  32.6392822  68.5860367
  22.7544270  32.5275497  68.0977249  24.1387520  33.1306305  67.9932251
  60.9475594   4.4537759  20.2126522  61.6929169   3.8535156  20.2315426
  61.1233101   5.0305505  19.4692307  75.6720505   4.8950777  53.8235474
  75.8246078   4.1945629  53.1893234  74.7199936   4.9904461  53.8506813
  85.3046341  10.3305950   0.0845875  85.7248383  10.3960123   0.9421322
  85.3352203  11.2208891  -0.2656604  62.9141464  15.7938604  38.5816727
  62.2715836  16.4798679  38.4007454  63.7204781  16.2683125  38.7840538
  73.1869049  28.2442837  62.1354790  73.9049149  28.5015163  62.7138634
  72.8643951  27.4223080  62.5050354  61.8069382  48.0887222  84.4106750
  61.9661369  47.3601112  85.0106888  62.5694046  48.6575546  84.5170288
  54.4404144  38.4669685  52.9969749  54.9313087  39.1469193  53.4584084
  54.2195511  38.8617249  52.1534004  63.9264946  34.5519524  67.1410980
  64.8040085  34.1743431  67.2011795  63.9204063  35.2492638  67.7968063
  57.7581978  10.5622320  82.8795853  57.7969589  11.2785749  82.2458801
  57.3138847  10.9383955  83.6393967  56.7086258  53.3332710  79.4360123
  57.0852547  52.6843681  78.8416214  56.2483177  52.8148537  80.0960083
  23.8776093  60.3534012  51.6164360  23.7803078  59.6075325  52.2084160
  22.9982014  60.7262611  51.5544014  80.1367874  14.7871675  25.9431477
  79.2984772  14.3256550  25.9648399  80.2747879  15.0756598  26.8453445
  51.9531784  29.6238689  63.7696304  52.2465782  28.7841663  63.4160118
  51.2333488  29.8868923  63.1961327  14.4233322  70.8276749  48.6426964
  14.0043507  71.5558243  49.1014824  15.2646761  71.1798935  48.3523216
  26.8679924  45.9310760  55.5416641  27.4234352  46.3864937  56.1743660
  26.2809696  46.6089172  55.2067490  34.2377701  50.6848907  27.0862789
  34.3422966  49.7334976  27.0736427  33.3230400  50.8220940  27.3325996
  66.3618317  28.5716686  21.8940334  66.6244965  29.1652317  21.1905231
  66.1265564  27.7589684  21.4463825  37.4215775  38.8125992  79.8058395
  37.2145424  39.7339554  79.6494064  38.1595993  38.6308250  79.2240219
  36.3308830  19.9134693  64.2374191  36.9827843  19.3194351  63.8654251
  35.6564865  19.3356590  64.5945740  47.7509689  10.3038731  84.3736115
  48.4559479  10.0030794  83.8002319  46.9546471  10.1875725  83.8553696
  70.8590698  41.3496246  42.5093155  70.2491760  41.0029221  41.8581200
  71.1366425  42.1932449  42.1522560  62.9367065   1.8788100  73.6189728
  62.4881020   1.2650213  74.2005692  62.2360992   2.4212673  73.2568665
  66.0340958  29.7459488  72.1528778  65.4489746  30.4760628  72.3548584
  65.4472046  29.0125523  71.9687042  53.1290398  29.2650146  22.1943073
  52.8936539  28.3694153  21.9519691  52.8779030  29.7922249  21.4358826
  10.7547226  70.4933777  25.6664906  11.6088600  70.4332657  26.0943546
  10.9586353  70.5708389  24.7344761  79.7197647  62.4808578  74.5536804
  79.2329102  63.2563705  74.2747650  80.6342773  62.7632866  74.5646286
  13.7506590  49.3035240  53.9881401  13.9969225  49.8465919  53.2393646
  13.4825287  49.9299049  54.6604347   0.6187598  17.9232006   9.0267935
   0.9589667  17.5813694   8.1999664   0.1620805  17.1810970   9.4229708
  43.6340714  60.4003258  43.6020699  44.0100441  60.9475365  42.9125519
  43.1129494  61.0050087  44.1302948  51.1128044  26.5391350  11.6320114
  50.6257515  25.8286800  11.2145586  51.6500130  26.1043911  12.2943087
  13.2933626  16.2542057  13.0027294  13.4938679  16.9724102  13.6029053
  12.3542023  16.1053944  13.1125689  43.9429512  25.0122147   2.7111037
  43.7186508  25.9304829   2.5604258  44.5080872  24.7797012   1.9743603
  65.2484589  32.4409904  77.7042236  64.3340149  32.6496277  77.8952713
  65.7163086  33.2641830  77.8445663  32.2066383  54.7642441  55.4223938
  31.5775032  54.0560570  55.2849541  31.7742062  55.5409966  55.0675850
  67.0999832  30.2037220  64.7894974  67.5974655  30.9848938  65.0314026
  67.7612457  29.5179272  64.6964798  70.2048798  56.1850967  48.4650383
  70.4985809  55.2759094  48.5228958  69.3945465  56.1431770  47.9572601
  83.0839767  57.1293983  51.1054039  83.8552475  57.4531288  51.5707817
  83.2804413  56.2097359  50.9269218  23.4842472  24.3634796  72.0360260
  23.5315208  23.4091244  71.9794540  24.3879261  24.6393871  72.1892319
   4.3916597  13.0707903  67.8963013   4.9689865  13.0647058  67.1328278
   3.6217983  12.5744972  67.6183853  65.3858566  29.2315273  44.9961624
  65.5361710  29.7502289  45.7864723  66.0014038  29.5874958  44.3553658
  72.5786057   2.6546030  35.2914734  72.5647202   3.0051656  36.1820602
  71.6800003   2.7593725  34.9787941  30.5830631  22.4239540   5.5642476
  30.0280609  22.4040451   6.3438683  30.0457745  22.8535442   4.8986616
  44.5753326  65.4162369  51.0524139  44.6116638  64.4644012  51.1468658
  45.0148506  65.7514191  51.8338890   4.0988650   5.7419353  72.6082458
   3.3062527   5.9096913  73.1180115   3.9314084   4.9058843  72.1732712
  83.0961151  25.6440067  39.0021095  82.9828644  26.4469719  38.4935303
  83.4498215  25.0119858  38.3762703   4.3630366  17.3250389  36.5264320
   4.2595682  16.8501549  37.3510590   5.1316266  16.9283352  36.1163979
  15.6957092  47.8050003  16.4669285  16.2516098  48.2590637  15.8336573
  15.6934128  46.8938484  16.1736298  11.3485622  41.7611160   8.1659622
  10.7778587  42.1451149   8.8316011  10.7501078  41.3209267   7.5623775
  33.9124794  48.8775330  60.5702019  33.8529854  49.4003258  59.7705879
  33.0040817  48.6686478  60.7879333  13.3759193   6.1293397  54.3940163
  13.7279177   5.2918582  54.0924301  12.8813810   5.9107900  55.1838913
  22.7117043  38.7808151   4.7676640  22.6190186  39.4673538   4.1071305
  22.1881313  39.0881805   5.5076838  17.2571487  70.4255066  24.4344139
  17.5045090  69.5128098  24.5828457  17.5144615  70.8771515  25.2381783
  47.9541473  60.3852005  88.5554810  48.8483391  60.4365501  88.2178116
  47.6377563  61.2883415  88.5339203  42.8723717   0.4301055  71.6872177
  42.5643845  -0.2501743  72.2860489  43.1808395  -0.0493657  70.9183350
  18.0320168  35.4117775  66.5616531  18.7676449  35.0060844  67.0204468
  17.7249050  34.7362442  65.9570236  62.8994331  38.0419807  87.1823349
  62.7424736  37.2998009  86.5985870  63.2821121  37.6518440  87.9682007
  22.8960114  62.9738503  11.7183962  22.1078606  62.5205879  11.4190550
  23.1677494  63.5025940  10.9681845  66.5493317  11.9618111  32.9297905
  65.9110260  11.9276791  32.2173080  66.0776672  11.6223154  33.6903877
  74.7569122   6.7019892  32.9570999  75.6355057   7.0751758  33.0280380
  74.8919373   5.7568135  33.0252457  81.9548340   6.9708247  55.1622543
  82.3613968   7.7563400  55.5281792  81.0232315   7.1847758  55.1115227
  56.0105247   6.8458562  27.1708031  55.3747902   7.4603562  27.5374928
  55.6503296   6.6103282  26.3158073  16.2783546   8.5444508  24.9905529
  16.3210125   7.7384481  25.5051117  15.4031153   8.5352287  24.6031208
  12.3411837   8.0281982  18.9756660  13.0543747   7.6047096  18.4979115
  11.6010075   8.0073433  18.3690891  10.3249207  21.2317867  71.1045456
   9.4781599  20.7858295  71.1233215  10.5537748  21.2722511  70.1759872
  11.7744370  58.0046806  34.2116394  12.4058084  57.3486633  33.9162712
  11.5167255  57.7124710  35.0859566   2.8536317  30.1197224  62.8121529
   2.8274016  29.9254532  63.7490654   3.6159127  30.6889915  62.7068329
  10.3626060  49.8711815  32.1505394  10.3198605  48.9479141  31.9015675
  10.6299238  50.3229599  31.3501205  19.0717392   1.2228191  11.8754597
  18.5445976   1.9967891  12.0737629  18.9212589   0.6345323  12.6153965
  10.3111706  30.9901524   0.5418699   9.5084028  30.6556168   0.9417224
  10.5884085  30.2957954  -0.0558257  31.8029461  41.4868355   8.7530661
  32.1848183  42.1890755   9.2796259  32.3818817  40.7381401   8.8963013
  36.0231361  34.9776192  16.4578018  36.3114357  34.0797653  16.6220245
  36.6816559  35.5230942  16.8879623  44.2391510   6.2040172  19.3201981
  43.8305511   5.3514004  19.4696007  43.5721130   6.8385072  19.5823383
  59.6131706  47.7213211  24.3414421  59.3970337  48.3477364  23.6507053
  58.8418045  47.1579933  24.4038429  80.4857788   7.6246166  72.7219543
  81.2464828   7.0797005  72.5203781  80.8520203   8.3978024  73.1512451
  80.4930344  28.7619324  26.5491581  80.2479553  29.6804161  26.4371109
  80.3864441  28.5981941  27.4862061  41.9037514  46.4474487   2.4930792
  42.2048492  46.5227509   3.3985639  41.0646210  45.9913559   2.5568516
  68.8948593   1.5993582  55.4855499  68.6722488   2.2383134  56.1626129
  68.5845337   0.7634791  55.8337440  49.5437584  50.3063622  25.8793869
  49.2787399  50.6475258  25.0252190  49.9367180  49.4552536  25.6859264
  17.2832623  68.9080353   9.1767416  17.8722401  69.6422043   9.3509026
  17.0873241  68.5477753  10.0416431  77.3687134  17.8773479  45.8695679
  78.1618652  17.9049053  46.4047127  76.9238052  17.0747738  46.1418991
  34.8536835  56.8159866  16.0523567  34.8984680  56.0626755  15.4635038
  34.4403076  57.5037117  15.5304537  16.3162842  28.9654274  72.5116348
  16.8730049  28.2007179  72.3649673  16.5890903  29.5923309  71.8417130
  49.7223244  61.5077820  81.6087265  49.4277267  60.9781151  80.8678513
  50.6144829  61.2058067  81.7793121  16.7278004  24.5159187  15.0988779
  17.5914650  24.1651058  14.8815165  16.8957729  25.4215317  15.3594227
  28.1485767  26.1845665  87.0365372  28.8764420  25.6763248  86.6785736
  27.9238224  25.7386284  87.8531494  82.7664261   9.0132790  47.1051788
  83.4764862   8.9176836  46.4704285  83.2097702   9.1037464  47.9486771
  58.3120346  51.3889275  87.5833664  58.7101250  52.2563248  87.6566925
  58.9384003  50.8014107  88.0061188   9.3455572  13.8813343  24.5159702
   8.8887444  13.4756079  25.2528133  10.1396666  14.2518225  24.9011459
  77.7959290   4.6241493  74.8323669  77.1099548   3.9769361  74.9960403
  77.3321457   5.4606924  74.7958298  66.5969238  24.7033463  49.7976418
  66.0730896  23.9022045  49.7993774  67.4494629  24.4328156  50.1385651
  62.1989594  16.1384144  50.4389687  61.3318558  16.4754829  50.2136993
  62.7304878  16.3054180  49.6606255  81.1705399  31.1837769   3.9791617
  81.7510986  31.1708164   4.7400937  81.7334671  30.9404011   3.2442381
  64.6869736  14.1359844  13.0000429  64.3112793  14.1869555  13.8789577
  64.0951233  14.6556463  12.4560766  78.7538986   1.5581875  76.7436905
  78.1734695   1.4264395  75.9940414  79.5588913   1.0974275  76.5072174
  34.3537865   1.1393849  78.0711441  33.8297081   0.5463251  78.6095276
  34.3298798   1.9732310  78.5405655  29.2269878  50.4350052  76.0334091
  29.5024090  50.1718407  76.9115448  28.9499779  49.6199074  75.6149445
  82.5788040  42.3700027   0.7510023  83.1059799  41.9871902   1.4522665
  82.7874603  41.8431015  -0.0204066  33.3077126  70.2155533  35.9016762
  32.6762047  69.9831009  35.2209435  34.1156120  69.7740555  35.6397438
   8.8168936  68.3652573  -0.0016237   9.1397209  68.0836029   0.8543453
   9.3181343  67.8451080  -0.6296607  61.4196968  50.1297379  24.6880188
  61.0048904  49.2710228  24.6056824  60.7221718  50.7531052  24.4852791
  71.8847809  41.2208633   9.6745777  71.4117126  40.3891106   9.6997051
  71.2602158  41.8619728  10.0138893  48.1458015  63.2794991  23.0221443
  48.0868340  64.0771866  22.4963531  48.3385048  62.5885658  22.3883381
  26.6897373  15.1997108  61.3773994  27.1405373  14.8950377  60.5898819
  26.0368462  14.5230541  61.5565643  14.4874296   5.2345095  15.1009216
  14.3906488   6.0602784  14.6266108  13.5896463   4.9460998  15.2653484
  38.7991676  48.2705841  61.6754951  38.1089401  47.7443428  62.0790863
  38.6100082  48.2352333  60.7378387  75.3043976  46.5689240  55.3709488
  75.1462402  46.6626930  54.4315720  75.2738266  47.4637451  55.7094688
  53.0673103   6.3074069  59.7581940  53.0328979   7.0724459  60.3324432
  53.9933128   6.2186975  59.5326309  44.6555824  27.1604748  10.3563004
  45.2513428  26.4160042  10.4403448  43.8816376  26.8001995   9.9233561
  37.8031387  33.3486061   2.8119469  37.2078896  34.0488548   3.0794530
  37.4976540  32.5784264   3.2912512  37.9357185   4.5289693  56.3951530
  37.3488617   5.2655420  56.2240143  37.5424232   3.7947640  55.9234619
  50.2284889   7.0055594  88.9796524  49.3956757   7.3280396  88.6351776
  50.8495979   7.1325936  88.2624893  11.7895803  53.6175537  40.9348106
  10.8733969  53.4243050  40.7360764  11.9635954  54.4433708  40.4831734
  14.2155323  42.8905678   9.5111418  14.3958998  43.8056755   9.7262707
  13.2602530  42.8312531   9.4986877  30.2970619  47.0083771  66.1993713
  30.1777039  46.0590820  66.2280045  30.9294891  47.1913185  66.8942108
  57.7015533  51.1915741  51.0589447  57.9396324  50.6761627  51.8295937
  56.9021912  50.7786446  50.7322388  52.4938126  66.1073532  39.1422424
  52.3857994  66.8755875  39.7029381  53.3350906  66.2449646  38.7068748
  84.4860611  38.1795998  55.8440781  83.6945419  38.1725235  55.3058701
  84.3019562  37.5587387  56.5489693  83.7950668  11.3099241  38.0534019
  84.6723022  10.9279490  38.0253906  83.3167801  10.7658157  38.6790390
  15.1182947  10.5791874  55.6870956  14.2002382  10.7061644  55.4477615
  15.3680925  11.3955708  56.1199379  33.4039001  46.1822128  18.7286243
  32.7343063  45.7296753  19.2415466  32.9639397  46.9655647  18.3984394
  62.5355835   6.2108626  33.8453751  62.4284744   6.2175169  32.8942108
  62.5128593   5.2837720  34.0824814  54.1549721  22.5021420  59.5486565
  53.3905792  22.3204765  60.0954056  54.0987968  21.8629055  58.8384056
  38.0628204   6.7766080  20.1579342  37.6538811   6.2137570  19.5005169
  37.3533630   7.3413544  20.4644680  74.3553848  31.3794422  38.3930092
  75.0512695  30.8153877  38.7303772  73.8701859  30.8229332  37.7838135
  44.3552361   1.9454029  57.9073830  45.0440712   1.2914374  58.0259895
  44.6391945   2.6909885  58.4362526  78.8764114  52.4464607  33.7239418
  79.3559341  51.7694359  34.2013626  78.5925217  52.0155182  32.9177589
  58.3407631  34.3341484  21.8649769  58.3008080  33.4219704  21.5776234
  58.9250603  34.7579346  21.2363014  85.2537994  56.8293991  72.2238464
  84.4368134  56.4499969  71.9001007  85.9160919  56.1626549  72.0420456
  40.1729813  20.6282673  62.3887711  40.9090919  20.0164776  62.3795090
  39.4035873  20.0752106  62.5243988  82.6264954   3.5558913  64.7712784
  82.3956375   3.3438029  63.8668671  82.6179886   4.5125408  64.8025970
  14.5323648  23.1142845  14.7556124  14.4792252  22.8764343  15.6812668
  15.4214439  23.4514332  14.6456099  74.2300262  41.7934990  67.5772171
  73.9300995  40.8960915  67.4325256  75.0053177  41.7005882  68.1308670
  82.2355499  50.0492516  17.4375553  82.7404175  49.3352470  17.8268337
  82.7241211  50.8401451  17.6656189   7.9258175   7.5766320  20.8236313
   8.7854376   7.8833370  21.1121063   7.7689772   8.0416794  20.0018272
  35.0991592  19.4896030  89.1197128  34.7970123  18.5900364  88.9943390
  35.7201195  19.6353607  88.4059906  62.4555664  66.6363373  20.0242157
  63.0591660  65.9316330  19.7890568  62.5754547  66.7497177  20.9670849
  58.9886894  50.6914864  65.1340256  59.7126961  50.4776268  65.7225037
  58.3897095  51.2110825  65.6701889  82.8104324  14.0993986  25.7209129
  81.9288177  14.4714699  25.6975422  83.2199554  14.4026899  24.9106426
  57.4574242  48.2025108  30.2548161  56.5678596  48.5111008  30.0825424
  57.6499367  47.6091995  29.5287609  47.6873856  69.4529800  36.2852020
  47.8778763  68.8688126  37.0191574  47.4168358  70.2739029  36.6964493
  16.5112247  21.3398304  83.4552231  16.8654995  21.3813305  82.5669708
  16.8384705  20.5111523  83.8051300  43.2766075  69.8768005   6.4842601
  42.4368286  69.7101440   6.9123044  43.7962151  70.3334351   7.1458693
  31.3445225  61.0771408  19.5475712  30.5341015  61.5763969  19.6485233
  31.0567150  60.1684227  19.4601994  80.7897491   2.2658401  21.8285160
  80.2086716   2.6295273  21.1604538  81.2647095   1.5673047  21.3782959
  82.1280136  53.4200096  39.9259949  83.0411911  53.6480103  39.7517586
  82.1742249  52.7524719  40.6104584  19.9911213  50.7638435  49.6863251
  19.9467926  50.0673103  49.0312576  19.3701077  50.4956093  50.3635406
  53.1202888  39.0256386  77.8126450  53.7002411  38.2870979  77.6270523
  52.8576927  39.3466415  76.9499588  69.8792496  69.7358093  38.7724953
  70.0357437  70.6098175  38.4149361  69.3478928  69.8883209  39.5539246
  74.0603638  16.9445915  36.5979042  74.3238449  17.8251095  36.3305130
  74.2601318  16.3944397  35.8405037  22.5835419  47.5616074  16.4403877
  23.2767582  46.9639206  16.1602898  23.0436211  48.3652611  16.6826649
  14.4849720  53.7695312  44.4429436  14.2899342  54.0516396  43.5492935
  13.8838673  54.2749023  44.9902115  36.9871254  56.8513222  13.6212921
  37.8532028  56.4543915  13.5285997  37.0394020  57.3529854  14.4348259
  26.0398045  14.8431845   5.9748511  26.4417534  14.5446978   5.1590233
  25.7533417  14.0395145   6.4087696  51.7790413  47.7829781   5.3781962
  52.7299042  47.6730919   5.3822579  51.6136246  48.4119949   4.6759105
  30.6851521  60.8296204  15.1973467  30.1804504  60.4432755  15.9130592
  30.0968456  61.4795494  14.8130016  65.3839569  22.4647369  14.6843071
  64.7987518  21.9465866  15.2368336  65.1012573  23.3693695  14.8183126
   3.5400605  11.1754999  88.7922745   4.0805922  10.3855295  88.7946396
   2.6437879  10.8521719  88.7006989  64.3519974  52.1043129  67.5579147
  64.7140350  52.9424019  67.2702255  63.7921257  51.8240700  66.8338699
  81.9525909  28.6302948   2.1224413  82.1232224  27.7225418   1.8712379
  82.7380447  29.1055069   1.8513826  79.2967529  71.2176361  19.6773624
  78.9679108  72.0705795  19.9612293  80.2445755  71.2739182  19.7986107
  78.4024658  58.3428535  17.9636383  77.8899231  57.7110367  17.4593182
  78.5705109  57.9038315  18.7974586  24.5823231  66.5690384  57.8289299
  24.1275635  65.8979568  58.3379211  25.2682648  66.0917664  57.3621025
  61.9380302   2.8728039  25.1540451  61.2832069   2.7297592  24.4706898
  61.4259987   3.0515878  25.9427700  45.7117920  39.0344009  68.4249039
  44.8996124  39.1491013  68.9182968  46.0542450  38.1907082  68.7200928
  35.6063843   5.3647466  32.4373169  35.1644020   4.9996715  31.6707630
  35.4040260   4.7524443  33.1446838  59.3249359  69.4375610  57.2594910
  59.7683372  69.7674255  56.4779434  58.7436600  68.7506561  56.9331322
  14.3753386  51.2288818  52.1609688  13.4806099  51.4364014  51.8914757
  14.7772369  52.0804100  52.3330574  65.8102417  64.3536377  23.2437782
  65.4637985  64.9081345  23.9428787  66.6903687  64.1190796  23.5380344
  30.0733604  13.3705950  15.5452890  29.4954586  13.0765619  14.8411541
  30.9566689  13.2159967  15.2104836  -0.3186893   0.3521594   9.5796547
   0.3242041   1.0222679   9.3475466   0.1006329  -0.1503091  10.2781715
  16.0736294   2.9808235   0.3579777  15.4097786   2.4042907  -0.0203666
  15.8386612   3.8543818   0.0450593  59.4468231  14.7804728   5.7156768
  58.9516869  15.4190874   5.2026062  59.2973900  15.0367699   6.6257391
  55.3069649  31.6674900  38.6665764  54.4846992  31.2219086  38.8704643
  55.0412140  32.5411873  38.3797722  81.9196091  19.6923523  20.5544033
  81.4875336  18.9453773  20.9686165  82.8546600  19.5170517  20.6601562
  70.8870239   4.8266912  57.5678329  70.4656982   5.3926024  58.2147141
  70.6939087   5.2398014  56.7262421  65.3433914  27.7009602  17.7297077
  64.4705811  28.0814896  17.8278446  65.4955902  27.2354774  18.5521393
  63.6702995  34.7403488  59.1540833  64.6232529  34.7970810  59.2240639
  63.5142555  33.9413071  58.6506805  55.2916565  38.3459549  10.4441013
  55.3652382  37.9458313   9.5776606  54.4478340  38.0412140  10.7777672
  69.8389587   6.2360516  88.6173019  70.4612274   6.7879024  89.0910950
  69.9745331   5.3592639  88.9766006  60.0421906  11.8380919  23.2982063
  59.9463654  10.9495497  23.6410522  60.9340439  11.8662453  22.9517422
  80.2891541  22.1529236  34.1145782  79.8353043  21.3301373  33.9321671
  79.5974121  22.7499065  34.3997650  64.9953537  47.4057274  63.7629280
  64.4885406  46.6884422  64.1435547  65.0557327  48.0546837  64.4639587
  85.2791138  61.9632492  64.4884949  86.2029953  61.7132912  64.5023193
  85.2030411  62.5580254  63.7423820  81.2146454  50.3915367  83.0932999
  80.7236252  51.1368484  83.4391937  82.0490646  50.4162979  83.5616608
  55.5955544  64.4191437  18.4797325  56.4316673  64.3833847  18.9443455
  55.7687416  64.9710693  17.7170963  31.9054756  64.9891510  51.3299828
  31.9692688  65.2251205  52.2554436  32.0501595  65.8118134  50.8625221
  42.3840981   7.4806910  20.5467091  41.7053070   6.8570952  20.2886276
  42.0000992   7.9633818  21.2786846  16.5439529   5.5115614  17.4052734
  17.4003201   5.5911741  16.9851208  16.2471561   4.6301231  17.1789761
  43.5400848   2.1299345  55.3395119  43.9076805   2.9603913  55.0371094
  43.6916962   2.1309083  56.2846260  18.8987293  70.4963074  76.4179993
  19.0211086  70.2299500  77.3292160  19.4946632  71.2364502  76.3027191
  22.4376678  55.6936989  84.9187927  22.2574329  55.5278931  85.8441391
  23.1370792  55.0789490  84.6971130  35.2414017  13.7687349  84.0572510
  35.0408401  14.1231298  83.1909866  36.0924034  14.1464577  84.2794037
  40.0633278  22.5001488   8.1842022  39.4199333  21.9417648   8.6206417
  39.8896332  22.3810425   7.2504597  60.4612389  63.5195618   3.5623963
  60.6067505  63.2117996   2.6677790  59.5189247  63.4216156   3.6990857
  50.6635780  45.4829178  40.4879761  50.6896667  44.5869789  40.8238945
  51.5067139  45.8584518  40.7416077  29.2455807  52.3592949  70.0092926
  28.3401699  52.6694412  69.9927521  29.6765461  52.8405457  69.3029709
   6.9699945  47.8416557  66.7769623   7.5995874  48.5035934  66.4911575
   6.3823676  48.3101730  67.3697662  62.7225494   7.3602395  63.4389763
  62.7539978   7.5907354  62.5104752  63.2366104   8.0414886  63.8724213
  77.7252350   2.2204294  15.1142273  77.3743439   1.5625312  14.5139971
  77.3826523   3.0515647  14.7854662  35.5153732  68.9211578  35.0392151
  36.2499199  68.4145126  35.3855972  35.5931435  68.8367310  34.0889244
  81.0791245  13.1821747  72.9822922  80.1346130  13.0601683  72.8861313
  81.4485397  12.3099213  72.8446655  44.8630524  52.0407410  30.5060692
  44.8050003  52.8961639  30.0804939  44.2892113  52.1132240  31.2687511
  76.3747101  44.5059319  70.0234070  75.7515335  43.9190521  70.4517212
  76.9473801  44.8041954  70.7300339  51.1073303  22.8244038  61.1295967
  50.4745483  22.9113216  61.8425217  50.7718811  23.3977242  60.4403839
  57.4718132  57.7325974  50.3764038  58.1468468  57.1724739  50.7595825
  56.7856560  57.1254349  50.0993271  62.0199509  22.0620594  75.6143723
  61.9157753  22.5882568  76.4071503  61.3642807  21.3697815  75.6985168
  67.9961014  18.7805786  54.8679848  67.7742233  17.9475899  55.2840729
  67.2309189  18.9925900  54.3334007  26.4840202   5.9408932  18.8438206
  27.1156425   6.6582952  18.7926445  25.8235588   6.1558299  18.1851673
  45.7949905  53.9122162  23.4963665  45.0412292  54.0786285  24.0623894
  46.2838974  54.7351303  23.5004578  23.0543880  66.1583710  76.3414230
  22.5594139  66.5599213  77.0555573  22.9417267  66.7589188  75.6046143
  56.4202728  32.4011765  33.9933662  56.1870880  33.3232498  34.1012344
  57.0759926  32.2390251  34.6715775   0.3384392   4.8396988  19.6744118
   1.2757502   4.8066068  19.4831390   0.0751401   5.7267265  19.4292850
  39.4096527  59.3866501  25.9241161  39.2760506  60.0864677  26.5633659
  40.0353470  59.7506104  25.2978020  75.8347321  60.2000732  39.2405128
  76.0946121  61.0798798  39.5137024  75.3196793  59.8638878  39.9739494
  82.8516312  43.4877319  72.7687149  83.1112213  43.7194176  71.8769913
  82.4175186  44.2724686  73.1033249  30.4497967  48.6591606  51.9858704
  29.7817020  48.4144287  52.6261711  31.0289936  47.8983803  51.9413757
  15.1210938  20.9086533  25.4268646  14.9288216  20.3547192  24.6702785
  14.4230518  21.5636101  25.4277515  44.7968941  31.5929317   4.7064538
  44.3119087  31.3377419   5.4912467  44.5914612  32.5204163   4.5889626
  63.1173363  10.3951855  55.2335968  63.4316292   9.7789211  54.5720329
  63.0159874  11.2218981  54.7618904  62.5566330  41.1793213  48.3087883
  63.0063858  42.0139771  48.4403305  61.6882362  41.4230804  47.9883156
  80.0861664  62.4247971  18.6048775  80.5526581  61.5909805  18.5468788
  80.5560455  62.9157410  19.2789841  30.0606098  57.9171295   0.2978306
  30.6246796  58.6084137  -0.0488490  29.5958481  58.3297958   1.0257970
  55.1606255  51.0643501  37.7529793  55.4350548  50.1711807  37.9607468
  55.4242210  51.5794029  38.5155220  47.1485252  44.1856651  47.8054695
  47.7552719  43.7843895  48.4276161  47.3460350  43.7612000  46.9705734
  85.9225006  37.2288551  28.0487061  85.7542267  36.4844055  27.4710312
  86.8604736  37.3961563  27.9567413  61.9734840  41.8154488  80.1849976
  61.1307869  41.7487030  79.7359543  61.9704323  42.6913300  80.5710831
  52.0840187   3.6533358   5.3216982  52.2065964   3.4413979   4.3963389
  51.1834068   3.9728277   5.3769784  75.1356735  65.2180405  49.9913025
  75.9774704  65.5278549  50.3254089  75.1707687  64.2674713  50.0981560
  14.0710516  64.7045593   6.9819593  13.1260881  64.5692978   7.0525293
  14.1686869  65.3541641   6.2857456  32.2946701   3.6480281  78.2076797
  31.4721355   3.9612124  78.5839615  32.0816841   3.4530923  77.2950668
  26.8601742  53.8806534   3.0491421  27.2766781  54.6174431   3.4962418
  27.5903397  53.3472557   2.7351735  24.3887482   7.6084199  68.9039536
  23.4618111   7.4752102  69.1021271  24.7783737   7.8627300  69.7404633
  69.8294983  24.6322765  27.1584187  70.3344421  24.3278751  26.4043598
  69.5314789  25.5072346  26.9096870  34.7028313  69.4025345  10.3481922
  34.4900131  70.0308914  11.0382004  34.1026115  68.6717606  10.4962893
  48.7114105   5.9621449  37.8231583  47.8545303   5.5376000  37.7813377
  48.6817055   6.6296344  37.1377335  19.1456375  26.8820438  84.9393921
  19.0049133  25.9627228  84.7129517  19.3655357  27.3025284  84.1080933
  32.9439888   8.7634916   1.5477651  33.6474342   9.3562851   1.8123302
  33.3767090   8.1067667   1.0021477  17.0190086  52.0287895  62.2848167
  16.7571278  51.1081085  62.2847366  17.7284164  52.0760727  61.6439323
  72.0390472  51.8539124  66.1866913  72.2700653  51.6000328  65.2931519
  71.9596558  51.0247650  66.6583252  77.8774261  70.9593735   4.2896309
  77.5917587  70.0475311   4.2333946  78.3873138  71.1002579   3.4918852
  64.2719498  41.3425446  19.2801819  64.4264297  42.2307777  18.9586163
  65.1313477  40.9224625  19.2456322   8.5752745  55.9946289  37.7608376
   9.3393431  55.4363022  37.9047165   8.6150579  56.6412735  38.4654655
  23.1117649  58.4153442  73.9244766  23.6729794  59.0776443  73.5212097
  23.0156708  57.7410812  73.2518921  55.6976509  21.5771961  25.9097958
  55.9752312  22.4736576  25.7212811  54.8299637  21.6727123  26.3025131
  65.4767838  70.7690811  50.7961197  65.3461990  71.7146378  50.8674812
  65.0137711  70.5231171  49.9952698  35.4450722  52.6565933  25.2793522
  34.6375427  52.4137917  25.7323170  36.0886078  52.0128212  25.5754070
  13.7003155  36.8598709  82.1607132  14.1706696  37.6863632  82.2698288
  13.5247297  36.8064346  81.2212753  37.1247444   8.4880581  28.6864471
  36.5184174   8.9287872  28.0911694  37.9068909   9.0398474  28.6834469
   6.4930954  52.1876297  13.5198879   6.4275422  52.4380875  14.4414120
   6.9079652  52.9391289  13.0963717  31.5210323  50.0419159   7.4749002
  31.7087288  50.9539337   7.2530360  32.3012848  49.7436714   7.9423280
  49.8771019  38.8391914  31.3883114  49.5103951  39.4766693  32.0009956
  50.7484016  39.1781502  31.1829395  48.2472687  45.3772278   3.2056851
  48.9165382  45.6412964   2.5743563  47.9786797  44.5043564   2.9189963
  11.9753532  64.4104462  88.4868469  11.9597483  63.4542046  88.5266724
  12.2181511  64.6830978  89.3716888   0.3476254   7.7164483  12.9837627
   1.0154980   7.0588183  12.7895966   0.5491732   8.4436293  12.3948488
  15.1650524  29.2766838  60.0175247  14.6585083  28.5705204  60.4187469
  14.7346916  29.4323826  59.1768227  49.9844475  19.5280495  74.4635239
  49.0939674  19.2027550  74.3313980  50.5435715  18.8700275  74.0504608
  29.4083595  42.8575287  79.2716446  30.3471279  42.6836739  79.2029419
  28.9924717  42.0573082  78.9508362  76.2215652  35.7049866  87.7533646
  75.3195114  36.0085182  87.8553543  76.2514267  35.3348694  86.8711166
  85.8568115  24.8403015   3.7331381  85.2521667  24.1799660   4.0716562
  86.7228317  24.4443588   3.8303916  30.9566727  71.3146210  82.1767197
  31.8513794  71.2452087  82.5097504  30.4463272  71.6259766  82.9242706
  83.3544998  40.5094719  49.5640335  83.4895859  39.8512573  50.2457504
  83.6171112  40.0725708  48.7538567  20.9335976  25.4513721  80.5432358
  20.8085651  24.8799953  79.7855225  21.8283043  25.7788773  80.4512024
  20.9787865   3.2073858  66.3426971  20.0371552   3.3735571  66.3868561
  21.0595207   2.4333284  65.7854233   4.4574642  28.7082081  53.9320183
   5.2310448  29.0899544  53.5172005   3.8504281  28.5517330  53.2086563
  23.1819382  30.9436874   3.0984941  23.8571815  31.6150742   3.1960557
  22.5739975  31.1089287   3.8191435  69.5474167  35.8204002   2.2080941
  69.1690598  36.5897751   1.7824905  70.4818802  36.0175514   2.2724323
  73.5128479   9.4191208  22.2883759  73.9162140   8.5584450  22.4013462
  72.6540833   9.3374739  22.7032204  35.4126816  65.6475143   0.2891904
  35.5500374  66.4555588  -0.2052101  34.5497627  65.7552185   0.6891945
  74.7333450  46.7186546  52.8221245  74.4728088  47.4689140  52.2878342
  73.9522018  46.1665268  52.8568115  24.9965343  59.5258026  34.1967354
  24.4823589  58.7199364  34.2460938  24.5433006  60.1351624  34.7793922
  86.5987778  28.5758457  84.6015930  86.0471649  27.7989140  84.5102921
  86.1099396  29.1485462  85.1925964  79.6843338  67.8728867  42.4452095
  78.9127579  67.8522797  41.8791046  79.3338165  67.7816925  43.3312416
  27.9442406  61.4850540  59.8839912  27.2206593  60.8816681  60.0530739
  27.5230217  62.2755661  59.5465088   0.9013727  71.2935944   0.9807864
  -0.0353100  71.1647644   1.1299895   1.2486435  71.5408325   1.8378212
  67.8824310  35.2380295  32.0237312  67.2862015  35.9244843  31.7245235
  67.3096771  34.5053062  32.2502251  62.8619308  59.2998314  26.0257492
  62.8732605  58.3515587  26.1556778  62.7320557  59.4110031  25.0839386
  52.2059631   4.4615922  67.2244720  51.6846733   5.0694771  66.7001038
  51.5780106   3.8040135  67.5236359  60.4821663  22.2086639  15.5696115
  60.6414337  22.5225830  16.4597359  59.9463577  22.8920231  15.1669216
  15.4878302   9.8911638   6.5459752  14.9880686  10.5839548   6.1141081
  14.8258209   9.2638769   6.8366423   3.1100128  26.3794670   0.8577020
   3.7175817  27.0094299   0.4700967   3.0001471  25.7075348   0.1848958
  39.0205002  59.9143715  36.5344238  39.3487320  59.0887566  36.8905907
  39.1469650  60.5472755  37.2412949  18.0256958  30.1663609  31.9885254
  18.8720627  30.6132145  32.0032463  17.4504871  30.7255821  32.5106735
  45.6324158  33.4748878  78.2420883  44.7421913  33.6117020  78.5661469
  45.7031746  32.5270042  78.1291962  51.4383888  43.7724800   0.8917046
  51.0644455  44.4623795   0.3435865  51.9554405  43.2401199   0.2871551
   1.7072827   4.1856141  81.7554932   1.9338064   3.4461365  82.3194885
   2.5353019   4.4374113  81.3465729   6.6366224  11.6846924   4.7276630
   7.1008849  11.2883396   3.9903731   6.7913342  11.0856733   5.4580550
  29.1578732  26.3788109   5.4538445  28.8363209  26.3277321   4.5537181
  30.0857449  26.1525402   5.3899198  54.0611877  28.6994343  31.4654198
  54.3541718  28.9258995  32.3480873  53.1616898  28.3938408  31.5826569
  49.0935287  41.4578781  66.8075867  48.1748085  41.5425453  67.0625763
  49.5347443  42.1772575  67.2593155  81.4019699  34.0317192   3.4227941
  81.9427032  33.5673676   2.7838798  81.2326660  33.3852921   4.1081438
  73.0989075  33.8849983  38.0698090  72.3559341  33.7161064  37.4904175
  73.5583572  33.0468178  38.1206589  53.4821091  64.9719009  66.8670044
  53.9949493  65.7208023  67.1709442  52.5976524  65.1393509  67.1924820
   4.4274507  53.9196053  60.7297096   3.5040162  53.7405128  60.5524368
   4.8352056  53.9538193  59.8643799  86.7474747  14.3035555  14.7729921
  86.1053314  14.0382166  15.4313803  87.3566055  13.5669451  14.7220192
  18.5238152  56.7084274  55.7933884  17.5896263  56.5204430  55.8838501
  18.5566177  57.5257874  55.2963181  69.4658813  70.3371429  22.3265476
  69.4130707  70.2358932  23.2769127  68.9858856  71.1450882  22.1447163
  85.8390503  16.1202621  68.0213547  86.6220245  15.7513809  67.6125641
  85.2606430  15.3689165  68.1523209  51.6306038  26.9259720  80.6374969
  51.1901321  27.7101154  80.9651184  51.7964439  27.1128197  79.7134781
  79.9505997  70.1839294  30.9763889  80.2248459  70.6615219  30.1934872
  80.5556641  69.4441605  31.0298958  46.3373756  65.8595123   9.8961725
  46.4571457  66.4103699   9.1225805  45.9364815  65.0580521   9.5597620
  19.9124966  51.3870544  76.5942917  19.1676636  50.8530655  76.8705444
  19.5172005  52.1445427  76.1628113  65.5856705  11.3341198  35.6129761
  64.7018204  11.2162218  35.9610100  65.9212799  12.1064005  36.0681496
  17.7399883  64.7372131  39.0676727  16.9606514  64.1823425  39.0990219
  18.2867126  64.3440704  38.3874092  82.4564896  36.7180939  64.3650970
  82.1710358  37.6312408  64.3953247  81.6433563  36.2136116  64.3417892
  73.7363358  30.8348255  63.9908752  74.3666611  31.0606117  63.3068047
  74.0370941  29.9894028  64.3240967  51.8035126  31.6122532   5.2273216
  52.0548363  32.4473076   5.6219778  52.6343918  31.1706047   5.0517716
   4.4436927  39.0718002  16.7864037   4.8970251  39.2555504  15.9636297
   4.2649188  38.1319122  16.7566395  45.7665100  13.9156408  14.3666887
  45.5819893  14.6491184  13.7800064  45.0185356  13.8923073  14.9635353
  29.9471931  11.6052294   1.2197719  29.4227886  12.2765207   0.7831931
  30.1195297  11.9643850   2.0901392  31.4573498  24.8180923   2.8651063
  31.7095852  25.4751377   2.2163382  32.2595177  24.6491833   3.3592973
  72.5312042  49.4955101  81.5596771  73.4093475  49.6404343  81.2074280
  72.0341415  50.2674408  81.2889709  59.7015114  52.1980438  12.4561243
  60.5137215  52.6732025  12.6315374  59.0652771  52.8811913  12.2445927
  80.6914825  44.2902718  34.2625809  80.7332306  44.8766937  35.0179596
  80.5080414  43.4290123  34.6378365  54.8350487  64.9160614  28.7922344
  55.0784187  65.3407516  27.9696560  53.8782196  64.9412613  28.8008671
  43.6895523  69.3189774  12.9084101  43.2421608  70.0793457  12.5370445
  43.4447861  68.5931168  12.3344383  68.1606140  35.9816055  46.4512024
  67.9631042  35.9024773  47.3844566  69.0831680  36.2351494  46.4222870
  70.5459900   9.0739279  44.5599098  71.4003601   9.3816175  44.2572365
  70.3652267   9.5982113  45.3400917   2.9335990   4.1536403  39.7926750
   2.5036807   3.3039951  39.8901711   3.6484561   3.9911304  39.1772079
  38.2685699  67.7418976  88.4782639  38.3814278  68.6728592  88.2864304
  37.6554451  67.4325638  87.8114548  35.3948250  45.9753036   8.7818356
  36.3420792  45.8378525   8.7887993  35.2466965  46.6557045   9.4386063
  34.2582321  54.2329063  27.7460766  34.9910583  54.4727592  27.1789169
  33.4854507  54.3176727  27.1876392  83.1805191  18.9963474  31.6864624
  82.8325577  18.3651752  31.0565605  82.9805908  18.6161308  32.5418549
  12.7078676  46.3418159  86.8156052  11.8343763  46.7329903  86.8306885
  12.6713829  45.6488419  87.4749146  41.0726852  71.6930084  26.6909790
  41.0662689  70.9266129  27.2644081  41.9291649  71.6658325  26.2644329
  48.4960785  18.4054241  65.5581055  49.2189026  18.6552582  64.9824905
  48.7626839  17.5626602  65.9253998  68.1684341  67.6598587  60.2900429
  68.2333603  66.7133408  60.4169655  69.0731049  67.9697571  60.3320045
  79.2233887  60.3451996   6.9510126  79.5666428  60.4205513   6.0606580
  79.3481369  61.2151794   7.3302274   4.5871615  26.7751827  83.9858246
   5.2865810  27.2818165  83.5730743   3.7797225  27.1902428  83.6825104
  37.9772263  37.9305153  73.6541901  37.9104843  37.6209068  74.5574799
  37.9539146  37.1330299  73.1253204  74.2614136  42.7747078  19.0243263
  74.0953217  41.9274368  19.4375839  74.7612152  42.5627899  18.2359600
  30.8005428  52.9449387  22.5593014  30.9142399  52.7681427  23.4931355
  30.2906914  52.2024422  22.2353001  49.5703888  51.4395142   2.7854645
  49.5352745  52.3553581   2.5093720  49.4289970  50.9411240   1.9805763
  80.0900345  15.4088907  28.6418037  80.7995377  14.8313046  28.9232903
  79.3048477  15.0371714  29.0437145  68.2377548  32.8883553  21.9712906
  68.2428360  32.1699753  22.6038513  67.3762970  33.2925911  22.0748577
   1.8041979  57.1703758  86.9973984   2.6785169  56.7871780  87.0678024
   1.4887437  57.2147408  87.9000320  73.8319092  18.2732983  82.7747421
  74.7843781  18.2856789  82.8689651  73.5088654  18.0221691  83.6400757
  54.7378922  25.3204575  80.6494370  54.1361847  25.8872681  80.1668320
  55.6065903  25.6716919  80.4539185  18.6103115  29.2109890  10.9398508
  19.4431934  28.8779564  10.6057405  18.8161278  29.5340786  11.8170528
  29.2823353  20.0242863   3.9206617  30.1191750  19.7949944   3.5164876
  29.2405605  20.9786472   3.8599858  25.0058651  25.8735828  56.0832634
  24.3678856  26.4864159  56.4488411  25.8552113  26.2775612  56.2611504
  45.0877037  65.4643707  39.2509079  44.7761688  64.9360962  38.5159912
  44.3264198  65.5486603  39.8249893   3.6497362  32.3978081   8.9023609
   3.3853657  31.7226276   9.5272369   3.5899861  31.9701443   8.0480976
  83.1093979  36.9083328   8.0012808  83.9219589  37.3837357   8.1744022
  82.6658020  36.8756409   8.8488560  51.1854095  50.7907562  80.9576416
  50.5522308  51.4571533  81.2245255  52.0387306  51.1863060  81.1354370
  80.4704666  56.3874702  67.9417419  80.4461746  56.3692207  66.9850235
  80.8721237  57.2297173  68.1551056  64.4733582  62.4581833  59.5808296
  63.9679146  62.4522820  60.3936768  64.9531708  63.2861443  59.6031494
  22.4239292  56.5753326  77.0597305  22.4644394  56.9359016  77.9454956
  22.2536278  55.6422501  77.1885223  77.2864914  51.5635300  82.6279602
  77.4079971  51.3563156  81.7013931  77.2251968  50.7106171  83.0580978
  12.4892979   2.4632804  64.2013626  12.4992552   3.2278342  64.7771988
  12.8986721   2.7680078  63.3915558  31.7158146  49.2323799  49.4272270
  31.8302803  50.1825905  49.4422913  31.6101971  48.9892464  50.3469887
  57.7932510  66.4561081  19.7485409  58.5891991  66.9854050  19.6980743
  57.0908661  67.0550461  19.4952488  23.9131870  65.5494232  15.1278162
  24.8042336  65.8971405  15.0909224  23.3613358  66.2726593  14.8301201
   2.8989217  38.7504349  43.2536392   2.9450195  39.7056160  43.2952919
   3.7768586  38.4797630  42.9849472  34.6404381  53.1893921  80.4787827
  35.2376556  53.8722153  80.1732941  34.1735878  53.5900421  81.2121048
  53.2799797   0.6217906  58.1706314  53.7809258  -0.0093908  58.6872520
  53.0414200   0.1449945  57.3756561   7.2442060  56.9759178  84.9256210
   6.6897702  57.4645691  85.5339355   7.4209247  56.1489525  85.3740997
  24.0848465  39.7347870  79.8717499  23.2891083  39.3017502  79.5627060
  24.5196381  40.0349045  79.0735550  25.1423836  44.8079872   9.0609875
  24.3807487  44.8771553   9.6366272  25.4986038  43.9374847   9.2386341
  30.8135796  48.9389496  56.1489716  30.5333405  48.1065483  56.5295029
  30.0362759  49.4958649  56.1922951  13.9900036  20.5186996  86.4350281
  13.7024498  20.7490177  85.5515671  14.0028572  21.3511448  86.9073639
  38.5647545  32.3960457  76.0885468  39.3645134  31.9750748  75.7732773
  37.9417839  31.6771946  76.1952896  68.5624161  19.9984798  63.7257042
  69.4296112  19.7526588  63.4035683  68.1465912  20.4369659  62.9833717
  66.6914597  14.1387444  61.6232567  66.6753387  13.1831779  61.6767883
  66.2295227  14.3408794  60.8096275  55.6023064  34.0473709  84.8475800
  55.3704147  34.9757843  84.8700790  55.6350517  33.7863083  85.7679062
  43.9891090  56.5685043  45.0079422  43.3830872  56.8295174  45.7013702
  43.8486595  57.2112160  44.3126526  71.3545456  50.2939720  60.8080635
  70.8906326  49.4639359  60.6982803  71.2970581  50.7157059  59.9507027
  36.8204803  69.6914062  18.5208454  37.7011566  69.4795303  18.8302784
  36.9609299  70.1376572  17.6857624  21.6639709  55.5964203  80.7728119
  22.5657978  55.8392639  80.5631409  21.3752460  56.2628670  81.3962860
  60.6609993  46.4706879  14.8966208  61.0472565  47.2852402  14.5748444
  60.1898956  46.1149712  14.1431236   9.2601471  29.4673653  22.4704647
   8.6683302  28.7368679  22.2905788  10.1049185  29.0533352  22.6470165
  19.4049759  22.9987946  88.7713318  20.1722050  22.8043041  88.2330322
  19.7599907  23.4362392  89.5451813  29.4824772  18.6518879  86.1577377
  29.7101021  18.5519924  85.2333832  30.2112675  19.1471100  86.5317078
  66.5268555  24.1885738  45.2273178  66.6371841  24.0667114  46.1702957
  65.6281738  24.5034370  45.1300278  59.8867493   1.3299438  32.8390808
  58.9884453   1.2662665  32.5146980  59.8982468   0.7794580  33.6220665
  71.5448990  16.3860073  42.6230621  72.1429367  15.8765640  43.1699181
  70.6847305  16.2543030  43.0218124   4.5288424  58.0770416  81.0373535
   4.9048781  58.8841476  80.6860580   5.2717614  57.6168404  81.4278870
   7.4383507   4.4855170  56.6624832   6.7021084   4.2659850  57.2334328
   8.2129335   4.2165027  57.1563301  50.1870728  15.8829689  30.1919842
  49.3716011  15.9882326  29.7019291  50.8581734  16.2622700  29.6245441
  15.0116940  53.5421066  84.8454132  15.1185236  52.9809875  85.6135025
  15.4062366  53.0449638  84.1288757  64.3638153  43.2330742  45.6466827
  63.5441780  43.5767746  46.0020599  64.3257980  43.4407158  44.7130508
  49.8300323  53.1901321  80.8517075  50.0119400  53.3887482  79.9331741
  48.8922462  52.9996910  80.8744049  50.3443222   2.1295931   3.5548894
  50.2679367   2.9785721   3.1194222  49.9166679   1.5151256   2.9584200
  44.2177353  60.8030014  11.9687195  44.4598579  61.5982170  11.4941282
  43.2642059  60.8474045  12.0397310  45.9558830  46.4990959  16.4918518
  46.4841499  47.2700500  16.6987152  45.6406059  46.6565514  15.6018848
   1.4004478  29.0772419  87.5289307   0.9560498  29.7478199  87.0102158
   1.9072527  28.5766487  86.8895645  57.7459755  24.9348316  39.5762482
  57.4594498  25.2485886  40.4339714  58.5300674  24.4175072  39.7601280
  70.2457962  19.1385746  86.7698059  70.2609406  18.5596333  86.0076828
  71.1440506  19.1231995  87.1001587  28.5059757  57.9368095  79.2235336
  28.0820084  58.7562561  78.9685974  28.2779274  57.8262100  80.1465683
   5.7871804  40.7474098  79.8807831   6.4978247  41.3509216  79.6640091
   5.7189589  40.7904510  80.8345795  24.9553032  15.5210810  13.7369127
  25.8852024  15.3402157  13.8740606  24.9402008  16.3553715  13.2679110
  70.0065308  14.1514730  47.4463577  70.0138474  15.0484066  47.7805557
  70.0197983  13.6034002  48.2310028  47.0354881  28.3070812  62.7635307
  46.1711617  27.9925327  62.4985085  46.8584137  28.9246864  63.4730644
  50.0214844  65.6372147   4.9790211  49.6075172  64.7754517   4.9318190
  49.9097633  66.0049362   4.1023622  86.9212799  32.9552002  47.8647041
  86.3355026  33.6165466  48.2331047  87.0261536  32.3112717  48.5651245
  79.3576508  59.4815407  51.4384384  78.8413849  58.6756516  51.4540291
  78.7070389  60.1832619  51.4613762  81.7496338  70.0918045  37.2252655
  81.5983429  69.8659134  38.1430435  81.0524139  70.7124329  37.0132828
  26.7502518  68.8554688  27.9464970  27.0291996  68.7377396  28.8545494
  26.9235878  69.7782669  27.7604122  30.8201447  22.1673584   0.6840086
  30.5203514  21.2587929   0.7134547  30.6471710  22.5052452   1.5627263
  35.5985909  64.4524078  31.8325291  36.2647591  64.1946182  31.1953545
  36.0553665  64.4431076  32.6736603  65.2243958  57.3127251  48.9546661
  65.9732590  57.4076691  49.5432434  65.2848740  56.4131050  48.6333313
  75.3767700  24.0081196  12.5131855  75.0425110  23.1360779  12.3033161
  75.3721924  24.4740105  11.6770296  28.7276974  52.9625893  66.4827576
  29.2174873  52.1402283  66.4906845  29.3974152  53.6392975  66.3838730
  47.1093941  22.2979336  62.4443283  46.9744873  22.2152023  63.3883553
  47.1364555  23.2419052  62.2880669  85.8796158  36.5423889  65.2960129
  86.4758759  36.1619606  65.9409714  85.0429916  36.1059113  65.4565506
  85.3900375  65.2579346  27.3026485  85.6613235  66.0544205  26.8463192
  85.8957825  65.2634277  28.1153107  60.0295448  45.5307465  22.2595329
  59.1890907  45.9511757  22.4414997  59.8103943  44.7945633  21.6883583
  42.2871742   0.7620583  81.1710587  42.8200455   1.4766629  80.8223190
  42.7005501   0.5401600  82.0053940  76.6929779  23.7477798  73.7331314
  77.2491531  23.2557297  73.1291580  75.9970169  24.1045036  73.1812057
  45.8096542  62.1494904  84.8955765  46.7039948  61.8379822  84.7564774
  45.2768059  61.3543205  84.8985672  67.8971024  11.4533796   4.4157753
  67.9966049  10.5254345   4.6284909  68.5602036  11.6178646   3.7453492
  70.3084869  50.9583244  51.1067505  69.5000229  50.5083466  50.8615227
  70.6679306  51.2738647  50.2776184  48.4638824  28.2082329   7.0760655
  47.9739914  28.1025963   6.2605410  48.4089203  29.1441822   7.2689657
  19.0889568  10.0073910  86.8674240  18.2362633   9.8572788  87.2756119
  19.6935005  10.1021128  87.6034851  76.4415283  45.9155426   9.8546896
  75.9303818  45.1282272   9.6673269  75.8180847  46.5133018  10.2672777
  43.9499207   4.3982887  82.8496475  43.9724388   5.0140824  83.5821304
  43.6594505   3.5735004  83.2389832   4.8381290  14.6810827  46.0708733
   5.6326785  14.4102745  46.5308571   4.5552192  15.4733152  46.5275612
  32.4670563  57.4933548  37.5183411  32.0329437  58.3004532  37.7947044
  32.9968109  57.7524147  36.7643661  43.6270370  63.5751038  60.4148788
  42.8023949  64.0409851  60.2765007  43.6226501  62.8798332  59.7569962
  43.6361046  28.3719978  76.4564133  44.4793701  28.4472427  76.0097885
  43.8611755  28.1220074  77.3525620  82.7066803  33.2271385  39.5487709
  81.8917236  32.7342339  39.4532661  82.8223953  33.3176651  40.4946289
   5.5062447  70.7676086  12.5074148   5.2853236  71.5909424  12.0720367
   5.9836936  71.0329361  13.2934675  84.6756973  34.9486694  57.8146286
  85.2098465  34.3963814  58.3855019  85.1192474  34.9166031  56.9670029
  59.3278160   5.2042489  69.9517365  59.9754105   4.7092881  69.4498749
  58.8509445   5.7104206  69.2940063  59.3411827  15.9844198  51.9733162
  59.5959320  16.5646992  51.2559509  58.4055634  15.8336735  51.8387108
  77.8224030  56.2270470  37.9123497  77.1302490  55.8739128  38.4713287
  77.3633423  56.5462074  37.1354103  14.4808979  23.1300678  19.7634125
  13.7724934  23.7477551  19.5821457  14.8870125  23.4598942  20.5649834
  44.9471474  39.9904480  13.6245213  45.7510338  39.4744301  13.5634480
  44.2441025  39.3409882  13.6118536  61.7542496  39.5779800  29.4445934
  62.1058617  39.4084969  28.5705910  62.1297722  40.4223061  29.6942482
  85.6554337  53.2411385  88.4479446  84.7199631  53.1279259  88.2796783
  85.7637482  54.1837997  88.5739975   3.2667823   8.4722366  86.5385818
   3.8402183   9.1046019  86.1055450   2.5678413   9.0041037  86.9191437
  48.1702309  50.3244362   9.0314999  48.9509888  50.2985458   8.4783468
  47.7711601  51.1737976   8.8429270  47.6766930  48.7142982  67.7110291
  47.6975365  47.9026566  68.2180176  47.5363655  48.4291611  66.8081207
  58.0537491  67.9130402  88.4718399  58.5153580  68.6601715  88.8525467
  57.6236954  68.2682571  87.6939621  17.7505322   5.9950395  11.6318016
  17.2153263   6.6349983  12.1010971  17.6625175   6.2388887  10.7103767
  76.2654419   0.0901472  47.2480049  77.2217484   0.0628391  47.2790451
  76.0573578   1.0095220  47.0816193  27.0348740   9.3578491  37.6466866
  26.3490143  10.0082521  37.4956818  27.5666256   9.7295017  38.3504982
  54.5183754  41.0513840  10.1018066  55.1849670  40.4359703  10.4070072
  54.9241066  41.4935684   9.3560953  48.3009224  45.7732315  42.0404778
  48.2937088  44.9572372  41.5401459  49.0954666  46.2232246  41.7533493
  21.1543961  49.8353119  18.0744591  21.3607426  49.9746933  17.1502151
  21.7503605  50.4192123  18.5436249  57.4681320  62.3263435  48.9022102
  56.5595779  62.4606972  49.1718521  57.9655609  62.9691811  49.4077339
  57.5986862  21.2020550  38.9260979  57.6842384  21.1326809  37.9752541
  56.7930107  20.7268848  39.1293907  70.1528473  66.6368561  18.5312576
  69.4061203  66.0575180  18.6829052  69.8889008  67.4731903  18.9148083
  19.1318188  42.7432938  19.7505245  18.3781242  42.5980072  19.1786232
  19.6281261  43.4396591  19.3204212  18.7260017  49.7207298  87.4231186
  18.0842152  49.6786880  86.7141953  19.5244713  49.3517952  87.0455399
  40.2365494  52.5609322  79.2775955  40.2489510  51.7597656  79.8012466
  40.8810425  53.1310959  79.6968536  81.8603973  48.1914406   7.4087200
  82.3212585  47.7981415   6.6676717  80.9463196  48.2327728   7.1276851
  37.3303642  38.5778084  82.6264420  37.2312660  38.6262970  81.6756210
  36.4568672  38.3533554  82.9471588  20.2478447  43.8990097  72.0043182
  20.3551846  43.6027069  71.1004791  20.0954704  44.8411560  71.9310074
  50.4602165  60.0001717  58.1537514  50.1818810  59.4230652  58.8648834
  51.2076263  60.4787712  58.5122986  85.9247742  20.8663006  39.6550102
  86.7133408  21.2406368  40.0477829  85.2431946  21.5182152  39.8183937
  41.4956894  19.0004539  81.6906281  42.0514908  18.8508015  82.4554291
  40.7370949  18.4339046  81.8312988  48.4710655  35.9892921   2.6153202
  47.6764336  36.4884186   2.4264596  49.1865120  36.5893440   2.4048331
  67.2832947  69.8728867  35.4348068  67.3769684  68.9202957  35.4407463
  66.5603714  70.0462189  36.0377808  20.2651138  24.1718369   2.1336286
  19.7944794  24.9762154   2.3520548  20.7783699  23.9743767   2.9170887
  43.7252312  46.9365540  19.6240273  44.2989044  47.6347542  19.3083611
  42.9034500  47.0698357  19.1516457  66.0529327  47.7661552  83.9710159
  65.9739609  46.8222580  84.1090393  66.9735641  47.9581032  84.1494446
  29.9917889  63.5542831  60.4724617  29.2568779  63.0995178  60.0609703
  30.7682476  63.1814308  60.0549355   0.4464006   2.9267111  48.8658257
   0.8712906   2.0734255  48.9530296   1.1225146   3.5573752  49.1135445
  26.0623760  42.4344826  10.4510765  25.4349213  42.2345886  11.1457529
  26.2887669  41.5816231  10.0801220   5.8209219  61.1135368  35.4100761
   5.6311274  60.2993355  34.9439354   5.3529434  61.7868958  34.9163017
  66.6299362  24.7961349  13.5464277  67.5313644  24.9470139  13.2620039
  66.5766602  25.2146473  14.4056377  24.0482197  47.4307175  81.7230301
  23.1532879  47.5744858  82.0306931  24.4571972  48.2952003  81.7635269
  19.3607502  31.6761837   9.0782995  18.7041035  31.4281292   8.4275188
  18.9252567  31.5440102   9.9203844  56.0330505   2.3167810  23.5392971
  55.2679291   2.3850880  22.9681931  56.6149025   1.7051713  23.0880604
  50.8716965  34.5890923   3.6148844  50.1086197  35.1093254   3.3632941
  50.5343170  33.9636726   4.2561784  11.5042191  58.1814995   4.5948400
  11.3237123  57.5386314   3.9090049  11.6980886  57.6557655   5.3708897
   2.7718654  27.7917061  18.0802917   2.7984407  26.8772640  17.7986526
   3.4131923  27.8427677  18.7890415  61.1150475  70.5047989  37.9461327
  60.8500710  70.7463760  38.8336334  60.8153763  71.2318802  37.4004326
  11.1732435  11.8434029  60.1248817  12.0237236  12.1509819  60.4384270
  10.7206888  12.6379452  59.8418083  24.9459877  26.1223240   5.9646449
  25.0505276  26.9554653   6.4241900  25.8317471  25.7627182   5.9162188
   3.1770484   9.5684538   2.3674219   3.2436783   9.5786095   3.3222461
   4.0757532   9.4353514   2.0660162  60.7778740  54.8730621  53.5694160
  61.0181351  53.9635658  53.3924332  61.3188934  55.1222534  54.3187027
  36.1777954  15.0296354  77.5533829  35.3842888  14.5590868  77.8086624
  35.9894791  15.9455137  77.7581711  71.1574326  55.0125389  45.1405411
  71.6693268  54.3701134  44.6491241  70.7290573  55.5423622  44.4682159
  20.6278038  46.6326141  22.2253571  19.9739723  46.9819489  22.8309155
  20.1595974  45.9619675  21.7281170  48.7798882  63.3406639  51.6870651
  49.7353020  63.3878784  51.6526527  48.5711327  63.3891258  52.6199646
  72.8784409  62.7408676   7.1236625  72.9204407  62.5822487   8.0666933
  72.3396759  62.0261536   6.7843289  54.5638504  34.6986504  20.0563850
  54.6319084  33.7710648  19.8301373  54.7472496  34.7302475  20.9953194
  50.8809967  15.0480537  14.1110659  50.0219498  15.1814747  14.5116520
  51.2301445  15.9314833  13.9932508  67.2996826  21.5274353  65.8982773
  66.6386642  22.0140781  65.4058685  67.8330307  21.1016502  65.2270966
  31.4588280  32.4472733  72.7178345  32.1356964  32.2315407  73.3593445
  31.7537022  32.0292969  71.9087753  49.0195808  29.1992283  67.1179733
  49.1035423  28.9042854  66.2112274  48.2539978  29.7737617  67.1130371
  78.4277802  69.6973801  62.5316582  78.9381714  70.4755630  62.7556267
  77.7437515  69.6590118  63.2001343  63.7032471   4.6002264  71.6420975
  64.1090012   4.3441434  70.8138351  64.1508636   4.0706024  72.3019257
  38.0833931  63.8866577  63.9645691  38.6387672  64.2214813  64.6686172
  37.2369499  63.7276192  64.3822708  67.5499496  65.3422089  46.2194366
  66.8840866  64.8621826  45.7270622  67.1364136  65.5289307  47.0622635
  27.4524765  69.3015823  58.2996750  27.2774296  69.4229813  59.2328682
  27.8223152  68.4208755  58.2379494  84.7095795   4.9290729  25.6915798
  84.3738022   4.3087821  25.0444927  84.0875549   4.8782768  26.4173450
  20.3172531  13.5556240  60.4571571  20.9298420  13.0372896  60.9789772
  20.8399487  13.8753271  59.7217598  32.6726112  40.0335503  15.5351982
  32.7987976  39.2116280  15.0611219  33.5461311  40.4227753  15.5764866
  25.4292126  24.8221970  81.6863785  24.6537151  25.0602837  81.1782913
  26.0116997  24.4037552  81.0524597  75.7770157  43.5324135   8.8851938
  75.5152206  43.0952835   9.6955080  75.3382721  43.0372734   8.1934061
  50.7014503  40.1634216  38.6994896  50.1835098  40.1759491  39.5043564
  50.9098663  39.2391891  38.5631523   2.2930467  11.0742369  22.2527428
   3.1687510  11.0468388  22.6382599   2.1656380  10.1995983  21.8853111
  23.6066875  22.7355232   4.3270869  23.9546890  23.6263218   4.3671470
  23.6643124  22.4972553   3.4018087  69.7453766  25.5231056  61.4017525
  69.2576370  26.2806263  61.0784874  69.6601486  25.5719032  62.3539009
  84.2837677  11.2576761  27.6571293  83.7178421  11.9525709  27.9934006
  84.8761749  11.7032671  27.0515423  62.8694191  67.4399261  22.6710491
  62.2772522  68.0684052  22.2580280  62.4458313  67.2215729  23.5011883
  27.9227524  52.3544540   9.5079021  28.7437897  51.8653755   9.5620413
  28.1435928  53.1382637   9.0048056  64.4924393  41.7569466  40.2902603
  65.4330902  41.7595444  40.1130447  64.2867279  42.6666946  40.5053749
  17.6362553  45.5232048  44.1864204  17.7244549  44.5973969  43.9598541
  17.7100506  45.9825859  43.3499069  62.0392418  39.7482986  18.6859665
  61.9419785  40.1042023  17.8027306  62.6207657  40.3653641  19.1301441
  75.1970215  42.7071533  16.5361328  74.7697906  43.5545158  16.4109173
  76.0089722  42.7716713  16.0333385  70.1794739  24.1952400  78.4930801
  70.9141388  24.7906475  78.6413574  70.5703354  23.4353218  78.0618210
  62.7321472   1.0919508  32.4903526  62.9233742   0.9649610  33.4196205
  61.7770920   1.0586885  32.4356308  79.3167114   0.1930283   2.2978210
  79.1070862   0.9960501   1.8209093  79.9797363  -0.2391371   1.7594308
   7.7749963  69.3788986  11.4535637   7.0098438  69.6823502  11.9421244
   8.3652210  69.0334091  12.1232672  58.5621223  49.8049698  22.3657589
  57.8310509  50.3425484  22.6703510  59.2048264  50.4360428  22.0418682
  75.6957779  41.8957863  54.3016434  76.0364609  42.7689896  54.1075363
  75.9345627  41.3703232  53.5380325  76.0257797  16.2110176  76.9344254
  75.1716080  16.1571617  76.5057907  75.8231354  16.2399654  77.8694763
  47.1665115  59.0270081  78.2288895  46.3683548  59.3180847  78.6698608
  47.8656540  59.5372696  78.6376190  48.3998184  64.7705917  29.5544872
  48.5659294  65.5207520  30.1253662  48.8318024  64.0367050  29.9915600
   7.3200836  26.4032059  83.7613907   6.7785506  25.9931240  84.4357834
   8.0733776  26.7516575  84.2382126  27.5661564  59.5704498  75.2338028
  27.7864857  60.2161217  75.9052200  26.6797733  59.2860680  75.4567032
  31.0850258   5.7549095  44.3874817  30.2767868   5.8857098  44.8833351
  30.8403759   5.9329963  43.4793701  13.0333376  19.7122917  20.2630005
  12.5990610  20.5290699  20.5089836  13.8732319  19.9886036  19.8963108
   3.9666958  46.7341118  69.1245956   3.1211219  46.6493492  69.5651093
   3.7648690  47.1815758  68.3028412  84.9547348  18.3039742  69.5672989
  85.2024078  17.5492077  69.0332413  85.7796249  18.6138973  69.9411087
  50.2338600  46.6504974  15.7644577  49.6873055  45.9223709  15.4689150
  49.9411926  46.8217125  16.6595917  17.6493206   2.6684144  13.9481001
  18.4534969   2.7529044  14.4603443  16.9457855   2.7404246  14.5931463
   6.4412789  43.1360435  14.1155481   7.3017197  43.0013580  13.7183914
   6.5638285  43.8791618  14.7062998  31.5290260   6.1217017  75.0661850
  31.5101166   6.8481722  75.6891708  31.3124847   6.5224376  74.2243118
  17.2894173  57.7013092  49.7043724  16.8064995  57.6058846  48.8834457
  17.1181450  58.6019096  49.9797096  55.2968597  15.1081238  37.0542221
  55.8174324  15.6603432  36.4708786  55.1853867  15.6344013  37.8459549
  27.8628426  47.3739204  20.5392151  27.5500317  47.2539139  19.6425667
  27.4424343  48.1819611  20.8334198  77.8793793  53.1375847  50.4519806
  78.7591553  52.7725716  50.3571472  77.8917389  53.9335518  49.9204597
  11.5286922  44.7099533  84.0188065  11.3096952  45.5356293  83.5869064
  12.3598146  44.8838539  84.4606476  11.1211414   0.4614193  49.2158966
  11.5189743  -0.2218449  48.6763496  11.0755758   0.0785847  50.0920181
  78.1210251  59.7420654  30.7025146  78.2923279  60.1411438  31.5555229
  77.6764679  58.9195976  30.9078140  24.6535149  39.9224205  77.0296249
  25.2271919  40.6200218  76.7126389  23.7681026  40.2538986  76.8799667
  46.4393463  54.6270599  41.9410896  45.6480789  54.5957031  41.4033661
  46.3547630  53.8814812  42.5353889  23.5044212  55.7196236  51.4879875
  23.6874275  55.1095123  52.2024841  24.1307697  56.4321899  51.6151543
  15.5683928  23.2849884  22.3005905  15.9085312  22.5151501  21.8446445
  16.3342896  23.6677322  22.7285385  45.5535240  63.9622841  67.3443604
  45.3652000  63.8491631  66.4127121  44.8514938  64.5293274  67.6635056
  73.2889786  14.6678705  34.8295746  72.9805984  14.3814516  35.6892853
  72.5309677  15.0986691  34.4345245   7.4904480  67.6852951  62.5659904
   8.4397631  67.5641937  62.5468178   7.1342010  66.8071289  62.4313278
  66.2343903   5.9075575  23.8682938  65.5721970   5.2435575  24.0602016
  66.0555725   6.6113954  24.4918861  80.8716660  62.6350555   4.4167056
  81.4334106  63.2517090   3.9472218  80.9780731  61.8082199   3.9463258
  80.6537018  19.1558781  36.7539711  80.4383011  20.0837002  36.6591988
  81.2852097  19.1288147  37.4727898  63.3101997  53.9571609  45.1385574
  62.3604088  53.9594231  45.2574081  63.4512863  54.4459763  44.3277626
  17.2550011  49.1985435  74.2116241  16.9245892  49.8888130  73.6366501
  17.9504700  48.7780685  73.7059021  79.6122208  40.1086578  46.7274399
  79.5980606  40.9577370  46.2857437  79.8039093  39.4798889  46.0316391
  28.9212456  41.5458260   0.0654517  29.2990475  41.8917274   0.8740627
  27.9778004  41.6692047   0.1699484  43.3600273  23.6823120  72.0574112
  42.9541321  22.9425793  72.5093765  43.2344856  23.4929924  71.1275558
  31.6468163  44.0375290  55.7367554  32.1757736  43.4250450  55.2255821
  31.2074852  43.4896164  56.3871460  53.5739365  41.4671593  57.3387070
  53.6470070  42.3738289  57.6367760  52.6316719  41.3040886  57.2965851
  82.2835388  41.8593636  29.9467392  82.8058853  42.5299568  29.5066357
  81.5348587  41.7200584  29.3668232   6.4654369  45.0142174  67.4514771
   7.0437956  45.7429237  67.2262726   5.5844145  45.3861656  67.4104309
  81.3294601  66.5046234  39.4480591  80.8727570  65.7042236  39.7069244
  81.9368973  66.2231903  38.7639198  10.5792227  20.9184875  73.9901428
   9.9647617  20.4889946  74.5852890  10.0590715  21.1177559  73.2117004
  48.1503181  61.2089195  70.7697296  49.0232658  61.3030281  71.1509552
  48.0514412  61.9757729  70.2054672  76.0127411  55.1743546  73.2874069
  75.5484543  54.3406258  73.3620148  76.6088028  55.0512924  72.5486221
  50.3980217  42.4758339  10.0553045  50.6708946  42.5760880  10.9672918
  50.7275238  41.6141434   9.8000536  39.8022804  26.2150230   7.2818441
  39.9568443  25.4279499   6.7594852  40.6301956  26.6939430   7.2440910
  15.1612854  19.0935230  23.3551102  14.3256197  18.6577511  23.1877842
  15.8045921  18.5690441  22.8783398  51.8882751  18.3634892  10.4020290
  52.3226242  19.0588684  10.8960123  51.7282791  18.7464619   9.5394945
  54.9121132  61.9930534  77.0315704  55.3800278  61.4452744  77.6618271
  55.5780258  62.5921516  76.6941299  82.8511200   7.7885838  50.4195557
  83.3905640   7.5066319  51.1582947  82.1415863   8.2915611  50.8193092
  54.4522095   2.4290996   3.6387155  55.3865128   2.6267197   3.7039399
  54.0468102   2.9591296   4.3249745  65.9269028  22.2220097  30.0869656
  64.9773941  22.1704350  29.9774265  66.2786789  21.6639977  29.3933468
  61.7826653  26.7575665  63.4230003  61.2230415  26.9028015  62.6601372
  61.1734924  26.6967697  64.1588287   5.1680164  54.2571259  58.0982628
   6.1220737  54.3125153  58.1524773   4.9926920  54.0323105  57.1845055
  73.1591263  60.2816353  27.9359074  73.7126617  60.7256660  27.2935143
  73.7624969  60.0185776  28.6308727  13.3280869  54.0350456  50.2997780
  13.9341125  54.0634880  49.5594025  12.7308893  54.7676964  50.1487465
  81.1688309  60.8082428  53.4813423  80.5096893  60.6361465  52.8089218
  81.0940704  60.0689774  54.0847740  35.5367355  16.6445618   3.1060996
  35.1220207  16.9098320   2.2852011  35.8251610  17.4655113   3.5049546
  76.6531296  65.4489517  61.6694756  76.6840439  66.4037933  61.6098976
  75.7235336  65.2453842  61.7726250  84.6614227  63.3764534  15.3428936
  85.4644241  62.9939919  15.6966648  83.9774323  63.1067352  15.9557896
  45.5269279  70.1787643  20.3057384  44.7184677  70.3822937  19.8354282
  46.0616188  70.9675522  20.2154369  54.4841576  18.7846718  45.6978989
  55.0120621  18.9705887  44.9213791  55.0883408  18.8995285  46.4313850
  49.7822304  60.0518608   4.6616869  50.1536789  59.9632683   5.5394163
  48.8574791  59.8294563   4.7693887   5.5802445   5.3189602  34.9201508
   4.9810991   5.5705619  34.2173309   5.4998760   4.3666587  34.9739494
  26.4735813  14.5533991  67.7604675  26.7231693  15.4631929  67.5985641
  26.4612026  14.4745464  68.7143326  21.6543121  19.9636574   2.3168766
  22.3651791  19.9510689   2.9577668  21.9518661  20.5727425   1.6410742
  64.5775833  19.1103363  14.5112228  63.6576385  18.8463154  14.5264626
  64.6679077  19.7068501  15.2543535  11.8750820  66.3158875  27.8720303
  11.1475945  66.8656769  27.5809517  11.4818783  65.4552765  28.0168667
  84.6686325  54.4927025  39.3512497  85.3743286  53.8861122  39.1270218
  85.0154572  55.0038376  40.0824699  20.5752678  65.5754089  70.7159271
  21.5115585  65.4097900  70.6056519  20.5269203  66.4795151  71.0265656
  25.4494762  50.3525963  62.4662895  25.9826469  49.5784531  62.2855721
  24.5495777  50.0265465  62.4766541  67.5675201  14.4876518  30.0467072
  66.7926178  13.9830294  29.7995033  67.3424149  15.3928728  29.8319187
  32.2856216  14.3913174  69.6890488  31.6689262  14.5535765  70.4029083
  32.8273621  13.6663151  70.0006943  54.8341637  62.4506798  68.5631866
  54.7555008  63.0299149  67.8052139  53.9479828  62.4040527  68.9219894
  57.3158417  34.7388916  26.2431011  57.5009308  34.0409317  26.8714561
  57.8504410  34.5216026  25.4794121  77.3509293  22.4891281  66.5268707
  77.2888947  22.3041172  67.4639664  76.4416656  22.5421181  66.2324905
  82.0761948   0.8863280  29.2787781  82.5279922   1.2496130  28.5171108
  82.4968185   0.0390464  29.4251537  51.2618599  63.6956100  22.7799778
  52.0918083  63.8037987  23.2444267  51.1804276  62.7504997  22.6520405
  35.7769241  19.3542156  15.1207552  36.1511497  20.2062149  15.3450003
  34.8313637  19.5027866  15.1118755  34.4993248  12.8493061  70.2385406
  35.3909378  13.1779623  70.3536224  34.6098061  12.0053463  69.8006363
  26.0164642  13.6031952  86.9887772  25.5133209  12.8061733  87.1556091
  26.9174099  13.3686781  87.2113342  60.6733475  11.0119839  59.1233482
  61.4031601  11.2295170  59.7032509  61.0742607  10.5161486  58.4094543
   6.0134563  65.1799698  60.8750572   5.9702454  66.0184860  60.4154320
   5.3479385  64.6391602  60.4497986  35.8871384  58.1012955  43.7798195
  35.2233658  58.7872086  43.8516579  36.6365433  58.4410477  44.2688980
  72.6833878  52.2174377   9.9042006  73.3453140  52.3589706  10.5809975
  71.8859558  52.0059357  10.3895931   0.9014982  24.7841568  75.9514618
   0.0271517  24.4215050  75.8092194   1.4403597  24.3850765  75.2683868
  30.8749256  30.7041149   0.3604256  30.6866970  31.0569839  -0.5092205
  31.6230354  31.2150593   0.6694512  53.6578751  52.2798882  80.9114380
  54.0438538  53.0112724  81.3934479  54.2716293  51.5569305  81.0413208
  38.8276711   1.8721150  27.4197769  39.5087967   2.4710107  27.7257557
  39.2881203   1.2576288  26.8482647  79.4833832  19.9307232  71.2759247
  80.1939926  19.7555199  71.8928299  78.7476578  19.4144306  71.6051407
   0.4731017  56.9048386  35.1384010  -0.2004260  56.5942001  35.7434578
   0.7579999  57.7414055  35.5061226  20.7849522  45.7320480  32.6236649
  20.2350883  46.0820236  31.9226646  20.3785324  46.0518112  33.4291496
  51.1563034  61.0106544  14.0437021  50.8139534  61.8671112  14.2996445
  50.9085846  60.9188881  13.1236773  57.9241982   9.9551668  65.0671692
  58.1687241  10.8500729  65.3029251  57.1657715  10.0576715  64.4922638
  19.7430325  19.6573486  74.0080490  19.0376110  20.1629295  74.4117813
  19.3023491  19.1038837  73.3632965  50.1408691  62.3397026   0.3271387
  50.5580902  62.0410728   1.1352096  50.2510185  61.6104088  -0.2829650
  26.6833706   7.8589230  56.0374374  27.3173199   7.8152518  55.3215942
  27.0805607   7.3453341  56.7407837  82.4947281   5.5543709  22.7505665
  82.9823837   4.7445412  22.6002388  81.5975876   5.3455601  22.4902420
  39.9837303  48.2587013  13.9370213  40.8730392  48.0013237  14.1801720
  40.0328674  49.2072601  13.8184853  59.3524323  39.3875999  61.1899910
  58.5979271  38.8573227  60.9335594  59.7249336  38.9264870  61.9415512
  45.5355415  62.8449745  71.4719620  46.0767593  63.4658852  70.9843292
  45.7956810  61.9865494  71.1377945  12.3467894  42.6454849  20.7132645
  12.9902153  42.0085945  21.0240707  11.8359365  42.8690300  21.4912682
  39.9352722   1.4700119  49.1142883  40.3254814   0.6659293  49.4569550
  40.0086365   1.3856111  48.1636429  65.1951904  58.4048996  12.0562744
  64.7430725  57.5644913  11.9819040  65.9456787  58.2238731  12.6221609
  37.9536514  51.5528679  54.6886520  37.2435684  50.9117012  54.6582108
  37.6537857  52.2691040  54.1289024  65.4858932  68.7344818  13.7766762
  64.5338440  68.7683945  13.8698397  65.7126160  67.8236389  13.9642525
  65.7536469  25.3772602  16.2139111  65.7017365  26.3123341  16.4118404
  65.0481491  24.9841614  16.7276917  57.8862000  70.7950363  20.0873852
  58.8428192  70.8064575  20.0560989  57.6180077  70.6859131  19.1750278
  40.0966606  25.6977253  14.4073400  39.8052826  26.4935284  13.9623346
  40.9833069  25.9009132  14.7053413  79.7568512  26.2056942  77.6262131
  79.8116608  25.4235401  77.0771561  80.6132355  26.2612057  78.0501862
  17.1845932  45.6801682  66.2241516  16.2904758  45.8697586  65.9398193
  17.2484703  46.0758057  67.0934143  60.3980522  28.6366844  49.4374962
  59.6619911  29.2377987  49.5519829  61.0296173  29.1285896  48.9127235
  74.4934311  52.7465477  73.6053696  74.6028442  52.0869064  72.9204407
  73.6031342  52.6100197  73.9293671  33.2491989   3.3055811  80.8186035
  32.8874855   3.1023645  79.9559937  32.6264725   3.9246449  81.1996613
  31.1454906  55.0657654   4.6962919  31.2045994  54.1156387   4.5963302
  31.4098663  55.4131317   3.8444262  41.5427094  26.8848248  76.3182755
  42.4240913  27.2150650  76.4924469  41.1012383  26.9213295  77.1668015
  52.8636436  -0.2855908   9.1548777  52.8193130   0.5629731   8.7141895
  52.4833221  -0.1269518  10.0188351  37.0109673  55.9823227   3.9994678
  37.2736664  56.7042694   3.4284899  37.2229538  55.1932487   3.5008154
   9.0314627  55.1501350  20.4037209   9.6515999  55.4909401  19.7591190
   8.3181028  55.7883377  20.4105206  53.2489319  35.9835472  56.2641869
  52.8344879  35.1266060  56.3647804  52.8223419  36.5344353  56.9205208
  12.2142687   6.6083632  74.1547546  11.4799709   6.7258320  73.5520630
  12.9834757   6.8708625  73.6491394  49.9936981  52.7269173  61.8903847
  50.8118286  52.8862839  61.4197540  49.7300606  51.8469772  61.6212578
  47.5678711  42.8578415   1.9944333  47.6920776  42.8313408   1.0456963
  46.6179543  42.8488884   2.1119702  77.4702759  15.8003445  52.1770477
  77.7360687  15.4641972  53.0329628  77.8639984  15.1946630  51.5490608
  72.2563019  51.9361458  74.4559708  72.4394836  51.0757904  74.0785294
  71.3056564  52.0281258  74.3923492   2.9176598   2.3931890  22.2497749
   3.0034869   1.5146384  21.8796196   3.7840695   2.7850132  22.1400490
  62.0650749  70.8143616  10.2829905  62.9015656  70.5367966  10.6564484
  62.0767479  71.7689667  10.3524532   8.8986702  24.4720383  53.4017143
   9.6198759  23.9123650  53.1138611   9.1588058  25.3538704  53.1353836
  50.2958641  64.1670685  68.1663895  50.6227112  64.8476410  68.7547913
  49.7008018  64.6275406  67.5746994  10.1447010  64.5378494  76.5332794
  10.6993361  64.0202255  77.1169586  10.3624039  64.2242432  75.6555023
  29.5273418   0.2249195  84.2680130  29.1135063  -0.4852827  84.7585068
  29.0457630   1.0094773  84.5302734  63.3104973  27.7510490  41.0156555
  63.1149368  27.4061584  40.1444283  62.5019569  28.1845932  41.2886658
  79.7395401  41.1579742  80.5959244  79.6599197  40.2123985  80.7215347
  79.3108215  41.3250275  79.7565613  79.9669418  42.4005775  77.2908936
  79.2290268  41.8142357  77.1238022  79.5783005  43.1540604  77.7352448
  85.3068848  23.5379581  13.4350901  85.4663086  23.4306374  14.3727989
  85.2934189  24.4856758  13.3013554  51.9150391  27.4260082  62.2279510
  52.2532463  26.5379238  62.3426361  51.2676582  27.3471394  61.5273018
  12.8231163  43.1736832  87.8953552  13.7159090  43.4706306  88.0713501
  12.8899670  42.2193451  87.8637848  65.5129395   1.1589381   8.3159647
  65.3487167   0.2458781   8.0802040  66.3479614   1.1391172   8.7834997
  71.0933609  70.2739334  79.6248627  71.8575134  70.0043869  80.1344147
  70.4857025  70.6286316  80.2738342  78.1011810  63.4244690  10.4095697
  78.3311005  64.1894379  10.9370060  78.3595276  62.6761398  10.9476175
  39.4807739  68.9106979  14.0796499  39.2372398  68.0306549  13.7925177
  40.3365860  68.7993011  14.4936666  61.4252815  10.8134470  18.5790997
  60.8140144  11.4809752  18.8905296  61.5396652  10.2261610  19.3262558
  57.2916451  13.3572912  37.3358459  57.2249680  13.2660093  38.2863464
  56.6026573  13.9808207  37.1061935  24.9042187  62.6196289  39.0837936
  24.6468945  63.5144386  38.8616943  24.3820038  62.4051018  39.8567772
  48.3400269  42.6646576  17.7919197  47.4749031  43.0675850  17.8656960
  48.4640732  42.2095070  18.6247959   1.3020377  44.7969742  13.0944605
   1.0946056  43.8625183  13.0960293   2.2162454  44.8389053  12.8139296
  42.4870186  49.0529442  51.6428680  41.7961578  48.5686607  51.1907463
  42.6875267  48.5212097  52.4131165  22.8054848  16.7476025  60.1556473
  22.8803444  17.1476536  59.2892838  23.1946316  15.8791351  60.0528717
  63.2889137   3.6214118  50.5748672  62.6628609   4.0395532  51.1660080
  62.8566017   3.6330824  49.7209358  16.8367481  52.7989235  44.1470070
  16.5707779  51.9030495  43.9398727  16.0269432  53.2333145  44.4148750
   2.5407407  46.0216408   3.3762279   2.0418725  45.4180679   3.9267368
   1.8908163  46.3965378   2.7818522  41.4993134  50.4645996  88.0355606
  40.8382187  49.9835663  88.5333481  41.6803169  49.9083748  87.2778778
  52.3016357  28.3252754  18.0550594  51.9461403  27.6195450  18.5952415
  52.4848557  29.0318203  18.6742992  20.6579742  50.0045738   8.7025995
  20.1519527  50.0867538   9.5109434  21.4195404  50.5683136   8.8384094
  29.4502678  60.7297783  41.8248177  29.5686226  61.6332169  41.5315170
  30.1927929  60.2567673  41.4491196  23.8716812  32.2983894  65.0212708
  23.0478249  32.4451065  64.5565491  23.9166107  31.3490601  65.1352310
  63.2410583  15.1225624  83.7714691  63.4033012  15.8185892  84.4082260
  64.0307388  14.5823917  83.8006668  15.7478542  12.9109802  59.8682022
  16.1090431  13.2527122  59.0502815  16.4526196  13.0223866  60.5062637
  47.8515282  41.2812958  12.5663519  48.0356102  41.2821693  13.5056839
  47.4630013  42.1396713  12.3976259  18.7675514  13.0762691  82.2187653
  18.6639957  12.2107716  81.8232651  19.4555511  13.4951515  81.7016373
  67.2480698  13.1088972  79.1493912  67.6348190  12.4925900  79.7713394
  66.3283081  13.1651325  79.4084473  85.3784485  49.6797638   6.4214468
  84.7869568  48.9272575   6.4111624  85.2949219  50.0620193   5.5478706
  76.3403397  29.1324692  81.1040649  77.0158463  28.6124649  81.5394058
  75.5335541  28.6340065  81.2339172   8.8070526  68.2775192  67.1990891
   8.7944088  69.0954208  66.7019806   8.8948860  67.5944977  66.5342636
  24.9816608  45.8942032  51.9144516  25.1705627  46.8224297  52.0520973
  24.6895008  45.8416176  51.0044441  28.6431179  37.1498756  62.7133713
  28.1292782  36.4692268  63.1480217  28.1838303  37.9642982  62.9183083
  79.9798584  31.3329334  26.7075977  80.3398361  32.1543045  27.0422535
  79.1268158  31.2537174  27.1345425  33.9645538  52.6018829  64.0996933
  34.5316162  52.4204865  63.3501854  34.5500908  52.9760056  64.7580338
   1.0833002  41.3650627  15.9579697   0.3361183  40.9320107  16.3707848
   1.6391617  41.6329613  16.6897335  53.0187149  25.0630207  63.0357971
  52.6451530  24.2281284  63.3179970  53.1816368  24.9482708  62.0995712
  64.6429443   2.6102211  63.7020721  63.8898621   2.1820712  64.1092529
  65.0389252   1.9305243  63.1566925   0.4711319  35.4453926  45.4355469
  -0.2581104  35.3236046  46.0434990   0.0940343  35.2761002  44.5722008
  57.2231941  62.2443962  33.7786789  57.2336273  61.2918930  33.6845207
  57.4091034  62.5740395  32.8994713  32.7509842  33.2263184  78.2718048
  33.2824402  32.7820358  77.6111984  32.5915833  32.5590820  78.9393539
  11.8850460  53.4100380  54.9038277  11.1239939  53.4333611  54.3237495
  12.3191891  54.2514648  54.7632904  15.3944578   5.5013280  85.9966812
  15.1551285   4.9105067  86.7107468  16.1839008   5.9447699  86.3071213
  56.9350395  68.9948273  81.9192276  57.2970657  68.1097794  81.8761368
  56.7425270  69.2194366  81.0088806  58.5594101   3.2123327  78.1310577
  58.4573021   2.8661387  79.0176010  57.7048759   3.5890915  77.9211578
  38.9661446  30.4407902  83.6251907  39.1593590  29.8008595  82.9400635
  38.4017181  31.0854530  83.1985016  51.8661079  11.3793926   1.5209404
  51.8368378  12.1783590   2.0472755  51.8404083  11.6881371   0.6152648
  74.5520782  45.6642532  24.8059502  74.0028534  46.0026169  24.0987778
  75.4483643  45.7921600  24.4952412   3.0161352  13.5259686  87.1886826
   2.8341148  14.3489246  87.6423874   3.0849516  12.8767090  87.8886566
  26.5763245  68.8873901  88.4750671  27.1629105  68.9280014  89.2303772
  25.9486866  69.5952301  88.6209106  65.4426651  64.6839066  54.4966774
  65.0443878  65.5234756  54.7262955  64.9232330  64.0347061  54.9709854
  72.8603821  71.1489029  18.2595806  72.1126404  70.9080276  18.8064804
  73.4039841  70.3613739  18.2367477  38.5386887  62.8922882  85.0630722
  37.6758995  63.0254631  84.6705246  38.7312355  63.7194901  85.5045395
   6.2698135  20.6114769  74.3647003   5.4783478  20.1740303  74.6784744
   6.9806929  20.0118046  74.5911407   8.0253115  19.6946316  71.7852707
   7.4606910  20.0451736  72.4741516   7.9762444  18.7450600  71.8954544
  59.9211349  56.1909752  45.0458412  59.1300850  55.8464508  44.6313782
  59.6926727  56.2664375  45.9723091  78.6547470  63.9862709  16.6403065
  79.1065750  63.5093803  17.3364773  79.3399048  64.1841202  16.0018368
  18.3399944  31.6840229   1.5427170  19.2780266  31.8537922   1.4560931
  17.9209900  32.4278793   1.1098826  28.3639202  60.7999001  87.3471298
  27.8976612  60.4331055  86.5959396  27.9447956  61.6469803  87.4988632
  77.2224731  55.8009872  16.6331005  77.7123566  54.9892120  16.5016880
  77.0777512  56.1391296  15.7493877  27.5850849  39.1822891  85.0665207
  26.8344307  39.5886536  85.4996719  27.2307892  38.3864365  84.6698761
  65.7454605   5.2015147  14.9487963  66.5668488   5.5964241  14.6562271
  65.0641708   5.7309241  14.5342970  59.0020676  20.7638855  59.0090332
  58.2510376  20.1840439  59.1354103  58.9400024  21.0403900  58.0947456
   2.0074563  58.3871269  75.9368362   2.1593115  59.2767258  76.2558823
   1.5595845  57.9468117  76.6591721  33.1083031  64.3570175   7.3199639
  32.2710457  64.6983566   7.0057716  33.4476585  65.0448685   7.8926191
  26.1146526   3.8756757  21.1181011  25.2892990   3.7422264  21.5841675
  25.8850880   4.4429779  20.3820992  32.0826225  17.5004864   5.5924087
  31.1772480  17.8008881   5.6716914  32.0196419  16.5453930   5.6003356
  66.7629318  34.2134819  67.7684250  66.6396790  33.8344269  68.6386871
  67.3271027  34.9726295  67.9155502  18.9243908  19.1300201  12.3677874
  19.3196831  18.9555683  11.5136557  18.5088425  19.9866295  12.2689266
   3.2035894  36.1354637  67.7333832   3.8046453  36.7334595  67.2891235
   3.7538066  35.6633606  68.3583755  29.4285736  40.3452530  86.6378708
  29.0464630  40.2934303  87.5139694  28.8078403  39.8790703  86.0778809
  65.6459351  39.1053810   9.9266052  66.1689377  39.7452698  10.4095612
  65.0980301  39.6332893   9.3457928  69.2081985  50.9882202  57.5847702
  69.5584869  50.4670601  56.8623276  68.2830582  50.7464142  57.6279755
  66.0131912  24.9212952  53.6728477  66.0706024  25.1439342  54.6020241
  66.0603256  25.7639713  53.2212868  70.9383621  49.6581421  31.5330849
  70.4065704  49.2662086  30.8403950  71.5832062  48.9848213  31.7499752
   2.1017404   9.0729027  18.3994331   1.8625984   9.0112782  19.3242283
   1.7479883   8.2747889  18.0068703   6.0606151  69.9995117  27.6541462
   6.9848123  70.2065125  27.5154343   5.8015370  69.5209961  26.8666630
  51.9806290  17.2778854  69.3726654  52.5977631  16.8589020  69.9725266
  51.5153084  16.5498753  68.9607086  72.1989517  69.1765137  66.4359741
  71.8595505  68.2816010  66.4486847  71.4599533  69.7169418  66.7153549
  33.3698578  54.4154205  82.6207962  32.6647377  54.9653053  82.2792435
  33.6604385  54.8642616  83.4147415  82.6143036  41.1835823  74.7169800
  82.4290848  41.7823029  73.9934769  83.5027008  41.4090118  74.9929733
  77.0556870  47.7085152  29.1252975  77.5866928  46.9186325  29.0236053
  77.5186462  48.2250710  29.7848988  79.9713745  58.3393898  48.1889725
  80.6416092  58.5547256  48.8375511  79.1577682  58.6758537  48.5645561
  70.8207626  66.9457703  74.2324753  69.9721603  66.7875977  73.8188553
  70.9581909  67.8889236  74.1441269  24.5456772  33.5491943  16.5513382
  25.3761654  33.3291512  16.1293144  24.0583305  34.0320206  15.8838043
  73.4649124  26.5621738  54.8213310  73.3588791  26.3766098  55.7543678
  73.9690475  25.8210297  54.4855042  27.2469616  60.2830429  20.0224075
  26.5205536  60.1322250  20.6272373  27.9089947  60.7299194  20.5499001
  48.4767952  24.8730736   4.1700220  48.1054268  25.7421169   4.3219466
  47.7660751  24.2683144   4.3830328  10.7992764   1.9181310  88.4749985
   9.8617296   1.7976303  88.3242722  10.8581142   2.2359083  89.3759918
  12.7255964  27.6102829  12.9757528  13.5204239  27.5882854  12.4428396
  12.8148212  26.8650436  13.5697966  76.2199173  60.7126808   6.7239742
  77.1474915  60.8257561   6.5164876  76.1594849  59.8240051   7.0744529
  55.7606621   3.2393932  17.6867332  55.9450111   3.7845826  16.9218712
  55.4943542   3.8602650  18.3648415  56.5175247  29.9322472  60.2917404
  56.8467979  29.0372429  60.2094002  55.9346809  30.0430832  59.5405846
  75.9549713  39.9132080  44.9072456  76.0086212  39.1559029  45.4902039
  76.0941696  40.6670532  45.4804573  22.3764000  33.3155174  53.8512840
  21.9914780  33.9335136  54.4726906  23.2038651  33.0538788  54.2551117
  65.6334991  27.8563538  32.7090645  66.1224976  27.3846073  33.3832779
  64.9275436  28.2924728  33.1861954   9.7250290  59.5671692  19.9339466
  10.5158539  59.0998993  20.2031746  10.0184059  60.4650230  19.7789574
  57.4893341  21.7078114  56.6483154  58.2987213  21.7091103  56.1373177
  57.2351189  20.7860184  56.6919632  19.5153618   0.1216442  46.3863144
  19.4722424   0.9169515  45.8554115  20.0324421  -0.4891522  45.8611603
   6.8801837   5.8850589  87.5130615   6.7524123   6.6090112  86.9000397
   6.8298082   5.0989752  86.9692154   2.4298477  63.3181000  13.9883795
   2.0911870  63.1174355  13.1158695   3.1788456  62.7317467  14.0952721
  56.5817451  59.4507904  32.9645996  55.9625359  59.0791054  32.3363762
  56.9140282  58.6950989  33.4491158  79.6354828   2.5738678  29.7871399
  80.3672485   1.9675680  29.9017963  79.9486923   3.2080712  29.1422253
  83.8820343  27.5273476  23.1743793  83.1060028  27.1680260  23.6043797
  84.0309982  28.3660774  23.6109276  80.1784210  69.1240234  86.6992111
  79.4232483  68.5362473  86.7208633  79.9292450  69.8114548  86.0814896
  81.5681458   0.7343451   9.6900320  81.4741211   0.7961097   8.7394667
  81.3036041   1.5955743  10.0133438  21.2945824  27.4805050  53.3042259
  22.1965599  27.3561382  53.5995255  20.9820824  28.2367535  53.8008766
   5.2749019   2.1868150  65.6701660   5.5447469   1.3507538  66.0501862
   4.5218277   1.9684217  65.1211472   8.1447926  62.9222946  46.4777527
   7.3685956  62.7576675  45.9423561   8.5729179  63.6674156  46.0561714
  31.5623150  63.5237198  85.6783371  31.9730835  62.8159332  85.1818085
  30.6390018  63.2763824  85.7287979  30.8437996   2.2614541  55.8233986
  30.6890678   3.1636636  56.1032333  31.2237854   1.8343800  56.5911560
  25.2533360  35.4124451  72.9277039  25.0912247  36.3127251  72.6458435
  24.8476772  34.8723984  72.2494583  41.0896606  45.2529297  23.5731831
  40.7630005  45.2548790  22.6734486  40.3645592  44.9024200  24.0904884
  22.1681824  28.6477451  84.2665558  22.0604382  29.2456379  83.5268631
  21.8418102  27.8073997  83.9447861  43.7254562   7.5783057   8.7117014
  44.6091080   7.5993390   8.3443451  43.1962433   7.1508341   8.0383253
  41.7747879   6.5736284   6.9170346  42.1753922   6.3363113   6.0807171
  41.2273026   7.3320169   6.7137113  34.8768883  25.8088512  75.1961823
  35.3352966  25.0702877  74.7954102  34.0245132  25.4535389  75.4480591
  54.2012291  29.8631287  58.6102715  54.0613785  29.0190277  58.1811256
  54.2924957  30.4861431  57.8893318  56.0303230  42.1809540   0.5205827
  56.1642876  41.2640266   0.2807387  55.4748306  42.1461258   1.2993318
  20.5815487   1.2011273  81.0429688  20.1701946   1.8334402  81.6322098
  21.3670197   1.6460952  80.7247391   1.4109048  35.8595200  15.4623728
   0.7408621  36.4160080  15.0653887   1.3098770  35.0140114  15.0251741
  74.8624268  58.0951881  47.8939400  74.0576630  57.7147522  47.5419922
  75.5300522  57.4263535  47.7417297  15.8807507  67.6173477   2.5922203
  16.7101555  67.3019104   2.2333040  15.6180372  68.3241959   2.0026681
  78.6894760  30.1865425   4.4117999  78.5659790  31.0114136   4.8814487
  79.5735626  30.2470150   4.0499053   1.2353488  25.3708858  85.9593048
   2.1220920  25.2087173  86.2812042   0.7766596  25.7572861  86.7053146
  77.4754791  12.2052717  23.5840797  77.6000671  12.0465698  22.6483841
  77.6828690  11.3678513  23.9987431  14.2665787  11.7658777  14.3572178
  14.5857792  12.1116438  13.5236778  14.1969738  12.5339327  14.9242086
  20.7983227  55.0948372  87.7539215  20.8262005  55.0972748  88.7107086
  21.7049046  54.9406242  87.4882812   8.9971504  30.4724693  67.7055664
   9.0559072  29.7853603  68.3693848   8.1106768  30.3905544  67.3538742
  49.5476570  32.8584900  69.4475555  48.7456818  32.5380707  69.8603439
  50.2511520  32.3844376  69.8909531  81.5498352  21.0012131  30.6985264
  82.1619415  20.4618874  31.1992130  80.6842270  20.6943188  30.9682884
  43.2509270  36.6559677  59.8526077  43.6435471  35.9769859  60.4012985
  43.0373993  37.3625870  60.4619751  40.7247047  40.2894211  11.0459557
  40.5101547  40.5693970  10.1561165  41.6488152  40.5153313  11.1518650
  37.1612396  42.2283516   6.4586892  37.8368874  41.7568665   5.9714155
  37.4809723  42.2404327   7.3608298  76.0506973  41.6768990  51.2552185
  75.7240143  42.5548172  51.0583076  77.0002899  41.7471809  51.1574440
  46.0932503   6.5360894  77.4457626  45.8979073   7.0998845  76.6972961
  46.4797707   7.1244311  78.0943680  71.2590027  35.4314766  86.7660370
  70.7390213  35.5547562  85.9719009  70.7400742  34.8311348  87.3013229
  50.0451736  15.3782377  68.6606750  49.2039909  15.0647945  68.3284225
  50.6969299  14.9435816  68.1106567  15.0160427  52.0624275  78.6295090
  15.8988342  52.1176643  78.2636414  15.1363230  51.6475830  79.4837189
  60.7813339  14.0378294  42.3571472  61.5355988  13.8669977  41.7931137
  60.9451904  14.9087343  42.7189598  11.6588545  61.9112206  26.7671719
  11.1333818  62.5425987  27.2585640  11.4001026  62.0426636  25.8550301
  36.1433678  64.7916031  58.5951920  36.9201126  64.7230911  59.1503525
  35.6016426  65.4553299  59.0220795  45.0011826  53.3256187   1.8914511
  44.8426208  52.3821526   1.8604451  44.1890373  53.6936646   2.2395813
  22.0076218  41.0373497  82.3074722  22.9067116  40.8405266  82.5703964
  22.0884304  41.7918549  81.7240067  70.9289169  16.9475727  64.5146713
  70.1025085  16.8388119  64.0440903  70.8675308  17.8178253  64.9085312
  39.9781075  65.1678085  70.4377518  40.1467514  64.3299026  70.8686829
  40.6395073  65.2196732  69.7477570  76.3809357  36.1274757  40.5725441
  75.4905472  36.2837830  40.8872108  76.8085022  35.6564674  41.2877808
  61.5649338  17.9305096  42.1930275  61.7234039  18.5921345  41.5196991
  60.6616898  18.0829811  42.4707565  64.6528473  55.7737350   0.9317106
  64.4918442  55.8641319  -0.0075118  64.0990753  55.0405998   1.2001756
  73.3419113  18.1197224   9.8282471  72.7870483  17.3424644   9.8932800
  73.8334351  18.1325111  10.6495066   5.7803836   3.4311237  60.9379196
   6.2326055   4.1365628  60.4752274   4.9930377   3.2698553  60.4180031
  47.5857430  43.4195023  40.6194763  47.5643120  42.4639320  40.6710739
  47.2471848  43.6198997  39.7468681   2.3960681  60.3180580  17.4864464
   2.7794795  61.1154175  17.8517475   2.0746574  59.8360100  18.2483883
   4.8580070  62.2809258   7.0990195   4.6882882  62.6012878   7.9849067
   4.1090503  62.5854530   6.5866156  50.2790718  51.4271088  65.1697388
  50.0687866  52.3391075  64.9690552  49.4496536  50.9611816  65.0638504
  16.2501545  49.1065102  11.5787601  16.4185066  49.5509109  10.7478580
  16.8177872  48.3360710  11.5576239   1.0304049  20.8558884  57.6576080
   0.3997496  21.0410709  58.3534622   1.6620904  21.5731640  57.7097588
  26.7046757  61.3477097  51.0794792  27.1260166  60.6464729  50.5825195
  25.8502922  60.9900780  51.3210602  27.6218719  47.2814255  69.8722687
  27.7859669  47.8111877  70.6524353  28.4701118  46.8882713  69.6669617
  15.2118883  28.1984959   6.7422376  14.5605803  27.7618027   7.2911716
  15.9449244  28.3724194   7.3326960  85.6714172   1.5851263  66.6995773
  86.2764740   1.5824231  67.4412842  85.7670212   0.7163354  66.3093262
  54.0647964  58.0799103  69.6640244  54.4442329  58.1938286  70.5353928
  54.4133186  58.8108177  69.1535950  26.3245525  53.5002518  50.8142776
  26.6117382  54.0918083  50.1187057  25.9251366  52.7632561  50.3521843
   1.5720590  15.2192841  26.1374226   1.5502468  15.9450064  26.7611885
   1.4133271  14.4403372  26.6705990  59.5850487  28.5769367  87.9640274
  58.9331284  29.2135868  88.2571259  60.2123375  29.0925198  87.4571533
  83.4483261  65.7017975  37.3477478  83.4342728  64.9586029  36.7446747
  83.3861008  66.4709854  36.7814369  78.6638412  43.8668823   8.1572952
  77.8170319  43.7506332   8.5881510  78.9942551  42.9769554   8.0344830
  25.9526482  11.0387459  62.8646278  25.1871014  10.5892076  63.2225189
  26.5006008  11.2229748  63.6275406  64.5579224  64.9956589   1.1744565
  64.7809601  64.0671158   1.1089579  63.6715660  65.0041809   1.5357523
  54.9238091  15.3901463  61.3613434  54.6422501  15.0796824  62.2219048
  55.6539154  14.8171682  61.1270981  62.5131378  40.6685219  24.5453682
  63.2947807  41.2026443  24.4040203  61.7842102  41.2460251  24.3186836
   2.7561364  35.6643677  58.1014748   2.2229102  36.2585869  58.6294975
   3.3844752  35.2924156  58.7204018  32.1058273  55.5797997  21.4038181
  32.1001740  54.6426888  21.5988102  32.8209190  55.6897240  20.7770863
  54.9202385  20.4968376  31.6642933  54.1356354  20.9265976  31.3237991
  55.2248001  19.9472733  30.9421749  71.1845474  54.9882545  61.4927254
  70.4243011  55.3341904  61.9602509  70.8345490  54.2715416  60.9635239
  56.8957062  23.3076229  63.2447548  57.7280159  22.8362961  63.2814026
  57.1209602  24.2095470  63.4728470  73.4850540  25.2229576  31.5625076
  72.6861496  25.0685444  32.0666275  73.2136993  25.1301537  30.6492786
   4.1461368  49.6648483  39.8570671   3.9796731  50.4687080  39.3647957
   3.7736638  49.8326263  40.7227135  28.7036419  52.1885681  18.5502663
  28.2315369  51.4059410  18.2659416  28.7268581  52.7492256  17.7747936
  80.8062820  35.0137711  13.5509872  81.7611008  35.0811501  13.5483322
  80.5441284  35.2916298  12.6733198  71.8103409  58.4915009  36.9333572
  72.6117020  58.9678192  36.7161865  71.1151657  59.1450920  36.8573494
  79.5727158  50.8501015  27.9448261  79.6803818  50.1507683  28.5894775
  80.2860184  51.4603348  28.1320610  76.3334045  52.2881050  56.6681290
  76.8196259  52.6552277  57.4063988  75.5797577  52.8691521  56.5650063
   9.3789682  28.7180157  62.4982719  10.0624790  29.3742390  62.6339722
   8.5605326  29.1882324  62.6573029  36.4069252  48.6800041  14.9773970
  36.7978897  48.2329674  15.7280884  36.6177139  48.1211395  14.2294168
   8.0408421  26.8376236  65.5238953   8.9969568  26.8535767  65.4812088
   7.8204570  27.4799843  66.1984558  80.0459671  56.5221558  65.1502228
  79.5716629  56.1161041  64.4246902  80.9467239  56.2143440  65.0496216
  28.7607803  15.6262712   4.2095933  29.6030102  16.0262356   3.9930067
  28.1498756  16.3620014   4.2511687   5.1952815   8.7474718  21.2197571
   5.7165227   8.8053389  22.0205002   5.6059470   8.0440655  20.7169590
  65.9085617   6.9127517  64.3373337  66.7249374   6.6595798  63.9064484
  65.3096313   6.1872168  64.1609344  59.0604401  54.8905830  31.1147499
  59.6983871  54.1894379  30.9818993  59.2466278  55.2204056  31.9938297
  51.6096306  30.6900463  23.9382896  51.8153000  30.7309952  24.8722363
  52.4251900  30.4057026  23.5256844  48.1310692  10.0012274  24.3898735
  47.9164429  10.5025997  23.6032391  48.7476768  10.5565310  24.8670139
  67.6024246   6.2753534  47.0695000  67.3203964   7.1744456  47.2378082
  68.4683151   6.2164016  47.4732094  51.1894112  55.6529922  45.8695030
  50.7832451  56.0073471  45.0784950  50.7992516  54.7848015  45.9707413
  48.9173012  57.3505630  54.0397110  48.2354584  56.7400818  53.7592926
  48.5077400  57.8635254  54.7363892  71.8468781  12.1811247  32.2430916
  71.6154480  11.2715979  32.4313354  71.2029190  12.4625340  31.5931988
  54.2021446   0.8717268  82.8599472  55.0236320   1.3068904  83.0880432
  54.0516739   1.1086184  81.9448166  57.5384293  52.4495506  27.5304642
  57.4312973  51.7452888  26.8911114  56.7313347  52.4309769  28.0447445
  34.9382629  59.7280693  24.8543205  34.1641235  59.1675148  24.8021736
  35.6728249  59.1171570  24.9129238  49.8792038  61.5553169  53.5290527
  50.4471931  60.8534012  53.8467522  49.3179741  61.7656021  54.2753983
   2.1031835  52.9306526  57.1595879   2.9018078  53.1885300  56.6992264
   2.2994702  53.0837288  58.0838547   0.3893653   9.3253212  15.2992535
   0.8853664   8.6953993  15.8221426   0.1339715   8.8379917  14.5159807
  15.5507097  39.7376442  24.8289833  15.7181768  38.9289284  25.3128853
  16.1223240  40.3857803  25.2405777  37.3967819  41.4544029  21.6648788
  37.8782120  41.3384056  22.4840260  37.7518463  40.7838287  21.0813637
  61.3615837  13.3421221  78.4050980  61.5657768  14.0922012  77.8466034
  61.5651131  12.5787096  77.8647232  53.4939880  46.3759079  38.8302727
  53.6530533  47.3197212  38.8422813  53.9772682  46.0419312  39.5860062
  43.0943375  67.8088455  45.8924026  42.5363197  68.5512238  46.1241837
  42.9441185  67.1696548  46.5888939  54.9633675  71.0611649  33.3492813
  54.4743233  71.0167313  32.5276413  54.4102707  71.5846252  33.9292030
  86.4244461  48.2589569  21.1164303  86.0448380  49.1026230  20.8707485
  86.6227036  47.8334923  20.2822227  49.5891075  59.2645378  80.0087662
  50.3508110  59.1256676  79.4459534  49.5009346  58.4468689  80.4985352
  30.6977425  42.9395828  64.1578598  30.8024158  43.2004280  65.0728607
  30.2270775  42.1070824  64.1984634  38.9043465  46.4140739  15.6593180
  39.7082672  45.8955650  15.6262245  38.9749146  47.0130768  14.9160490
  47.0628624  26.8667469  16.1598282  46.8890076  27.6493263  16.6828728
  48.0122490  26.8662796  16.0377712  59.6067467  20.1274872   7.5653577
  58.7398949  19.8718529   7.8807135  60.1093559  19.3128815   7.5596061
  18.1016064  64.5682983   3.1225908  19.0511360  64.4809799   3.0389190
  17.9658432  64.8508911   4.0269904  48.8118858  13.6273432  57.2242012
  48.8582726  14.4709778  56.7743530  49.5115089  13.1067133  56.8296051
   0.8653548  19.3708515  43.1163177   0.5633877  20.1648979  42.6752548
   0.2092272  18.7098675  42.8953476  82.4319763  49.2638435  21.0696621
  83.2776413  49.1364594  20.6397190  82.6532974  49.5942879  21.9403248
  14.8065395  45.3754044  25.5340042  15.6482916  45.6323967  25.1576538
  15.0035667  45.1793289  26.4499550  86.4300079  45.3248634  81.8165741
  86.6265945  44.4245872  82.0755844  85.4897308  45.3226395  81.6373749
   2.5389283   6.7282538  56.5627289   2.1906154   5.9195218  56.9380455
   1.8166637   7.0818820  56.0435791  54.1077576  19.0323620  14.7174597
  54.8042946  19.5262871  15.1500168  54.1977425  18.1425514  15.0585957
  15.5581932   3.7615311  63.0787964  15.5849066   3.7169213  64.0345840
  14.9835024   4.5032663  62.8896103  37.2762222   2.9085689   5.7001643
  37.5123215   3.1747148   6.5887895  38.0169144   2.3796399   5.4037876
  84.4216385  29.8935928  15.6639204  83.8589783  29.1909733  15.9894438
  84.1320572  30.6721478  16.1395473  13.9916220  67.1932755  26.2948170
  14.8011827  66.7332077  26.5165920  13.3297529  66.8016510  26.8647232
  86.2038803  36.9050026   2.7658865  85.5293503  36.2432671   2.9186716
  86.9259872  36.4224663   2.3634462  75.3428116   4.2065659  33.9989319
  76.1555862   4.6208420  34.2887802  75.5190506   3.2674634  34.0560226
  57.2512512   5.2430949  85.7899780  57.9351158   4.9264445  86.3801422
  57.6772804   5.9289341  85.2758255  77.5691452  59.4890938  54.9262657
  76.9754181  59.1271706  54.2684402  78.4088287  59.5679092  54.4735527
  26.3056355  49.7564735   9.0813799  26.0488968  49.3924294   8.2341566
  26.4965611  50.6764984   8.8987980   6.0974889   2.0641394  51.1603851
   5.8923650   2.8375151  50.6349869   5.5160103   2.1281791  51.9180222
  52.5208321  51.1357040  38.0445023  53.3535080  51.3417549  37.6197357
  52.3048439  51.9237289  38.5430984  86.1881409  10.1693888  84.5871124
  86.5589523  10.8760519  85.1156616  86.2442398   9.3958893  85.1481705
   2.6713109  11.4360418  17.2452183   3.2839031  12.0100050  17.7051411
   2.8145223  10.5728207  17.6332531  61.8932762   2.8774157  61.1077576
  61.7239647   2.3846996  61.9107475  62.1345482   3.7529016  61.4103203
   4.5125227  58.8999481  32.8594589   4.6544447  58.3867760  33.6549110
   5.3439236  58.8461113  32.3881798  52.6787720  23.8882427  33.7567673
  52.5167236  23.1995201  34.4014626  53.6256866  23.8686123  33.6181984
  40.0321350  20.4620132  66.0642548  39.1843300  20.0714989  65.8522186
  40.6715240  19.8952866  65.6327133  73.7136078   3.9487321  80.8240662
  74.4091797   3.5165851  81.3197098  73.7160339   3.5083799  79.9741745
  52.0392838  20.6328239  52.5021362  51.6244659  20.2306004  53.2652702
  51.7049789  20.1336937  51.7569237  15.7684336  66.3786621  48.5852699
  16.0931969  65.7957306  47.8990135  15.3400640  67.0913925  48.1112022
   2.1203022  44.3820229  71.7490463   2.6926591  43.8677444  71.1797028
   2.7013962  44.7203255  72.4303055   6.9108882  61.0297165  62.3880043
   6.0300984  61.2402267  62.0779610   6.7711935  60.5957870  63.2296829
  47.3801193  14.2816744  33.6474380  47.2512512  14.1910172  32.7032967
  48.2986298  14.5344315  33.7406235  78.1982803   7.1499109  38.9623337
  78.3867874   6.2237720  39.1138725  77.5318832   7.1493855  38.2751999
  52.6140175  26.6869049  22.7730465  52.9301224  26.9748955  23.6294174
  53.0397949  25.8412018  22.6325741  50.0905914  49.8476868  53.6149712
  49.4640808  49.3830566  54.1697960  49.7453346  49.7473450  52.7278633
  20.2929058  44.7070656  18.4145317  20.6149178  45.4262924  18.9578991
  20.3657951  45.0332947  17.5175953  26.2134266  38.5055809  87.8169556
  26.3175182  37.6880913  87.3300171  25.6836147  39.0598602  87.2439804
  14.1213541  18.5134010  77.3041458  13.7453556  17.9831944  76.6014862
  14.4200306  17.8752899  77.9521027  17.6180134  40.8796310  81.7095490
  18.2579460  41.0046082  81.0087662  17.8883877  41.4928818  82.3929672
   7.5906262  19.5402317  82.8230057   8.3941097  19.7750187  83.2872467
   6.8923287  19.6962681  83.4588242  41.4125137  66.5351791  12.0410223
  42.2415543  66.6903229  11.5884161  40.8169708  67.1930618  11.6821957
  29.7663422  32.0277557   8.9579601  30.4670792  32.6756172   8.8839483
  29.1592255  32.2499084   8.2520638  62.6143265  70.6412430  22.4930992
  62.9295349  70.5254059  23.3894577  63.4096756  70.6690216  21.9612350
  25.7304573  20.7107182  80.4462280  25.9310589  19.8012428  80.2252197
  24.7755585  20.7374249  80.5069427  48.3276291  24.1684513  89.5057373
  48.1471252  24.4814816  88.6193619  49.1003532  23.6116409  89.4103928
  80.4214935  36.7422981   7.0069985  81.1650009  37.3451385   7.0037045
  79.6956406  37.2591286   7.3566422  43.4982567  68.3604584  37.5098686
  43.3567352  68.8122864  36.6779709  43.1353455  67.4855194  37.3719902
  84.6545486  35.1446037  52.2877235  84.0763931  35.4924583  51.6087799
  85.3656845  34.7240448  51.8043518  67.9554977  59.6571312  88.8161392
  67.8957214  59.7899780  89.7621918  68.3994980  60.4406662  88.4918365
   4.9450593  37.0827484  62.3943100   4.2633781  36.5931320  61.9340706
   5.4517922  36.4133377  62.8540344  45.9785042  11.5789042  47.7306747
  45.9250450  11.3467064  48.6577454  45.0670853  11.6197777  47.4410629
  85.6640778  40.3061333  17.4591198  85.4949036  40.5693016  18.3637486
  85.3984528  39.3872223  17.4233379  78.2774734  18.8428402  17.6352444
  78.6530838  18.5727482  16.7972717  78.6244583  18.2132702  18.2672844
  19.0960960  54.8927002  19.2391243  19.0522537  55.2078438  20.1418934
  18.8185482  55.6408768  18.7105141  71.8391418  32.6312866  77.3628845
  72.3485947  32.6344452  78.1732407  70.9979553  32.2473450  77.6103058
  23.7253532   2.8336151  16.2623901  24.0394497   3.7081907  16.0328426
  23.6366062   2.8534462  17.2152615  69.9274445  48.0268784  59.6194687
  70.5874634  47.3354073  59.5697632  69.3425674  47.8531837  58.8819122
   5.7382832  30.0252819  66.0352631   4.8683124  29.8338165  65.6849365
   5.8230157  29.4485378  66.7944794  61.2158623  58.1638870  13.4207973
  60.4994965  58.4763756  13.9734306  61.2913475  58.8232002  12.7309828
  19.2402821  71.5350800  54.6605644  19.3556461  72.0337448  53.8517036
  20.1259155  71.2659378  54.9043884  26.5650711  34.7915306  76.3467026
  26.2710094  35.7015533  76.3869019  26.5483170  34.5753708  75.4143753
  11.5418434   7.9314423  66.5157700  11.4418831   7.8288136  65.5693512
  11.9872255   8.7723036  66.6197815  32.4588814   9.1206503  59.9435158
  32.7238808   8.2084761  59.8254280  31.5511246   9.1474247  59.6410370
  27.2472992   1.8199354  26.5455246  27.9801426   1.9394205  25.9414577
  26.5117970   2.2605195  26.1199055  10.2046089  44.9658890  12.1210613
  10.5773144  44.4771538  11.3872633  10.9496422  45.1391373  12.6965113
  13.6818428  29.1764336  71.0885391  13.8003721  28.6587639  71.8849106
  13.6058559  28.5267849  70.3896713  41.2309799   9.7043695   6.0966468
  41.8739014   9.3665400   5.4731436  41.6911469  10.4045773   6.5594506
  22.7794056  51.9875565   7.8926334  22.2721138  52.3530350   7.1678486
  23.5314980  51.5705605   7.4722710  63.6950226  63.2178535  68.2559280
  63.9436417  63.1653862  67.3330688  64.3360977  63.8139229  68.6431732
  41.6328011  62.5133362  84.4272614  41.9167938  61.7698402  83.8954697
  40.6890221  62.3892441  84.5278473  74.6561127  61.1360512  25.6229706
  74.0493774  60.7444801  24.9946575  74.7560120  62.0409813  25.3274212
  39.1312408  12.6076679   7.0107369  38.9918060  12.6070166   7.9577265
  39.9200592  13.1351357   6.8851509   6.0626845  62.6736717  44.8280029
   5.9601870  62.3432274  43.9355164   5.1711049  62.7078209  45.1746292
  50.6294022  24.6102962  77.6328201  51.4289360  24.6107941  78.1591034
  50.9289207  24.7918015  76.7419891  42.9536018  65.1843262  87.3353806
  42.6249580  65.9885941  86.9336624  42.9032211  65.3489990  88.2769623
  76.3059769   6.6557045  75.6260605  76.6339951   7.4228449  75.1568832
  75.6789017   7.0104265  76.2562866  38.6433678  42.6240654  79.1281662
  39.0501938  42.4692154  78.2756729  39.3753853  42.6327362  79.7448578
  61.3720779  49.6962547  80.2728806  60.5076065  49.6996956  80.6838608
  61.9648247  50.0024490  80.9592667  54.2551079  38.7115974  60.8064346
  54.7294235  38.1603088  60.1840706  53.7187462  39.2845764  60.2584915
  31.2697945  64.7034454  63.0004234  30.7846680  64.3814011  62.2407036
  31.6073418  63.9129982  63.4217186  18.7839394  26.7845230   2.9168746
  18.9267406  27.4730244   2.2674079  17.9484386  27.0104580   3.3256807
  81.8766479  43.7796593   6.6425557  81.5475540  44.6218071   6.3283629
  81.7191010  43.7980385   7.5865221  54.7691650  61.2427750  52.8548126
  54.8412132  60.5232239  53.4819374  55.5149231  61.1235123  52.2667198
  21.6809998  10.2745790  88.1124115  21.3201714  11.1529226  87.9917984
  21.7045498   9.9021921  87.2309341  53.8304558   6.9228210  16.0505772
  54.2571564   6.2466178  15.5243587  54.4058685   7.0362754  16.8070545
   0.2438923   2.0605178  52.9616127  -0.6928881   2.0147922  53.1528816
   0.6483949   2.2885511  53.7986374  81.4871216   6.1828613  14.8746614
  81.9090500   6.3856511  14.0397453  80.8832397   6.9109855  15.0209303
  70.3915482  13.9040546  60.4549599  70.0476151  14.7959242  60.4048386
  70.8325195  13.8647432  61.3036194  33.9369583  56.2787247  49.6250343
  33.4058800  56.2666321  48.8287659  34.8378830  56.1924820  49.3133812
  54.8300591  23.6339245  87.7334976  55.6017799  23.0688953  87.6957321
  54.7121010  23.9387016  86.8338165  61.7677956  11.2380848  40.2463379
  62.4800529  10.7089834  40.6054649  62.0954514  12.1367474  40.2821159
  44.4010315  26.7492218  63.6107635  43.5967522  26.3884087  63.2376900
  44.2968407  26.6395817  64.5559387  15.8775606  34.3869858  67.6718750
  16.5862484  34.7406769  67.1343842  15.1847191  34.1759720  67.0460358
  28.5736866  52.2381706   1.4390725  29.2755642  52.8624077   1.2548786
  29.0265636  51.4507942   1.7410167  66.0750198   5.8742962  78.7028580
  66.5734863   6.4578700  78.1308365  66.3843536   6.0815616  79.5846634
  57.6197357  15.3186836  30.8534012  58.4806671  15.4969339  30.4749107
  57.0567436  15.1482744  30.0982609  16.5858784   5.5458913  68.0723190
  16.5070992   6.4443831  68.3928452  15.8618240   5.0786009  68.4889984
   6.7216215  71.0179977  66.1121674   5.8620062  70.6122742  66.2247849
   7.1720705  70.4541473  65.4833603  51.6617851  57.7969894  48.0521278
  51.2989883  58.1122704  47.2243538  50.8983955  57.5161514  48.5567017
  62.2678146   4.4103775   2.9569457  61.7475243   5.0708890   2.4995048
  62.6376648   4.8746696   3.7078619  60.8591766  42.6863861   0.6895952
  61.5778275  43.0868149   1.1789042  60.0863152  42.8352356   1.2343527
   3.8610420  68.3500061   2.6578960   4.0092249  67.5021896   2.2389886
   4.1608291  68.9912033   2.0135181  15.5530930  13.9813328  22.7799702
  15.5850420  14.4257488  21.9327946  14.6188755  13.8884745  22.9666443
  53.0761452  70.3324280  31.4995365  52.1897774  70.6624680  31.6466923
  53.2204170  70.4442139  30.5598965  10.8859043  23.1475868   5.2644024
  11.4138613  22.5814323   5.8273964  10.4140596  22.5429726   4.6916580
  18.5510368  34.0437775   3.2849362  18.7007313  34.8294525   2.7590647
  19.3013763  33.4810448   3.0937476   1.9861481  61.3219109  10.9899588
   1.1698180  61.0381088  11.4014111   2.5630100  60.5606003  11.0521460
  42.8358307  31.2327671   2.0522401  43.1877899  30.3686295   1.8386476
  42.3535423  31.0999260   2.8683169  50.0285988  22.2864914  89.2591324
  50.9064407  22.4298573  88.9054794  49.8808327  21.3460426  89.1593628
  24.6759510  38.9906578  66.5697021  24.6219845  39.8354454  66.1228790
  25.5558567  38.9746132  66.9461899  42.0799026  41.6810570  54.6451645
  42.5580521  41.3076630  53.9047737  42.3570328  42.5968704  54.6719208
  79.0653687   2.2905457  26.6047287  79.1057892   1.6463106  27.3115234
  79.7338409   2.0050683  25.9819260  34.5428352  70.4665070  64.2234573
  34.4215279  71.3464966  63.8668900  35.4763069  70.4182281  64.4296951
  69.4592209  26.5715618  43.8631287  69.5371552  27.2151890  44.5673332
  69.3856506  27.0963936  43.0660286  12.8833351  43.0721512  59.3191452
  13.4683981  42.3248215  59.4433556  13.4311447  43.8370705  59.4953270
  76.0437393   9.9526005  51.6427956  75.7841263   9.3286572  52.3206825
  75.3736420  10.6353006  51.6763458  66.7642059  54.5956726  76.7672501
  65.8120804  54.5622711  76.6746826  66.9696884  55.5301971  76.7931366
   9.0016432  40.8128166   6.7269154   8.0793667  40.6497002   6.5293489
   9.3421516  39.9612122   7.0008774  78.9324112  47.9444656  76.0248337
  78.3545837  48.2560463  76.7214508  78.4936905  47.1669350  75.6795883
  42.3545113  55.4817009  61.7035255  42.3031731  54.7296295  61.1136169
  43.2916756  55.6029434  61.8560333  85.2260437  53.2748871   6.2598867
  85.9401627  53.4822998   6.8625865  84.5014954  53.8307648   6.5466948
  69.0894775  17.9304962   6.1514635  69.4244919  17.0556946   6.3482323
  68.2084122  17.7782898   5.8097267  21.0584850  52.9263687  81.1518860
  21.8084526  52.3505325  81.0029144  21.3665047  53.7936859  80.8889847
  32.0319824  60.1177711  38.5258255  31.2505341  60.2017097  37.9794502
  32.7266045  60.5346832  38.0160027  11.5082483   9.1550074  32.4451637
  11.6731825   9.9610500  31.9559574  10.7818813   8.7379808  31.9817924
  52.7253342  17.7165546  65.4987717  53.4681816  17.5835667  66.0876083
  53.0982628  18.1662064  64.7405090   6.7938037   0.5500555  37.3533173
   7.3145213   1.1284362  37.9105988   6.1814456   0.1258362  37.9543877
  14.3921223  43.0625114  65.9516296  14.9706993  42.4954720  65.4417801
  13.5854244  42.5564880  66.0486374  26.2432785  68.7394714  12.9634695
  26.4369698  69.6623459  13.1278219  25.4803886  68.5536652  13.5109262
  71.8572159   6.7399397   9.8740330  72.5406952   6.2315392  10.3106241
  72.3318863   7.4259515   9.4046650  74.8310471  35.9576874  37.2302856
  74.5076904  35.1455536  37.6202927  75.6559982  36.1295624  37.6843262
   3.2523160  31.1994019  20.1669292   3.8403172  30.4985638  20.4485531
   3.6797001  31.5759811  19.3976688  61.4049110  37.6752205   7.4812474
  61.1495094  37.8437042   6.5742660  60.6160278  37.8607521   7.9906325
  69.1509552  -0.2482709  48.5915794  68.8696671   0.4484815  49.1845779
  69.4149551   0.2088468  47.7930946  33.8757706   8.6309261   5.0581112
  33.1406746   8.9783888   4.5529995  34.6528206   8.9168530   4.5778294
  10.2594185  32.0660248  84.7568893  10.5474901  32.1014099  83.8447495
  10.2465887  32.9804192  85.0396500   9.6995821  22.4175663  11.4889202
   8.9130039  22.8842411  11.7713060   9.7773790  22.6213875  10.5569134
   4.4941936  38.6654816   4.1269927   3.5825479  38.9508133   4.0660105
   4.6106133  38.0749016   3.3827522  24.0400639  31.2701664  75.1203384
  24.9208450  31.1346169  74.7709351  23.4993153  31.4374886  74.3484421
  25.4099579  34.1782761  81.1758957  25.1914558  34.6746254  80.3871460
  24.8345203  33.4139786  81.1450119  80.1857986  17.2428875  67.3426590
  80.2846222  17.2602367  68.2945862  80.6318588  16.4410248  67.0701218
  47.1396751  59.0753975  55.0654793  46.9599571  59.8367348  54.5138512
  47.0408745  59.3995667  55.9606819  50.1583366   0.6573634  14.9022760
  51.0605927   0.9766284  14.9175797  49.9948883   0.3583122  15.7967510
  72.0766678  52.1223526  55.2569962  72.4610596  51.3487663  54.8446388
  71.5867004  52.5497169  54.5544853  30.4761124  53.5047722  72.1139755
  29.6346264  53.5248260  72.5697479  30.2464085  53.3893318  71.1919403
  84.9828415  14.8660288  12.7486153  85.6046906  14.6574392  13.4457760
  84.2031097  15.1772509  13.2083817   1.2057863  30.7658997  28.2336216
   1.0363835  31.6328754  27.8649940   0.6115346  30.1839294  27.7599068
  19.6882401  24.1333027  78.6144562  18.8640041  24.0723801  79.0973206
  19.4599133  23.8852139  77.7186050   8.2848396  64.9427490  14.6951113
   8.5185480  64.2306747  14.0996618   9.0303764  65.5418320  14.6563253
  53.9235992  67.8626480  51.2347221  53.9474564  68.7346573  51.6287689
  54.1579361  68.0075684  50.3180313  69.8269424  36.3215637  74.1085205
  70.7151947  35.9861107  74.2298355  69.2593994  35.5901756  74.3518295
  33.0616035  28.1418171  10.5262070  33.4741669  28.6114273  11.2511139
  32.2853508  28.6607513  10.3155537  21.7569180  58.3434029  54.0762100
  21.7649078  57.4324608  54.3700790  22.6464443  58.6560860  54.2411385
  46.4012604  23.4633980  72.7517548  45.7140274  23.3895969  72.0895615
  46.7625809  22.5797577  72.8214645  75.1737213  66.2423477  36.1847115
  74.8543015  67.0852051  35.8625412  74.9575653  66.2448502  37.1171837
  40.4779358  19.2837124  76.6932678  40.7570496  18.9344597  75.8468933
  39.5361176  19.4240036  76.5956573  71.0750809  56.7773590  73.4874420
  70.5241852  57.4898109  73.1631546  71.9696579  57.1049232  73.3943558
  80.0146103  20.2322502  54.9138908  80.9594498  20.3841915  54.9346161
  79.9090729  19.4543877  54.3661461  43.0774727  28.4528790  13.3978662
  42.4537430  28.7135277  12.7201824  43.9115257  28.8253498  13.1117744
  24.5418091  48.7041473  19.6808357  25.2461014  49.2497673  20.0308399
  24.3876457  49.0475197  18.8007450  59.2701874  17.0911617  10.3637209
  59.2336884  17.9184742  10.8437777  59.7191048  16.4893360  10.9574451
  60.9011154  35.3108559  23.7284546  60.5992584  36.1468735  24.0836868
  60.4347115  34.6504822  24.2409039  40.6642113  48.6933899  41.1333351
  41.4162178  48.3801460  40.6307526  40.3894882  49.4911194  40.6812363
  41.0986862  60.6582527  24.2567120  40.7505302  61.3528824  23.6976910
  41.1315918  59.8880615  23.6893024  23.0806484   8.6147270   7.2214441
  23.7888031   8.3452682   6.6365166  22.4604015   9.0705805   6.6524773
  17.6709709  28.8463726   1.4464548  17.6742783  29.7835846   1.6410173
  16.7510834  28.5907650   1.5150174  43.3278847  35.3036728  20.0599689
  44.1468773  34.8140526  19.9841213  43.4844055  36.1098938  19.5682983
  73.7976990  65.0076218  77.0579681  73.2278748  65.7585907  76.8919067
  74.1008759  65.1312790  77.9574203  55.3075638  42.6623878  12.2342167
  55.6789589  43.2512817  11.5773268  54.6679649  42.1384430  11.7519016
  61.8324165  20.7173500  52.4855652  61.5182724  20.1617794  53.1989250
  62.3180122  21.4168282  52.9227829  64.4095230  70.6445236  31.2880039
  65.3385391  70.6433792  31.5185490  64.0732651  71.4631882  31.6526356
  37.2955742  58.9686470  78.3640442  36.7373924  58.6729431  77.6448593
  36.6840096  59.1912918  79.0659332  40.5948830  37.0222473   6.1981668
  40.6236038  36.1366882   6.5603747  41.1260147  37.5443077   6.7994828
  40.5375671  56.5376282  87.3843536  41.2576675  56.8069763  87.9545670
  39.7579422  56.9218178  87.7853699  74.4664001   3.7507913   4.7579627
  74.0432434   3.3645775   5.5247788  74.8137207   3.0018880   4.2734575
  46.5893097  52.4038696  88.3619080  46.0031357  52.8126793  87.7251205
  46.1102028  52.4452705  89.1895370  38.5750504  42.1439400  17.9597836
  38.0521622  41.3519249  18.0843887  39.4135590  41.9453964  18.3765697
  39.3870163  48.2130814  65.9330368  38.7721367  47.9210014  66.6059799
  40.0443382  48.7177925  66.4120255  59.7603989  60.1879539  61.7340775
  59.1689415  59.6756058  61.1827965  60.6253281  60.0538940  61.3465767
   3.0735674  62.8114433  18.5239849   3.2598908  63.6026497  18.0185108
   3.7222741  62.8185616  19.2278042  67.2062149  61.9645500  80.2106552
  67.6298218  61.1509857  79.9369812  67.3473129  62.0015869  81.1566772
  24.5703812  71.8694229  25.6154346  23.7262878  71.4474335  25.4552307
  25.2091141  71.2957687  25.1921482  22.8756771  16.6839371  18.2348804
  22.8949699  16.0348320  17.5316563  22.8698769  17.5273342  17.7822437
  29.9001217  53.1802521  51.3892708  30.7876320  52.8220177  51.4042091
  29.3383865  52.4218903  51.2293587  63.2537270  18.2259483  25.3989258
  63.4870110  19.0783634  25.0312347  64.0815277  17.7468681  25.4370022
  74.9224319  46.4171371  39.8457642  74.6511459  46.1585464  38.9649887
  75.6666260  45.8486176  40.0437546  14.8968859  26.2445278  18.5499935
  14.4083090  26.8827209  19.0698357  14.2282925  25.7930946  18.0348034
  64.2659302  61.0729256  38.7557297  64.9006958  61.7881699  38.7140961
  63.4297142  61.5046959  38.9305038   2.1136072  59.9406433   8.1380997
   1.2645181  60.1811333   8.5088339   1.9362023  59.1525421   7.6246262
  57.1140633  49.9329910   1.8374883  56.4094467  50.1281586   1.2197034
  57.3923759  50.7895126   2.1617477  59.1269836  42.2273407  72.2636490
  59.5722275  43.0657501  72.1409531  58.7893295  42.0061874  71.3957138
  21.6934223  40.7287560  36.1929054  21.3726482  41.2296982  36.9428329
  21.7273464  39.8247070  36.5056038  73.5335007  63.0428848   4.5472994
  72.8313599  63.2049026   3.9172359  73.1256714  63.1834145   5.4017916
   0.2187111  66.3744736  70.8416672  -0.0450381  65.4765472  70.6406860
   0.2969836  66.3933182  71.7954712  12.2833090  50.2204666  48.2204781
  12.2251596  50.0433350  47.2816086  13.1975727  50.4662704  48.3616676
  46.2620850  15.5819559  72.6834793  46.5161362  14.6651068  72.5782242
  46.2489090  15.7196207  73.6306381  32.9930344  58.0669861  24.6539478
  32.3992043  57.3645515  24.9188690  33.0019531  58.0251808  23.6977024
   2.5639975  20.0321274  61.5614433   2.1167648  20.8230286  61.8625908
   3.4002159  20.3461227  61.2173805  62.5304031  44.1407585  12.0825605
  61.7567291  44.3325424  12.6125412  63.2682304  44.4103928  12.6294966
  44.4904709  55.2902679  73.9160385  45.0355415  55.8965111  74.4176254
  45.1099281  54.6613464  73.5459518  47.2671547  33.7708740  72.5520172
  46.9364014  33.0234871  72.0537720  47.7810135  34.2722626  71.9189377
  54.1693382  28.4300766  79.2437515  54.1087952  28.3779736  80.1976089
  53.3896141  28.9189701  78.9806137  84.5535583  30.9732113  13.3350296
  83.6359024  30.9794083  13.0628119  84.5544662  30.4933376  14.1632519
  13.9615927  35.6210670  11.9416103  14.5813637  36.0895119  11.3824358
  13.6151285  34.9244461  11.3840113  78.9212570  11.7519798  81.3067169
  79.2367325  12.0739298  80.4622955  79.3554535  12.3090076  81.9528046
  32.0861092  23.9056072   7.4872775  31.5583439  23.4332619   6.8433938
  32.6857834  24.4360771   6.9626613  23.5453529  40.9958382  20.4428749
  22.9402256  41.1344261  19.7142830  23.3970394  41.7427788  21.0227966
  28.5608234  57.8931160  38.5400581  28.3438721  58.5510559  39.2005692
  29.0537357  57.2266655  39.0187187  67.4113388  57.1642609  44.1546059
  68.1205750  57.6748238  44.5451736  67.2504730  57.5848389  43.3099403
  80.2980957  55.6102142  23.2973080  80.4473114  54.9963150  22.5782166
  79.3474655  55.6222382  23.4085960   6.3411007  18.9093781  24.4598083
   5.6123233  19.1468239  25.0331612   7.0573201  18.6970043  25.0582714
  59.2668190  36.6067696  43.2350922  59.3163223  37.5324326  42.9964867
  59.3900909  36.5971756  44.1842728  45.7361679  63.7934608   2.6936226
  45.2730293  63.8043365   1.8559957  46.6509514  63.9562759   2.4636419
  53.3231735  34.1196365  29.2370815  52.9408264  34.9895973  29.1221561
  52.5850983  33.5184669  29.1367264  67.9849701  63.2428284  49.1898193
  68.1746368  62.9295540  48.3054428  68.2236023  62.5114212  49.7593193
  35.0521011   1.6557909  84.3449249  35.4827995   0.9148102  83.9186859
  34.1177979   1.5040547  84.2024918   8.8682346  35.4649963  65.1032181
   8.9695921  35.7093658  66.0231323   9.4542713  36.0573044  64.6320801
  55.3328362  41.5013542  67.6076889  55.7383232  40.8862572  68.2188110
  55.8276482  41.3932877  66.7954559  25.7106972  60.6588745  82.2073593
  26.1009808  60.6030388  81.3351288  26.1495457  61.4033699  82.6189117
  21.0130577  32.7903099  16.0589485  21.6431923  32.1356506  15.7579842
  20.2663937  32.2786751  16.3703232  19.7960014  52.0468979  60.4174423
  20.5054283  52.5054054  59.9672012  19.4546795  51.4347878  59.7654800
  73.8036880  18.1426735  52.7411957  73.3195114  18.4169083  53.5200386
  74.1074600  18.9606514  52.3476601  81.2501144  47.2714386  84.8235779
  80.7777557  47.8218346  85.4482117  80.7431335  47.3381081  84.0144119
  61.2849541  47.9435806  39.3892975  62.0166779  48.5559006  39.4659843
  60.8053818  48.2391777  38.6154327  17.3832035   3.6616683   9.1551342
  17.3867626   3.2508171  10.0196695  18.0073433   4.3834820   9.2304077
  32.7431030  60.8259430   6.4810457  32.1603317  61.5740166   6.3506799
  33.5024529  61.0149574   5.9297819  33.5410500  54.0248222  70.2681808
  34.4101868  54.3385429  70.0183563  33.6483040  53.0792923  70.3716507
  47.2139359  39.1773033  60.4585075  46.7027626  38.4466667  60.8065033
  48.1251907  38.9220848  60.6024094  78.2988586  56.4272537  56.8297157
  77.5674744  56.2396240  57.4180222  79.0483170  55.9879570  57.2316551
   5.6693439  69.4523468  69.4403915   6.4877434  68.9889374  69.6184540
   5.9143777  70.3776321  69.4347076   0.8702046  62.2798042  61.4729843
  -0.0554301  62.0372925  61.4480438   1.3061569  61.5212517  61.8612823
  16.5690632  71.1114044  21.9780579  17.1300259  71.7839584  21.5917645
  16.8191814  71.0924759  22.9018097  50.1205711  40.1071587  34.7730331
  50.1015282  41.0641670  34.7732277  51.0444336  39.8860054  34.6555443
  85.0999832  25.7504635  44.1008186  85.4180298  26.0814400  44.9407806
  84.8957672  24.8303261  44.2677727  23.2643490  24.4525661  44.3240280
  24.1853676  24.5708828  44.0917397  23.2388210  23.6123047  44.7817841
  77.3802795  24.9553089  69.9122009  77.4735870  25.4859791  70.7033463
  77.3576279  25.5921326  69.1979370  15.2969007  52.4791412  71.5682678
  15.4065018  52.7174683  72.4888229  14.3489161  52.4331856  71.4439926
  31.9209614  68.0612411  29.0779953  31.2849541  67.5454178  29.5736217
  31.8670597  67.7159348  28.1868782   5.4671865  69.3165207  17.1891003
   4.8710341  68.5676346  17.1921577   5.2920732  69.7654343  18.0161686
  24.5960026  36.4318275  79.2963486  24.1238918  37.2573814  79.1876755
  25.4625244  36.6009827  78.9265366  25.3974113  19.0044079  76.5077133
  26.2111244  18.8430023  76.9852600  24.9537449  18.1563053  76.4969711
  59.0547409  59.0496902  46.1567841  59.7755013  58.4656067  45.9210243
  58.2825203  58.6513748  45.7552223  57.8428040  58.5983734  60.2220955
  57.1895638  57.8996239  60.2575531  58.0047607  58.7276459  59.2875938
  56.8764191   9.1146116   5.9675555  55.9609184   9.0280228   5.7018614
  57.2158127   8.2197266   5.9526124  78.9258499  40.6008644  22.7716274
  79.0961609  39.9540901  22.0868607  78.1464996  40.2741508  23.2211819
  10.3059139  43.9518585  58.3319817   9.6370010  43.2982368  58.1281013
  10.9685764  43.4700584  58.8269348  82.9115829  66.9147568  27.8486309
  83.5794525  67.0842743  27.1842117  82.6503067  66.0061035  27.6992130
  19.9909554  47.9946899  75.9702988  20.5918331  47.6089821  75.3328018
  20.5229473  48.1187057  76.7563248  66.8528214  68.4482193  66.6079559
  67.5749130  68.0723343  66.1044388  66.0726395  68.0038605  66.2761459
  22.6824074   6.1834216  21.0627594  22.6390114   6.7270441  20.2761059
  22.5606899   6.7985301  21.7859859  65.1128845  53.0552444  84.4270172
  65.1788559  53.9468384  84.0850601  64.1761322  52.8595467  84.4064941
  48.3239708  69.5735321  51.9844780  48.7029305  69.6404724  51.1080399
  47.4011917  69.7976761  51.8641853  58.9811554  44.1397209  25.0831623
  59.2432137  45.0241013  25.3389530  58.1728134  44.2638779  24.5857658
  13.2072735  69.9654160  62.3113213  13.1136007  69.0644302  62.6206627
  13.9667358  69.9410477  61.7292061  36.8201904  50.2307014  87.8572617
  37.6731682  50.3732719  88.2675476  36.5031052  51.1102371  87.6520615
  57.8216972  30.0254402  73.9128036  57.1609802  29.8857460  73.2344437
  58.6320229  29.6880646  73.5309830  63.2273331  42.3758011  15.2439842
  62.5788002  41.6768875  15.3285828  63.1322823  42.8891335  16.0462856
  55.1868286  36.6616821  18.1229820  55.3993073  37.4496498  18.6231728
  54.6972198  36.1135025  18.7361851   7.9100208  12.9708538  43.0616150
   7.6890435  13.5182123  43.8151398   7.0976810  12.9171095  42.5581779
  33.8748055  55.7250366  76.2343597  33.3626366  56.1137733  75.5252762
  33.2887344  55.0774231  76.6259613   2.1890507  38.4987106  25.7738762
   3.0437117  38.4377556  25.3471775   2.0588422  39.4362373  25.9164352
  70.6528702  53.2976112  83.1889038  71.3834381  53.8391113  82.8900909
  71.0597992  52.4745674  83.4595337   2.4696002  50.2845459  16.6970539
   2.7950144  50.4049873  15.8049593   2.8125565  49.4316978  16.9640064
  25.9771442  53.2126770  27.4509392  25.0214062  53.2476349  27.4906368
  26.2113323  52.4524918  27.9833889  35.5516777  51.6080666  15.5655622
  35.2580490  51.8889084  14.6988792  35.8480415  50.7069283  15.4376745
  80.6584091  55.1322098  35.6265755  80.6730347  56.0881958  35.5806656
  80.8159027  54.8467674  34.7266006   9.1642952  23.3184433  21.3402233
   9.5813122  23.9874763  21.8831062   8.6517754  23.8137074  20.7012653
  52.6224747  14.6005402  17.4981861  51.8705673  15.1702728  17.6602745
  52.2461739  13.7239513  17.4193172  49.5010185  29.7803249  49.5710526
  49.6506004  30.5885181  50.0616493  48.5542641  29.7562218  49.4321136
  33.5163689  24.1138344  86.1067505  32.6914940  24.4153957  85.7261353
  33.5282402  24.4944668  86.9849396  73.7656326  60.1747322  56.1064491
  74.0794601  59.3936157  55.6508141  74.3141098  60.8840485  55.7713661
  17.1759644   1.1127108  55.9750862  17.8335705   0.5516005  55.5640602
  17.5319519   1.3026747  56.8430824  74.6757431  44.1521149  85.4116669
  74.1802673  44.6618042  84.7706146  75.4955444  43.9387131  84.9659958
  34.8714905  66.4235840   4.2348471  35.2166481  67.1340561   4.7755227
  34.4044342  66.8667984   3.5265763  79.5721436  13.6042433  33.5632401
  79.0118561  13.1971951  34.2240181  80.2380295  12.9432535  33.3737221
  71.7768860  48.1001701  24.0478001  71.0400162  48.5282784  23.6119347
  72.2072906  48.8022461  24.5357323  46.2300529  55.2523804  85.5065460
  46.5913849  54.4261551  85.1855698  45.4354210  54.9997292  85.9766083
   3.6356757  41.5720596  12.0397348   3.6138029  40.6675987  11.7271547
   4.4546051  41.9257088  11.6925783  56.2007713  40.5671997  56.5072327
  56.2534828  40.5104446  55.5531731  55.2899437  40.3537865  56.7099075
  83.9295502  33.2927170  87.0538788  83.0167694  33.2335739  86.7718048
  84.3682022  33.7671967  86.3477020  66.6283188   8.4124098  53.6904144
  66.3141327   9.2128992  53.2700195  67.2757568   8.0595722  53.0800323
  29.1512680  65.4896164  53.8478470  28.5725441  65.0031586  53.2607613
  29.4077644  64.8518524  54.5139542  24.3124752  20.4374847   9.9046974
  24.8850536  20.0672226  10.5764809  23.4618912  20.5227013  10.3353682
  60.3908653  71.6862335  40.8724556  61.2067032  72.0689926  40.5497513
  60.6693382  71.0447693  41.5260620  76.0552750  41.5999107  47.3419304
  75.5922775  42.0554199  48.0450478  76.9069595  41.3797836  47.7193031
  67.3625107   7.4862156  76.9358368  68.0704422   7.5369563  76.2935791
  66.6691208   8.0367355  76.5720062  64.3035507  24.3048496  67.9801407
  64.4528732  24.8532314  68.7503433  65.1126709  24.3774872  67.4738922
  23.4423809  15.5269337   3.7012713  23.8135948  16.0286770   4.4270015
  24.1762218  15.3954210   3.1009266   2.6679976  45.3322639  33.8149529
   2.0128586  45.4857979  33.1341782   2.1940236  44.8640862  34.5022583
  72.0694122  69.0174408   9.7850609  72.2107544  68.8120956   8.8608913
  71.2521744  68.5713577  10.0072632  73.0472717   6.8923845  21.1096420
  73.4517212   6.4168849  21.8352795  73.6731873   6.8091025  20.3902531
  79.8247147  66.6961975  30.7579594  80.6691513  67.1455231  30.7223797
  79.9660492  65.8820877  30.2747612  45.3074570  65.1606674  15.0357695
  44.9630852  66.0534439  15.0600042  44.5873947  64.6356049  14.6864090
  82.2703247  59.4195251  40.6487198  81.6518631  60.1472626  40.7130852
  82.5037537  59.3849144  39.7210655  28.8397083  55.1645813  53.4365273
  29.0534477  54.4992638  52.7823830  29.6259308  55.2286530  53.9787254
   9.0007286   1.0747534  77.8128357   8.2086134   0.5379542  77.7876816
   9.6848278   0.5091507  77.4545975  36.4725838  63.2332039  46.5432625
  35.9726715  63.8041420  45.9598618  37.3878136  63.4148369  46.3297310
  60.1426277  37.6060486  88.4814606  60.2628517  38.5375214  88.2966995
  60.6125183  37.1595650  87.7771225  27.6897221  17.9869785  77.8790817
  27.5864353  17.9707108  78.8305588  28.2946415  18.7106934  77.7161713
   7.1598310  32.1990051  11.4634333   7.4349012  31.2964592  11.6246090
   7.3394203  32.6546249  12.2858639  26.7772522  50.1361313  21.1421280
  27.7235279  50.2801895  21.1486549  26.4955826  50.3546448  22.0304680
  65.4629135  43.3473358  60.8030548  65.8750076  44.0691719  61.2777710
  65.8253326  42.5581131  61.2055588  56.3512726  22.1946888  29.0163746
  56.7120857  22.2281055  28.1304131  55.4866409  21.7985649  28.9080753
  35.6867294  68.2034988   6.0563302  34.8318748  68.5367813   6.3290510
  36.2862511  68.9357147   6.2000947  79.5683212  36.7029686   4.3755560
  80.0526810  35.9391022   4.0622859  79.8217545  36.7868195   5.2947788
  84.9870987  16.6697788  38.1635780  85.8772888  16.3549118  38.3205948
  84.4972534  15.8871183  37.9111443  41.1526070  10.0587835  81.9071198
  40.5339851   9.6634645  81.2929001  40.8480721   9.7757025  82.7692947
   2.4931099  22.8033924  53.5069809   2.6556747  23.7405472  53.3995323
   1.9418586  22.5687885  52.7604446  69.1819382  28.8898678  42.2403717
  68.5119934  29.1659832  42.8657990  69.9023590  29.5058956  42.3735466
  14.6310215  64.3532028  18.8284168  14.8401546  63.5675812  19.3336811
  14.4878855  65.0314560  19.4885101  62.7897682  19.8846188  81.8434219
  61.9317207  20.0758076  81.4646912  62.8572388  18.9302483  81.8141174
  57.4657288  52.5252380   2.6126561  57.5659981  52.8212662   3.5173910
  56.6361122  52.9072304   2.3262112   7.1685247  15.6270113  21.0958328
   7.1702447  16.2224464  20.3463764   6.5538445  16.0220470  21.7141762
  66.3568420   9.8502131  18.0543671  66.6649857  10.1151199  17.1877041
  65.8603897  10.6041012  18.3728218  28.5065365  59.5140915   9.5974493
  28.1823101  58.8489265   8.9902744  28.1593952  59.2501602  10.4495449
  18.9373417  38.1167259  15.8072634  18.4458885  38.5122757  15.0873699
  18.8897133  38.7619133  16.5127430  15.6752729  20.3322773  10.7225323
  15.0286942  20.7428856  11.2966118  16.5167923  20.6693325  11.0298948
  49.3331909  58.8153305  61.7877502  49.7543221  59.6712494  61.7084579
  50.0448685  58.2188301  62.0199738   5.0726867  25.6275940   4.0241861
   4.7781987  25.0868206   3.2913351   4.7896943  26.5133648   3.7971222
  82.6480484  45.9143677  76.1870499  83.0476456  46.7431793  76.4509125
  82.5616379  45.4199371  77.0020981  63.8544464  67.5566406  57.7662735
  63.6521683  66.6249771  57.6807404  64.5601883  67.5902023  58.4120483
   8.9255219  64.4135513  86.0677109   9.0148888  64.9671478  85.2919693
   9.6071463  63.7490311  85.9675522  65.7598724   8.0358686  59.8499222
  65.2426605   7.2561035  60.0516434  66.1820221   8.2641239  60.6781273
  75.2839203  23.1685677  57.7539902  75.5571136  24.0635490  57.5524712
  75.5659180  23.0299072  58.6581345  52.9074745  47.4521751  88.0170670
  52.2226791  46.9934082  87.5304260  52.4477119  48.1610756  88.4668579
  12.0256138  37.7857513  76.1692352  12.0519896  37.6646233  77.1183701
  11.6630697  38.6635475  76.0497818  26.0848751  66.0684280  60.6733932
  26.5834980  66.8716431  60.5235405  25.6851025  66.1917877  61.5343208
  79.9771805  27.9376144  11.2474518  79.9819260  26.9809055  11.2777405
  79.4311600  28.1505795  10.4906549  27.6005993  24.5127506  67.5649490
  28.0159435  24.6613445  66.7154541  26.6921558  24.2980766  67.3531113
  71.2684402  66.9895325  68.8842773  70.5193863  66.5415268  69.2772675
  71.3516464  67.8011932  69.3847961  11.8199320  69.7718506  47.7881241
  11.5849266  68.9491119  48.2171822  12.7771206  69.7765198  47.7870064
  65.2375336  29.2106361  66.6888504  65.6895447  29.2925415  65.8490829
  64.4464645  28.7108040  66.4873047  78.4521255  34.6722870  24.2345467
  78.4543762  33.8268204  24.6833363  77.9896469  34.5061913  23.4131126
  81.8990707  59.6026154  20.9095173  81.1976471  60.1042671  21.3249512
  82.6789169  60.1471939  21.0167656  56.5409126  23.3418674  11.1202278
  55.7659378  23.0661373  11.6097345  56.3950195  23.0103912  10.2341862
  11.5569706  13.1885653  73.7355270  11.9848509  12.3458471  73.8871078
  12.2564573  13.8340378  73.8370895  11.2219248  35.2668228  88.8226242
  11.8379545  34.6431656  88.4381866  11.7713938  35.8649521  89.3291397
  72.7275696  29.4955616  46.1515427  72.7821121  29.3862019  45.2021790
  73.6348114  29.4397030  46.4515877  41.5227051  66.4710922  64.8869247
  42.3015556  66.4962997  65.4427872  41.6538086  65.7070389  64.3254395
   4.0066767   2.3246305  27.3582420   4.0381231   3.1037748  26.8031044
   3.1076858   2.0068328  27.2742634  75.3042374   3.1040261  75.6377716
  75.2907791   2.2535930  75.1986694  74.4114304   3.2198625  75.9628983
  14.6523724  42.4467087  70.7800293  14.4483929  43.1124687  70.1232300
  15.4891586  42.7255592  71.1518707  49.9396248  70.3899918  12.9913769
  49.2086258  69.8088913  13.2016020  49.8372650  71.1298523  13.5900145
  69.0824814  59.8802910  79.3221893  69.6603241  60.4051819  79.8761063
  68.9567261  59.0666656  79.8104858  48.3024406  14.1025972  81.6824722
  48.0324936  13.6268997  82.4680099  47.7667923  14.8958778  81.6869354
  48.4220352  33.2008514  87.8391647  47.9132729  33.9031029  87.4339066
  48.6472626  32.6187553  87.1134491  42.4889374   9.1815224  14.8485861
  43.0573654   8.9324522  15.5773411  41.6534157   9.4011679  15.2607679
   2.0527425  60.7192307  77.6400452   2.7240236  61.3973579  77.7159042
   1.5052758  60.8362389  78.4164581  56.1877975   8.1762695  86.2036362
  55.9242783   8.0953512  85.2869873  57.1438675   8.1348591  86.1825485
  67.4041443  20.5528145  57.9222412  67.5463028  21.4885635  58.0650597
  66.9118500  20.5077000  57.1025810  69.0154190  33.2149010  19.1549740
  68.8434906  33.2710266  20.0949326  68.3215256  33.7375031  18.7529430
  37.0627785   3.9624012  23.0902576  37.5307007   4.6818252  23.5141792
  37.7479858   3.3369968  22.8544750  64.5224609  47.1425896  81.8726044
  63.9263840  46.5247002  82.2958527  65.1677704  47.3533478  82.5474319
  65.4064026  41.9024429  74.9944992  65.9560699  42.2800026  74.3078003
  65.5559158  42.4626923  75.7560730  13.1110640  42.8827553  56.5440483
  13.5916939  43.7016068  56.4227676  12.6802616  42.9813957  57.3931122
   0.8198595  39.7601891  36.7295303   0.7051252  39.9856071  37.6527061
   1.2499011  38.9051437  36.7434235  45.6531639   5.1255841  13.2809916
  45.4572220   4.5284877  14.0030117  45.1100922   5.8949618  13.4523439
  17.9907627  61.3531990  83.8441086  18.4374104  62.1824379  84.0146942
  18.5905056  60.6853180  84.1764832  18.3679676  43.6555557  86.3189011
  17.4605598  43.4512749  86.0928192  18.3329468  43.9141769  87.2398376
  18.0106258   9.4125061  54.9228477  17.5277863  10.1872025  55.2108421
  17.7269287   8.7185230  55.5179405   2.7635858  47.9767456  35.3123055
   3.5913434  48.2108421  34.8924904   2.7263334  47.0221329  35.2526436
  13.6726656   9.0354071  27.1406517  13.6655216   9.8861942  27.5792198
  13.0030937   8.5253572  27.5964527  81.9715042  36.9426537  28.3309479
  82.6279068  36.3154640  28.6342640  82.4332886  37.4803619  27.6876297
  77.4971008  36.9186707  56.9816971  77.0418549  36.6612091  57.7833824
  78.4126968  36.6904335  57.1423607  18.9577522  56.9531593  21.4543629
  18.9218502  57.8277626  21.0670509  19.3194885  57.0933876  22.3294144
  43.9448433  46.0982666  31.6719799  43.6331024  45.2663002  32.0281868
  43.5993309  46.1212273  30.7796097  58.6349411  55.6101608  65.6250305
  58.2349472  56.4545670  65.4171600  58.2351036  54.9973373  65.0079346
  55.1743393  33.1325607  30.7677822  54.5908127  33.5378914  30.1263504
  56.0538254  33.2885551  30.4236870  42.9734306  55.1045952  86.8917236
  43.6759186  55.4724312  87.4278564  42.2718239  55.7541046  86.9377975
  28.0173092   6.8345189  70.4477234  27.9128857   6.6430855  69.5156937
  28.7461853   6.2799363  70.7259521  66.5327301  39.7637024  47.6487312
  66.0089264  40.5648193  47.6397514  66.2166214  39.2793961  48.4114609
  78.4233932  58.3724365  27.5309505  77.7191162  59.0206795  27.5347290
  79.2194061  58.8827248  27.6799450  73.3408432  67.5791702  26.7978802
  73.3001709  68.5256805  26.9345760  72.4977798  67.2549667  27.1147022
   5.3641992   9.5480938   0.6662304   6.2037492   9.9685116   0.8523380
   5.5977569   8.6712523   0.3615481  28.2940140  61.4279594   3.2884219
  28.5370274  61.1225471   4.1624360  27.3757744  61.6852417   3.3713286
  49.4816170  60.6138687  50.6155739  49.7124329  61.3279228  51.2097816
  48.8515739  60.0871887  51.1073914  19.4012012   3.9072957  63.3852348
  19.2164326   2.9694941  63.4364204  19.0701485   4.2620211  64.2103424
  45.9857216  52.2145615  33.6611748  45.0911903  52.4621773  33.4272308
  45.8957558  51.7495766  34.4929962  32.9571190  35.4398270  13.5768099
  33.5176582  36.2142792  13.5293350  32.1220589  35.7254868  13.2062588
  28.2454357  46.2648010  51.3541260  28.8594952  46.6212654  51.9960747
  27.8032227  45.5522842  51.8156471  78.3289413  11.4915171  51.5169601
  78.2264023  11.6537418  52.4547234  77.5430069  11.0036354  51.2709503
  27.6383839  54.7410812  85.7371750  28.4094868  55.1311607  86.1488495
  27.4692440  53.9491310  86.2475052  79.0056229  31.5560341  20.0210609
  78.3204651  31.1082535  19.5247936  78.5327225  32.0463600  20.6935062
  66.6958008  44.6497040  49.4214058  66.1645660  45.3221245  48.9949379
  67.5377274  44.6859894  48.9674530  30.1406479  69.4692993  80.4188995
  29.2357883  69.2893753  80.6740189  30.4325924  70.1441879  81.0317001
   9.7239428   6.1327896  33.7174950  10.1122351   6.2596669  34.5831528
  10.0247412   6.8848896  33.2075005  62.5823975  28.6442795  77.3755188
  62.1391907  27.8371792  77.1140060  63.3619232  28.6798897  76.8211670
  74.3237457   6.6042066  81.6165314  73.4232864   6.9256845  81.6618118
  74.2456970   5.7243824  81.2476883  84.5178909  67.2627792  54.5097809
  85.0488205  66.5392609  54.1768074  83.7024841  66.8502045  54.7946129
  81.2644730  63.5431061  22.6960220  80.7524490  62.8092766  23.0359592
  81.5597610  63.2501411  21.8339272  47.0057335   8.4542341  27.6642666
  46.6200562   8.5536432  26.7938614  46.6030350   9.1488247  28.1854267
  39.8917961  30.8790665   7.6304302  39.4782829  31.6645584   7.9885402
  39.9214211  31.0332737   6.6861978  63.0640831   0.7143512  40.3358917
  63.8737602   1.2248901  40.3361130  63.3501778  -0.1884944  40.4746399
  58.6293068  30.6868439  23.1938229  57.7140198  30.9566689  23.1184921
  59.0267067  30.9538002  22.3649426   3.1005700  21.9994450  38.7196770
   2.6749721  21.1429062  38.6817436   3.5290396  22.0918903  37.8687363
  81.9584503  36.1994514  39.7596512  81.3914795  35.4870338  39.4642982
  82.2052460  36.6578560  38.9564133  29.4033928  40.6514130   8.3961372
  28.7693996  41.1365776   7.8680282  30.2159004  41.1506424   8.3134718
  74.4828949  41.4053383  10.9072027  75.2298889  40.8236313  10.7663097
  73.7504425  40.9627380  10.4784222  12.6849728  51.1888885  81.8067856
  12.7212725  50.6969566  80.9864731  12.8811350  52.0910110  81.5539474
  71.4476776  49.5099716  77.1327515  71.0927048  48.9908257  76.4111404
  71.8789597  48.8698387  77.6988373   4.5701270  29.4498787  34.7876740
   4.3857231  29.7101383  33.8851814   3.9843843  29.9907684  35.3173714
  51.6468430  47.9783707  45.2599297  51.3848228  48.6099892  45.9297371
  51.7140923  47.1464081  45.7284889  50.9076843  24.0894756  86.8647461
  50.7268448  23.7959862  85.9717789  51.5397224  23.4546986  87.2021179
  31.3016872  27.6396618  86.0664825  32.1536674  27.7413120  85.6421814
  31.3044872  26.7414265  86.3972397   5.8613157  22.3134041  89.4671936
   6.7556067  22.6459637  89.3905182   5.6679659  21.9451904  88.6050644
  77.4980316  25.7357121  37.7811012  77.6370773  25.4932842  36.8656082
  76.6338425  25.3832321  37.9936142  29.5664196  22.7912350   3.0994556
  28.7176285  22.9763260   2.6975513  29.9814949  23.6491604   3.1883912
  12.9591055  69.3369675  22.3617783  13.0274315  70.1643982  22.8381386
  13.4894218  68.7233810  22.8702240  73.0135040  63.3093796  80.2245407
  72.8934708  64.2570724  80.1637497  72.6685028  62.9707680  79.3983765
  29.8393288  50.8392792  59.2102547  30.1142445  49.9307327  59.0869751
  29.3250027  50.8264618  60.0174332   2.5465715   9.7799034  54.8666649
   3.3204072   9.2587194  54.6527061   2.4049017  10.3266850  54.0938835
   9.7307072   7.9343996   8.5548134   9.8337355   7.0413566   8.8835859
  10.0881233   7.9056206   7.6673131  76.1993256  17.6778717  14.2465391
  76.1422119  17.2643375  15.1079102  77.0748444  18.0641155  14.2238636
  72.4275970  39.2110062  45.7380295  71.5777206  39.5234375  45.4276543
  72.9268112  40.0087967  45.9128036  77.9129715  44.6859283  49.2512360
  78.8578110  44.5366287  49.2862701  77.8028717  45.3697166  48.5905266
  34.2776794  15.8615332  82.0667572  33.6288872  16.0218468  81.3814850
  34.6031418  16.7318211  82.2967758  23.1358185   3.4856155  13.3603420
  22.5469570   3.9732051  12.7843838  23.4791775   2.7810452  12.8108721
  26.3933601  32.7888756  13.9865952  27.0220051  32.5407143  14.6644268
  25.7908611  32.0468407  13.9354849  17.0169945   4.8820095  34.2567558
  17.2611389   5.5942092  33.6656570  17.1190472   4.0887079  33.7309303
   1.0493395  33.3173256  14.6077404   0.7401277  32.4267082  14.7733335
   1.0190483  33.4081802  13.6553440  57.5712624  69.2169037  85.7650223
  58.5113220  69.3070679  85.9212036  57.3384094  69.9906921  85.2519302
  11.1362009  19.6009731  80.7210541  11.3637724  19.4645634  81.6407471
  10.9254503  20.5328236  80.6621323  58.5210838  20.0780773  21.6199417
  58.4396782  19.7847672  20.7124329  59.0865746  19.4253845  22.0327930
  39.5754356  49.5123482   3.5607069  39.7689590  48.7105980   4.0464835
  38.9236488  49.9651909   4.0958152  50.9866524  16.7909069  17.7639217
  50.4997902  17.0127716  16.9702148  50.3203926  16.7497425  18.4499493
   5.4666061  58.5747261  17.7864361   4.5157809  58.6844292  17.7750664
   5.8109159  59.4677620  17.7733154  70.5681000  34.5991592  29.6328526
  70.0196381  34.8011703  28.8748226  71.4283447  34.4044151  29.2609749
  64.4438019  18.0463924  61.7003517  65.0903625  18.4185181  61.1005936
  64.3887482  17.1239090  61.4508972   1.3064445  47.0578651  69.7509689
   1.2539872  46.8295937  70.6790695   1.3271568  46.2149849  69.2978058
  74.5211334  52.7347717  79.7256470  74.0656891  52.3028297  79.0029984
  75.3165436  53.0902214  79.3291473  40.1922035   1.6199965  56.5702629
  40.6136208   2.2378488  57.1676712  40.9187050   1.1844952  56.1244278
  61.3452148  15.6510506  47.1583977  60.9483795  15.5478745  46.2934647
  60.6338120  15.4670086  47.7718048   2.5486095   9.6994152  45.9582329
   3.1525247   9.9946356  45.2767906   1.9586060  10.4410000  46.0930634
  36.1597900  41.2343597  79.6456604  35.5094376  41.2740974  80.3468704
  36.6413231  42.0583954  79.7186203  61.1036339  29.2766094  74.8093872
  62.0544968  29.3750229  74.7603989  60.7773857  29.7053623  74.0182114
  62.0247993  11.4350529  76.5541687  62.0435448  10.4843836  76.6642075
  62.1612167  11.5703621  75.6164551  22.2932529  25.5380478  59.9379234
  23.1597767  25.4090633  59.5522690  22.0248756  24.6641483  60.2216606
  29.7357712  59.7865753  52.8414917  30.5007343  59.6103706  53.3892250
  29.9627762  60.5834579  52.3622475  52.2179985  36.4969940  28.5263157
  51.2984161  36.7625580  28.5179539  52.4515572  36.4133453  27.6018238
  18.4064770  58.5911713   0.2141234  19.2945137  58.3558006   0.4828680
  18.5136185  58.9764900  -0.6555216  15.4462748   9.1694279  81.1317749
  15.3104372  10.1160774  81.0913391  14.8157225   8.8101082  80.5076523
  69.3457413  44.4932442  71.5709839  69.4765396  43.7043877  72.0971222
  68.5331421  44.8724556  71.9058151  48.8306351  65.7262878  88.1704712
  48.3512993  66.4422531  87.7535019  49.6630745  66.1176224  88.4352951
  32.5926590  17.2336540   9.5261059  32.8383446  18.1026745   9.8434000
  32.7783241  17.2600651   8.5874567  18.5115032  53.4520950  39.1624527
  17.7296486  53.1550674  38.6969299  18.6070213  52.8352203  39.8881073
  10.6943550   4.9962201  68.3525391   9.9985418   5.6362147  68.2025909
  11.4377680   5.5173206  68.6558914  42.6032753   1.2456266  64.2386932
  43.4744987   0.9094172  64.4488525  42.4245071   1.8915026  64.9221573
  54.9370384  69.7144699  83.8529816  54.7944183  70.5295563  83.3718109
  55.7363014  69.3490982  83.4736176  41.0040398  36.4569092  72.7566757
  40.7414589  36.7109032  73.6414108  41.0046043  35.4998398  72.7724686
  38.0788345   0.6533831  76.4383926  38.1054230   1.5922402  76.6229858
  38.9107399   0.3196121  76.7742004   9.5564032  15.2805967  17.4876766
   9.6649580  16.0184059  18.0877476   8.8200788  15.5317516  16.9300213
  11.1277361  31.4473495   5.3962812  12.0445261  31.1814365   5.3254361
  11.0559816  32.2137184   4.8272805  38.5417900  59.7812691  40.1717300
  38.5668793  60.4858055  39.5242500  38.8404083  59.0069275  39.6948013
  60.9238510  12.3311949  44.7062073  60.5463066  13.1407070  45.0502739
  60.2907372  12.0296125  44.0547104  13.2805843  59.9063110  27.0742531
  12.5859804  60.5587273  26.9841995  14.0708504  60.3547173  26.7731838
  59.3308601  18.2489395  53.7511978  59.5255127  17.9182873  54.6281319
  59.3831635  17.4773121  53.1872063   1.8840556  42.2541428  54.9603081
   1.6514218  43.1066895  54.5925064   2.8167832  42.1569748  54.7684517
  44.1945686   3.3832076  35.8979073  43.8738899   3.4717808  35.0003815
  43.4040108   3.3989260  36.4373550  76.1437302  19.6062050  63.1289558
  76.7044373  20.1041222  63.7238617  76.7305450  19.3224468  62.4279900
  53.1109314  10.4533186  56.2920113  52.4982300   9.8095770  56.6475754
  53.9730759  10.0551376  56.4119720  54.7086296  60.8612556  60.4949532
  54.2967148  61.6789627  60.2158203  54.2908096  60.1873703  59.9587288
   0.7763213  69.4530411  25.5505466   1.5959082  69.6740265  25.9928970
   0.9493237  69.6262817  24.6251850  51.1599312  44.2050781  64.9430161
  51.5123901  43.5235291  65.5152893  51.6097488  44.0733070  64.1084290
  69.3057709  42.1072006  13.6898937  68.7902603  42.2100525  14.4898291
  69.0485077  42.8488350  13.1421480  20.1100903   1.2084658  84.4784393
  20.4952240   0.3504138  84.3005295  20.8172436   1.8293597  84.3033447
  58.7840614  34.0363846  50.6164093  57.9795418  34.3539658  51.0264320
  58.5467453  33.8969231  49.6996422  72.4797745  62.3606682  62.5722923
  72.7223129  62.2908592  61.6489677  73.3013306  62.2313957  63.0461731
  64.1021881  55.9345016  40.3862495  63.6952209  56.5563965  39.7830429
  64.0325546  55.0894623  39.9420738  78.6787796  58.1108932  11.5868559
  78.6278534  58.0362282  10.6339321  77.7675171  58.1847343  11.8703547
  65.1981964  18.4807110  85.1172028  65.9717026  19.0366573  85.2112885
  65.5142136  17.7078724  84.6491318   8.4487257  51.5617371   3.5522194
   7.8554025  50.8529510   3.8008528   9.0525904  51.1604767   2.9272652
  49.6448898  39.0222740  68.1993332  49.5905952  39.9584694  68.0074387
  49.1032333  38.6082573  67.5274506  64.3249969  28.9685650  50.4084969
  64.9483871  28.5954742  49.7852592  64.3064651  28.3426819  51.1324883
  45.4503784  48.0072556  21.9058914  46.1747932  48.4516449  22.3463211
  44.9544144  48.7122879  21.4897404  84.4756546  29.8516312  24.5018883
  84.9528809  30.3165016  23.8145905  84.4640121  30.4612885  25.2397308
  62.7297516  23.0829029  26.1794643  63.0945206  22.2135563  26.0138988
  62.9520226  23.2660313  27.0923119  85.9212112   9.2596970  49.7232513
  86.4208069   8.5115557  50.0502319  86.5329895   9.7255268  49.1531944
   6.0919461  30.0151825  56.3760834   5.5976481  30.0020428  55.5564919
   6.2411394  29.0920715  56.5806313  20.4223175  27.1341896  77.8475647
  20.1041889  27.1422558  76.9448090  20.2131233  26.2565937  78.1673965
   1.3965997   7.5640316   7.6488042   0.9597507   7.8892694   6.8616476
   1.1452111   8.1822338   8.3349981  57.8899612  44.3384514  29.8935795
  57.4133835  44.6686859  29.1319675  58.8129158  44.4344597  29.6586895
   8.7402372  30.2245922  86.1168137   8.0566845  30.7278786  85.6744385
   9.5569935  30.6525116  85.8598557   6.1670494  42.4776688  87.9201813
   6.6242599  41.6402245  87.8435135   5.2515850  42.2383881  88.0647583
   8.2821388  61.5360603  36.6594048   7.6686025  61.1967010  36.0077591
   8.4289942  62.4454803  36.3993492  63.2485657  41.8042831  29.3802299
  63.7724571  41.7914314  30.1812325  63.7721596  42.3112526  28.7596951
  50.7941399  27.8684750  28.1702518  50.1546516  27.6572437  27.4900551
  50.2831764  27.8958015  28.9792023  13.2986832  13.4322205  77.4231491
  12.5996532  12.9235611  77.0122299  13.5256357  12.9358139  78.2094727
  84.0589218  70.5499878  87.8739777  84.3486557  69.7057037  87.5283203
  84.3367920  70.5418930  88.7899246  78.3734741   9.2540598  82.1719818
  77.8378296   8.8136654  81.5121536  78.7829895   9.9805317  81.7021179
  68.0493622  44.7150917  45.2545547  67.4589081  45.4590683  45.1358414
  68.7743301  44.8863983  44.6534691  23.8207531  44.8275604  54.2605667
  24.2567616  45.0453186  53.4367294  22.8934422  44.7651596  54.0315857
  46.0160751  35.8099480  14.0590487  46.2753639  36.6099167  13.6018276
  45.0591698  35.8217430  14.0384512  31.8320274  36.9640541   9.6077271
  31.4406929  37.3552094   8.8266459  32.1078186  37.7119789  10.1376152
  70.4849091  42.7969742  69.4828873  71.0861511  43.0480537  68.7816772
  70.2363052  43.6252441  69.8932495  37.5139732  63.9787292  67.6542664
  38.4032593  64.1686096  67.3553543  37.2524529  63.2065506  67.1526947
  54.6344681  53.1255112  50.1526031  54.6318665  52.1954956  50.3790894
  53.7119751  53.3413429  50.0160332  38.5880585  47.0584335  41.7164612
  39.1816673  47.7877045  41.5375214  37.7561378  47.4759827  41.9396057
  78.6119080  38.7764626  53.0356903  78.6835785  38.7025871  52.0840416
  77.7029800  38.5444870  53.2261467  85.1019669  36.2933388  35.7918358
  84.2798080  36.7834930  35.7851677  85.0953979  35.8259544  36.6271477
  40.4483032  18.8965092  10.4936905  40.0064468  19.7427788  10.5631514
  40.2112427  18.4357681  11.2985210  74.6526108  24.8849907  37.4655838
  74.1401749  24.4171200  36.8062325  74.1599274  24.7695637  38.2780952
   8.8686867   9.7504873   5.0527525   9.0665026   9.5229130   4.1442862
   8.0303373   9.3236761   5.2294822  47.5302544  17.0368290  12.5024176
  48.1709251  17.0418549  11.7912579  47.1429520  16.1620941  12.4696999
  22.5084991   0.4635105  53.2238274  22.7680473   1.3822943  53.1552544
  22.5780449   0.1276424  52.3301888  67.8748093  65.2241364  19.1270542
  67.8423233  64.3363266  19.4833679  67.5200577  65.1401443  18.2419949
  49.3077965  49.4107704  82.8488388  49.8636131  49.5948677  82.0916061
  49.2869911  48.4553909  82.9040604  49.6493454   2.2227776  65.4101181
  49.9074059   1.5173706  66.0034485  50.4697113   2.5117283  65.0104523
  66.5109863  50.2946053  57.9354706  66.4858170  49.9194298  58.8157234
  65.7203979  49.9618874  57.5106087  55.8925629  45.2617760  48.5576363
  55.1534538  45.2671509  49.1658478  55.4952774  45.1152267  47.6991997
  53.2057037  13.6023712  81.1192169  53.1418381  14.4321823  81.5920410
  53.9508667  13.1549606  81.5202026  58.1716957  51.4310951  36.3603821
  58.3296928  52.3607101  36.1957855  57.7600822  51.4073868  37.2242355
  17.9527626  44.6314011  48.3971405  17.3834133  45.4002113  48.4288864
  17.3571281  43.8985405  48.2410507  41.9293098  51.5150452  69.7816162
  42.8397217  51.2212067  69.8138504  41.4675293  50.8140564  69.3216171
  23.3536339   7.8479810  18.9521198  23.7717171   8.7088289  18.9326019
  23.6379547   7.4252052  18.1417770  44.2503128  22.9064789  67.0187073
  45.0630836  22.4158249  66.8966599  43.7069931  22.6599007  66.2702179
   1.9334437  63.8274078  57.1311417   2.6050253  64.3880463  57.5195923
   1.8131348  64.1749115  56.2474022  61.4944000  28.8774929  43.2095909
  61.9154968  28.7995396  44.0656471  61.5513763  29.8094120  42.9986153
   5.1668177  48.3960419  45.3272285   6.0220804  48.2304573  45.7238884
   5.2011366  49.3141022  45.0584946  38.9048462  49.2090378  68.4142456
  39.8358994  49.3251266  68.6036987  38.5612755  48.7443390  69.1772919
  81.0170288   9.7533560  74.9108505  81.7175598   9.9914646  75.5181351
  80.3404236   9.3655663  75.4658737  36.8045540  68.8351898  82.7214050
  37.2001152  68.7982635  83.5922623  37.2275200  68.1268692  82.2359924
  81.6030121  61.9746590  44.6185875  81.6821671  61.5898743  45.4914627
  82.4360428  61.7740059  44.1919441  37.9454842  27.3373547  74.2009811
  38.3981361  28.1371059  73.9331360  37.2090073  27.2642307  73.5939560
  48.4284897   6.5835171  83.0678940  48.8164139   7.4554267  82.9935989
  49.1783447   5.9933877  83.1433792  70.3016357  54.4440460  72.2010269
  70.3890610  55.3380165  72.5317993  69.8749771  53.9661674  72.9122467
  35.6746292  58.0629730  88.0727844  36.2856941  57.8582001  87.3650436
  35.0187607  58.6295509  87.6665039  80.0076447  48.0713730  13.9857998
  80.0881653  47.9436417  14.9310150  80.8239212  48.5020294  13.7319088
  75.6764832  41.0324097  81.3578720  75.5888290  40.2526474  80.8096771
  76.5622025  40.9749184  81.7162399  36.9932022  32.3032455  82.8188553
  37.1863976  33.0814438  82.2960587  36.0746651  32.1104012  82.6308899
  10.3878527  36.1450577  16.6761818  10.5132914  35.3589973  16.1445770
  10.9250851  35.9962196  17.4542942  85.9923553  19.8317051  86.3405991
  85.8573456  19.0467777  85.8096619  86.2675323  19.4986782  87.1947708
   1.1202599  67.8621674  80.9745255   0.1668783  67.9394073  81.0109711
   1.3700156  67.5640488  81.8491516  64.8710327  48.1319313  38.6146622
  65.3449860  47.3160515  38.4536133  64.2342300  48.1837006  37.9019012
  71.9549713  24.6743126  64.7093964  71.8584061  25.5700111  65.0328598
  72.6247940  24.7364826  64.0284348  29.6342716   1.6206956  47.1932793
  29.1830978   0.8562703  46.8350487  29.2602882   1.7317119  48.0673752
  40.6561966  32.6971931   9.5930548  40.2081642  32.9709167  10.3934116
  41.0242271  31.8395977   9.8059311  67.2991791  50.6085396  43.5798607
  66.6149139  50.9090004  44.1779747  67.1867142  51.1477470  42.7970200
  59.6582756  67.0961533  58.9422264  59.4096375  67.9851074  58.6889076
  59.7939987  66.6396103  58.1119385  74.1171951   2.9247992  23.1527119
  73.6382217   2.8922720  23.9808159  73.6499863   2.3149891  22.5816765
  66.3451309  32.3708839  70.0809784  66.8901291  33.0772514  70.4277496
  66.0680008  31.8802738  70.8547516  15.9779205  18.6027203   7.5557418
  15.6644449  19.5050373   7.6172862  16.9319954  18.6794701   7.5649381
  60.6495781  -0.0993304  80.2934952  61.2422714   0.5357166  79.8914261
  59.7738457   0.2124695  80.0652466  31.7017345  55.6581841   1.6838580
  31.0368977  56.2946777   1.4209899  32.5343933  56.0807610   1.4732788
  41.6351585  37.6467133  75.1885071  42.5160255  37.3318672  74.9855881
  41.7396736  38.5907555  75.3072357  17.0704975  66.8656082  18.8873482
  17.4308167  66.2778854  18.2232819  17.7212753  67.5628281  18.9686279
  23.8276463  12.5525827  48.8814507  23.8747005  11.6354704  48.6114120
  24.1834373  13.0396614  48.1382141  33.2564125  25.4712162  11.0673857
  32.9450264  26.3743382  11.1277237  34.1625786  25.5497246  10.7691736
  64.3967590   2.0329945  70.3290558  65.2379150   2.4832592  70.4061890
  64.2367401   1.9842179  69.3865891   1.6561166  50.1175613  79.5391617
   1.8489308  50.6537781  80.3082657   1.2113963  49.3461418  79.8903961
  80.0453415  42.3470726  44.7809639  80.7490082  42.3705254  44.1324730
  79.2518539  42.5368195  44.2803612  41.7451820   5.8355255  36.3455772
  41.4526482   4.9666767  36.0703316  41.1297836   6.4386444  35.9287262
  69.0088120  61.1531944  22.4873619  68.9474640  62.0948372  22.3268108
  68.8022079  61.0547333  23.4167995  18.9218292  46.9904556   1.4725084
  18.8987045  46.9114304   2.4261603  19.7973156  47.3268509   1.2812110
  28.3291683   6.9153547  38.1098137  29.1073208   7.0529828  38.6499672
  27.9704399   7.7930298  37.9785385  13.0861006   8.2773657  89.0111465
  12.6667862   7.8585577  88.2594757  13.2615223   7.5587721  89.6186676
   9.7787399  22.9675999  56.8695831   8.9388046  22.6152763  57.1638718
   9.5593433  23.8114929  56.4746857  60.7178688  63.0815926  52.9925575
  61.6431465  63.1719666  52.7646904  60.6685600  62.2534332  53.4700012
  45.6412735  68.4321289  51.2221413  46.1196175  67.7193069  51.6455841
  46.1653862  68.6471176  50.4505730  45.1792297  40.8549118  71.3667450
  44.5620689  40.7844391  70.6384735  44.9438896  40.1339455  71.9507446
  78.1016388  13.4489317  13.3282928  77.8560028  13.9808559  14.0852299
  78.7858124  13.9559269  12.8911524  25.7029419  50.2090225  65.6701584
  26.5962639  49.9855156  65.9314117  25.8047085  50.6649933  64.8347168
  73.6951828  13.8815727  28.8218651  73.3163757  13.0148468  28.9685707
  73.8760681  13.9079914  27.8822842  51.6043816  34.8272858  79.6726608
  52.0202866  34.3115997  80.3635483  51.6204910  35.7259407  80.0018997
  82.0359497   8.4232092  57.6828690  81.8950729   7.9821486  58.5206375
  81.1578903   8.6669340  57.3898773  59.5874100  15.8714237  22.0710926
  60.4413681  15.4524889  22.1782227  59.6357002  16.6565704  22.6164780
   5.4120259  58.9568825  52.4727669   5.0480146  59.3872375  53.2464066
   4.7977471  58.2480965  52.2816772  61.3362389  29.2900867  20.2583771
  61.4886017  29.4635715  19.3294411  61.5947075  30.0997009  20.6987724
  29.5290890   7.0372529  28.2574673  30.2477169   6.9380198  28.8819332
  29.7462597   7.8296266  27.7663345  84.7292404  26.2257595  81.4200134
  84.2244797  26.4510231  80.6385422  84.4541092  26.8664646  82.0757828
  73.7323990  53.0211411  34.4203072  73.0408478  52.3787994  34.2609673
  74.2018127  53.0791092  33.5881348  23.0174541  21.4292336  13.9095964
  23.3921547  20.8381023  14.5625849  22.9345284  20.8932514  13.1208773
  44.7525902  16.7536373  77.9603348  43.8696404  17.0575924  78.1706619
  45.3295593  17.3235569  78.4687958  47.5344505  11.5130806  34.1370506
  46.6708412  11.3568811  34.5191650  47.7302094  12.4249964  34.3522682
  22.7122803  53.2396507  47.1953621  23.6347294  53.0321617  47.3445854
  22.3494606  52.4471016  46.7998161  24.7698822  52.8208809  30.5468140
  24.5134907  53.3729477  29.8080864  24.9668789  53.4389381  31.2506790
  51.6926994  41.2240334  83.9915161  52.1191597  40.5296860  84.4937592
  51.2812157  40.7697067  83.2563324  72.1638641  35.3952484  53.8632927
  72.5478058  34.6368561  53.4232216  71.2655792  35.4333496  53.5348740
  16.5516052  45.4553261  51.2778053  16.3188152  45.4541397  50.3493462
  15.9329586  44.8460274  51.6806221  16.3367233  59.6336021  61.8922615
  16.5093918  58.6954727  61.8127022  16.4596748  59.9757118  61.0067825
  42.0067749  46.2177849  44.1256714  42.0132256  47.1608200  44.2896042
  42.0262222  45.8229980  44.9974518  18.8188362  35.3366890  16.9926910
  18.8864174  34.9404831  16.1239643  18.5829163  36.2485847  16.8223476
  58.2773438  25.7742863  27.0299797  58.6125374  24.8918648  27.1887531
  58.5231895  25.9645882  26.1246738  61.8538818   7.5424056  78.8161316
  62.3359489   7.0316906  78.1657410  62.5010452   8.1532736  79.1686249
  48.1733513  46.2356911  68.5196152  48.8317032  45.5431328  68.4633255
  47.6129189  45.9745827  69.2503433  49.7867432  21.9957142  77.6969376
  48.9598312  22.0890274  77.2239304  50.0356064  22.8918381  77.9233475
   6.1076584  45.9333839  46.9637451   6.8671260  46.2941895  46.5062981
   6.3915133  45.0658493  47.2519226  78.2262650   5.9471207  24.4720001
  77.7199707   5.1712804  24.7127781  77.6408997   6.6817508  24.6561165
  18.9765167  55.2039108  15.8738546  18.2510338  54.5922279  15.7483444
  19.6118774  54.7173805  16.3990574  30.2021484  45.9677162  69.4604492
  30.4882488  45.3085823  70.0928421  30.9993954  46.2092209  68.9889603
  79.3634033  34.6125832  87.2996902  79.5239334  34.4929161  88.2357178
  78.4216385  34.7717209  87.2366180  26.2913036  50.1254501  84.8079605
  25.3608532  50.2446938  84.6175003  26.6477814  49.7210693  84.0169907
  33.1430779  70.7110519  79.5081482  32.4204979  70.8947983  80.1084290
  33.4681435  69.8528290  79.7802200  44.2180443  28.1288586  83.5436325
  43.8308182  28.0717793  82.6701202  43.5857811  27.6927757  84.1148682
  52.4607735  30.2496357  60.7047844  52.1070862  29.5180283  61.2106400
  53.0862923  29.8450241  60.1037445  47.7635040  60.5081100   9.1481447
  48.0486298  59.9842987   9.8968487  46.8152351  60.3819809   9.1148186
  29.2144318  61.8049927  21.5524101  29.8828487  61.1205177  21.5831509
  29.5593586  62.4489975  20.9339294  79.5738831  70.0993042   7.9474077
  78.6722641  70.3958664   7.8234515  79.5230179  69.4736252   8.6700230
  57.7998505  29.1229343  70.7836609  58.4263306  29.2221317  70.0667801
  57.4607735  28.2333622  70.6840515  79.6681137  17.5359707  47.6558304
  80.5500107  17.5370407  48.0279579  79.3407669  18.4216232  47.8129768
  57.5466652  29.0637894   7.7703838  56.8666725  29.5405064   8.2463884
  58.3689156  29.3964729   8.1301899  71.3868484  10.6012602  26.1843624
  72.0041351  11.3252459  26.2894344  71.7485199   9.8979683  26.7236290
  79.4533844  45.6927948  41.9508171  79.0127258  46.3143845  42.5301895
  78.7755966  45.0568466  41.7218857  81.7010956  62.8109818  31.1826153
  80.9829712  63.3390083  31.5314922  81.2680511  62.0975952  30.7138062
  22.4496002  70.5638580   6.7292209  21.8580894  71.2236633   6.3672838
  23.2132893  71.0613937   7.0215645  46.3703842  10.5895061   9.2010918
  45.6933441  10.9081841   9.7979927  46.5957184   9.7215710   9.5359726
  11.5999117  17.4940224  79.0849228  11.1515074  18.2991676  79.3435898
  12.5207720  17.6563740  79.2895966  69.9796600  61.3520927  74.9040756
  69.0856400  61.0138397  74.9544601  69.9252167  62.2300110  75.2816010
  69.2108383   2.7114782  49.4643974  70.0709686   2.6261029  49.8756409
  69.3987350   2.7812951  48.5284233  73.8561249  70.9143372  78.1410675
  73.9793854  70.4148636  78.9482651  73.9207993  70.2620316  77.4435349
  53.2393074  42.7385139   6.5650616  52.5914688  42.0413818   6.6677480
  53.2187614  42.9489632   5.6315088  37.9900208  21.5030594  13.4303770
  37.7869987  20.6147633  13.1372137  37.1510735  21.9629269  13.3999748
  67.6103516  70.9414978  63.9605179  67.1179123  71.1931763  64.7417908
  68.3785095  71.5125580  63.9672775  57.5297241  30.7945652  18.5340195
  57.2653694  30.0831585  17.9507122  58.1256828  31.3271980  18.0073643
  64.7488327   7.6856642  86.1176300  64.4586716   7.0060720  85.5091934
  64.7077484   8.4956789  85.6092758  34.5834389  60.6906166  76.4905548
  34.7696228  59.7957535  76.2063217  33.9910545  60.5870209  77.2352600
  59.6000977  65.1690826  54.0667191  60.0248680  65.0452576  54.9155235
  59.9911728  64.5012054  53.5034866  36.3734398  53.9899521  16.6020870
  36.3545532  53.0330887  16.6191330  35.7858200  54.2283745  15.8850861
  15.8114977  32.9335442  82.4075317  14.9517107  32.9762726  81.9889984
  15.6208258  32.7591019  83.3291855  74.7846069  35.7998543   9.6966581
  74.9109802  35.1076889  10.3456306  74.5399551  35.3357544   8.8960400
  15.8856306  37.7513275  51.0907249  16.0432606  36.8250923  50.9077644
  15.3307419  37.7503471  51.8706779  66.0783310  61.5161438  42.0846062
  66.0986404  62.4111290  42.4234581  65.2469864  61.1601143  42.3982048
  12.5878420  17.6192417  22.9920921  12.6450663  17.1661739  22.1508503
  11.8191967  18.1835251  22.9084263  27.1848431   5.2274847  47.9964676
  26.9753761   6.1212931  47.7254295  27.3703194   4.7663851  47.1784096
  23.8422031   5.3752623  24.6934395  23.6188850   4.7445669  24.0089073
  23.3301792   6.1546011  24.4773483  82.4308319  10.8201170  35.8105888
  83.0860062  10.7165394  36.5006981  82.8794785  10.5447950  35.0111198
  35.1660919  29.7149391   6.9346175  35.9347878  29.5443192   7.4788861
  35.0280533  30.6595535   7.0044723  76.5656281   4.6659908  14.8893595
  77.2587051   5.1640120  15.3227825  75.7917175   5.2254252  14.9551334
  84.4811020  49.5334702  51.0154724  84.5968552  49.2789803  50.1000099
  84.6251831  48.7258415  51.5086365  25.4169540  57.8059464   2.4583049
  24.7854843  57.8118896   1.7389696  26.2227478  57.4687500   2.0668645
  65.3140869   2.7043407  56.8659744  64.9004974   1.8775553  57.1141663
  66.0688095   2.7793834  57.4499283  87.0919876  37.8702240  80.5605164
  86.4981079  37.3280067  80.0413361  86.8724289  37.6636467  81.4690018
  12.8374319   5.6142774  20.3958054  12.2526970   5.6744041  21.1512527
  12.9635620   6.5214763  20.1177521   8.7300186  66.0079193  20.0739136
   7.9641299  65.4699402  19.8733597   9.3106127  65.4250946  20.5632553
   4.5966711  47.6969337  24.5705261   4.9849529  48.4776764  24.9653797
   5.2894878  47.0377541  24.6120090  60.4565506  33.0070419  11.4845963
  60.4127960  32.0547256  11.3985033  61.3447495  33.1786919  11.7974386
  84.3293915  36.2376595  25.5054092  84.1508865  36.9674492  24.9123058
  83.5982132  36.2466469  26.1230831  78.5618210  13.9648371  50.5416412
  78.3187485  13.0534515  50.7045021  79.3553009  14.0974512  51.0603256
  21.5502834  55.9859200  55.5183372  21.0848866  55.3276062  55.0023346
  20.9000168  56.3023338  56.1454506  59.5659790  48.5277367  16.5181580
  59.8210869  47.6986084  16.1135674  60.3934937  48.9303284  16.7815475
  62.2514572  62.1309242  36.7313538  61.6385422  61.6910973  36.1421852
  63.1165695  61.8982391  36.3942032  12.4822369   0.5119433  60.3235588
  12.9299698  -0.3223738  60.4638519  12.3714705   0.5676894  59.3744278
  77.4821930  21.5844746  54.0050697  77.6295700  22.3043156  53.3916054
  78.3533249  21.2189598  54.1591759  20.3363400  35.7310982   8.1738338
  21.1167526  35.2167397   8.3802881  19.9003906  35.2367592   7.4797058
  56.8548126  24.0565300  72.3478470  57.3708229  23.3551769  72.7454300
  56.0354691  23.6342831  72.0897522  65.2068100  51.9787102  41.0538673
  65.7466354  52.7106171  40.7553139  64.3071060  52.2642899  40.8950920
  22.3974514  55.8590088  28.3370399  21.4626484  55.7728920  28.5240135
  22.7707729  56.2172470  29.1423512   7.9641571  58.0150452  70.1897888
   7.7076249  58.6201210  70.8857117   7.9955859  58.5565605  69.4011154
  13.6244736  57.0237274  83.3665161  13.6750517  56.1819534  82.9136429
  14.2592459  56.9507751  84.0792389  25.0036068  68.6751785  66.7312241
  24.4510441  67.9125900  66.9025650  25.8852978  68.3152618  66.6347046
  45.0442886  67.5604095  48.4022865  45.8837357  67.1184235  48.5295792
  44.4026909  66.9774628  48.8081856  51.1254311  67.3652496  72.4507446
  50.8536453  67.7808685  71.6324387  51.5489502  68.0662003  72.9462585
   5.5670738   4.7433844  11.5565529   4.7561383   4.2804289  11.7669983
   5.4275541   5.0807648  10.6717138  21.4331932  50.6979485  45.6664886
  21.3352928  49.9228783  46.2195854  20.6120014  50.7483597  45.1772690
  39.9263763  55.9663315  53.9730644  39.6590538  56.7875633  53.5603333
  40.7514992  56.1757164  54.4107437  58.6422653   4.5472751  13.7037926
  59.3795624   4.6809192  14.2994118  58.0802040   3.9180083  14.1558352
  61.2474937  25.0369797  86.9603806  60.4687424  25.5883389  86.8843918
  60.9069061  24.1710644  87.1849365  54.4716377  26.4024048   9.6874008
  55.3807907  26.2894802   9.4100542  54.3221474  27.3466473   9.6395302
  53.4441032  46.6792145   8.4516048  54.0992966  46.4328194   9.1044731
  52.8887672  45.9043655   8.3653269  28.8758659   2.0744271  19.1188202
  29.7348175   1.6917704  18.9399147  28.6452217   2.5334423  18.3111458
  49.3046722  53.0927391  55.4827728  49.4834290  53.3294640  54.5726967
  48.4866524  53.5439186  55.6913681  40.2972641  53.0224342  71.4018936
  40.7476692  52.4298630  70.8000412  39.5586739  52.5115356  71.7331009
  39.9433937  56.3170013  60.6946564  40.8797493  56.3202972  60.8933144
  39.6554337  55.4305420  60.9126053  16.8402977  47.9812164  25.6900253
  16.3235779  48.6349640  25.2190189  17.2549305  47.4618988  25.0010948
  84.2335205   3.3473554  21.8338165  85.1749496   3.2223940  21.7141266
  83.8717957   3.3047316  20.9486198  26.8914509  57.2070351   6.5139275
  26.3403950  57.7042809   7.1183429  26.2841682  56.8792725   5.8505945
  52.6435852   2.0508330  43.7967491  52.1754074   1.7927238  44.5907364
  53.2344093   2.7474725  44.0828476  69.1073227  68.7175140  82.6732483
  68.7123184  68.3449020  83.4615097  68.9336700  69.6565170  82.7392502
  77.7889938  39.5512161  48.9731216  78.3321762  39.7271156  48.2048492
  78.2858047  38.9048958  49.4748039  38.8934212  61.8473244  88.1252441
  38.5945892  62.6619568  87.7211304  38.0908890  61.3505478  88.2845840
   9.4720745  65.9658356  78.8146133   9.5966768  65.4147263  78.0419693
   8.5823956  66.3072357  78.7243500  18.6192932  67.6531219  25.1302738
  18.9640884  68.0174789  25.9454975  18.8370304  66.7220001  25.1731205
  13.0161238   1.0463508  38.9950829  13.2863846   0.5372544  39.7592926
  13.7074509   1.6992695  38.8855591  52.2556496  14.5707312  78.7411270
  52.5340576  14.1677160  79.5634995  51.3060722  14.4512367  78.7252579
  11.4033546   8.9418745  48.6109848  12.1642790   8.8046675  49.1752548
  11.5523653   9.7992010  48.2122154  84.3420715  45.4425583  38.4906120
  83.8835373  44.9560776  39.1756744  83.7630157  46.1780586  38.2906723
  59.9058037  56.0192642  80.7478333  59.8416214  55.4065552  80.0152359
  59.0087166  56.1001053  81.0717545   2.1268573  12.9585609  63.8387833
   2.2819760  12.0141449  63.8545151   2.9688721  13.3353577  63.5833092
  79.7715759  13.0174522  83.5995712  80.0880737  13.2975817  84.4583969
  80.3305664  12.2755489  83.3686142  55.8932037  42.0541115  35.1964188
  55.4563141  42.8276711  34.8400993  56.8269882  42.2513161  35.1230278
  63.7956276  29.0499535  27.9590969  64.7178497  29.1846600  28.1772785
  63.6813927  28.0997791  27.9778271  85.7996292  18.4414234  73.4509125
  86.1962738  18.3188305  72.5884323  86.5353317  18.6553898  74.0246658
  62.9329453  58.4092293  48.1054382  63.0998955  59.3452225  47.9946632
  63.7870216  58.0381775  48.3270340  63.3815994  16.0302620   0.6890768
  62.5597649  16.1997547   1.1496139  63.6044617  15.1286659   0.9207841
  78.6656570  55.4078178   2.4670434  78.5532761  56.0930634   3.1258650
  78.9239502  55.8778648   1.6742189  23.0154915   6.6933236  85.4650803
  22.6407070   7.1499090  84.7118912  22.8157539   5.7702498  85.3092880
   8.1093607  63.0382729  33.3357620   8.1922083  62.1015015  33.1573563
   8.4180670  63.4627533  32.5352936  52.3880730  42.8878403  35.4298248
  53.3062210  43.0525246  35.2150803  52.1651917  43.5676155  36.0657959
  86.1204681  16.4000111   6.7395639  87.0680923  16.4410210   6.6108894
  85.7762909  16.1109638   5.8944459  50.3081894  29.6213474   3.5206683
  51.0946045  30.0582600   3.1937323  50.4163780  29.6135292   4.4717021
  73.8928223  68.5736313  18.5441113  74.7790527  68.6084290  18.9041386
  73.3692093  68.1684265  19.2353935  70.9740448  29.6542187  19.8454514
  71.5111771  30.2290668  19.3002338  70.2109375  29.4542427  19.3033104
  84.3918304  44.4582367  42.8040314  85.0779648  44.8832169  43.3186646
  84.4062347  44.9144058  41.9626427  43.6196098  18.7098503   0.0594857
  44.2817612  19.3718319   0.2584016  44.1110535  17.8908482  -0.0033801
  61.2413864   1.2562746  13.0507689  61.5896835   1.5167066  12.1980686
  62.0130463   1.0036274  13.5576620  37.4524879  54.0456886  53.3092728
  38.3588333  54.3282394  53.4314728  36.9975624  54.8282127  52.9979324
  79.8233337  11.8684568  69.6146393  79.4646835  12.7149105  69.3479538
  79.2266159  11.2245693  69.2331009  76.3759155  18.9847775  78.5075226
  75.8140259  18.2482185  78.7483368  77.2102585  18.8006306  78.9390106
  11.3239822  16.8130779   2.9649823  11.8621559  16.0368423   3.1200917
  10.6462564  16.7733898   3.6397746  70.8168793  68.7885437  87.0755310
  70.2927475  68.0092621  87.2605515  70.2740860  69.5185318  87.3733902
  75.1642914  53.1635056  47.5805511  75.8596268  52.5448990  47.3567924
  75.2263947  53.2601967  48.5308266  50.8791962  18.6378822  24.2480106
  50.7469902  18.1672058  23.4250774  49.9973831  18.7542419  24.6017094
  57.6049652  47.4195557  74.8643951  57.7793579  47.2694664  73.9352570
  57.9882164  48.2780113  75.0444031  58.2523842  26.1200161  87.4296341
  58.5401611  27.0328274  87.4434204  57.9635391  25.9463902  88.3255463
  77.5238113  41.6299362  36.0875549  77.4246292  40.6781387  36.0657387
  78.1943436  41.8160057  35.4302979  68.5971680  28.7194462  30.2868462
  69.2341156  29.4329166  30.2482014  68.2788849  28.7311535  31.1895027
  10.8056974   3.5734131  31.9571571  10.3178644   2.8985918  32.4292450
  11.4164362   3.9248624  32.6050110  80.3365326   7.5030417  25.7708435
  79.7668991   7.1377940  25.0938282  79.7957001   7.5103588  26.5605774
  22.3114567  17.2240429  26.9204483  21.5673656  17.6352654  27.3602867
  23.0468140  17.8117962  27.0937309  55.7259789   4.3422179  20.8506012
  55.2833138   5.1331306  20.5428066  56.6497955   4.4908977  20.6488876
   5.8253865  24.9489346  74.5014191   4.9549060  25.1205559  74.1421967
   5.6707945  24.7706928  75.4290848  72.2705688  49.8487282   5.9902692
  73.1211472  49.9504967   6.4173484  72.0123825  48.9472656   6.1824751
   6.4945121  12.8553295  20.9469223   7.3601813  12.4588709  21.0452518
   6.6622481  13.7976780  20.9381542  64.7134628  63.6133690  34.0099983
  65.5654907  63.3910065  33.6347275  64.2452316  62.7795601  34.0518913
  55.7778168  71.7048340   5.7817998  54.9751740  71.4502106   5.3266521
  56.4181900  71.0401764   5.5280561  60.7848434  35.8001938  69.8501129
  60.3396683  35.2955627  69.1693802  61.6259003  35.3578148  69.9648132
  47.5024796  69.4941254  49.2518845  47.4351807  69.9038086  48.3894081
  48.1633949  68.8105850  49.1414413  36.7759056   6.4724174  43.0539818
  36.7476807   6.7190952  42.1295471  37.4831924   7.0022392  43.4217682
  10.8555298  67.6471252  32.2644386  11.5031700  67.4608231  31.5846710
  11.1310596  68.4858704  32.6343346  66.0968323  43.9366875  23.8599510
  65.7637634  43.1034698  24.1931858  67.0437012  43.8096085  23.8006191
  32.7654533  18.3064957  66.4954300  32.6725578  17.7170849  65.7469711
  32.4663200  19.1555996  66.1702042  80.5297089  62.8912430  26.6229954
  79.6493835  63.2454147  26.4972019  80.6359940  62.2564697  25.9144783
  63.9486656  70.4115448   7.2010751  63.2157364  70.2756500   6.6005940
  63.8887291  69.6843491   7.8206058  66.7526627  18.0823669  63.9569969
  66.8833847  17.3932076  63.3056870  67.4993515  18.6692982  63.8378181
  38.9645729  14.3591394  78.4606628  38.0749435  14.6218147  78.2244644
  39.5249825  15.0229387  78.0587387  64.4758911  30.5693951  81.8496399
  65.3949509  30.7347202  82.0599518  64.4858780  30.2927952  80.9333267
  57.9875679  66.6572647  61.2210274  57.9155273  67.6073456  61.3126488
  58.6912766  66.5306931  60.5846252  15.8366899  23.8330421  25.8885441
  15.7878962  24.3334522  25.0740261  15.9438362  22.9248962  25.6056633
  74.8791504  23.1276340  33.2666779  75.1906967  22.2521915  33.0369644
  74.8975983  23.6125736  32.4416199  52.3475456  29.8726006  83.7056046
  53.0811310  30.2707195  84.1742020  51.6162148  30.4727097  83.8514023
  68.6080856  41.5884743  71.2616272  69.2856369  41.8480263  70.6373062
  68.2383728  40.7857742  70.8939056  29.6621265   2.4494081   0.2883808
  29.5740337   3.1971879  -0.3026324  28.7620678   2.2180579   0.5177342
  70.3483429   9.0595551  62.1134949  70.0409012   9.3132601  62.9837532
  71.2430191   9.3967447  62.0678177  45.3748665   2.0950334  52.9132881
  45.2223549   2.9267728  53.3618202  45.3230782   1.4363846  53.6059151
  86.7834167  67.6859894  52.5129128  86.7768784  68.3170090  51.7931900
  86.5387726  66.8552017  52.1052780   7.3045387  53.4844246   9.2399540
   6.6672707  52.8622589   9.5907145   7.3550706  53.2753143   8.3072424
  63.9614220  16.2804031  86.6408157  64.5598526  16.0391178  87.3478470
  64.3651505  17.0486336  86.2370148   2.6621723  27.3020363  37.0188828
   2.2828875  26.4971046  36.6660957   2.6194134  27.1907482  37.9686279
  55.7696228   3.4755688  77.9309921  55.3846817   4.3192577  78.1681442
  55.2289963   3.1608136  77.2065048   3.2293622  25.0308952   6.8411083
   3.1026981  25.5514221   7.6343546   4.0721402  24.5963078   6.9718418
   5.5369878  35.9426575  55.1026077   5.5153694  35.0089455  54.8929710
   4.9386883  36.3436050  54.4721222  72.8183136  39.1825104  84.5715256
  72.7575760  38.8221130  83.6868515  73.4923782  38.6545601  84.9994736
  72.7285690   1.2178177  49.2484322  72.5152969   1.9386925  49.8409576
  72.7317352   1.6161350  48.3780479  56.8410034  44.3483772  39.5747452
  56.1556435  44.4535217  40.2346420  57.3640976  43.6105614  39.8881683
   7.7609415   9.0547895  81.6454163   8.5300484   9.5557013  81.9170685
   7.0202322   9.6292133  81.8393707  86.4648285   2.8687170  43.6211357
  86.7728424   2.0518322  44.0136414  87.1130981   3.5211775  43.8862267
  50.3762016  56.2412872  20.9086552  49.5319099  56.3155251  20.4638042
  50.8533478  55.5795441  20.4079990   4.1879921  11.5292664  19.6455688
   4.8563662  12.0562305  20.0835381   4.4149275  10.6252527  19.8634949
  72.3139877  17.9331646  27.5463638  71.7737503  17.1552563  27.6850243
  72.0030441  18.2959900  26.7169666  44.0803223  71.1928482  50.4695129
  44.9910049  71.3897171  50.2501106  44.0406342  70.2367325  50.4917984
  40.9748306  44.5289955  62.7843513  41.1023941  45.3661957  63.2305107
  40.3661385  44.7271538  62.0726929  21.8095226   1.5021126  42.3226776
  21.5491982   1.0993490  41.4942780  22.7584534   1.6052480  42.2510834
  85.1944656  24.9312267  54.9934196  84.2747421  24.9696980  54.7310143
  85.5342484  24.1476116  54.5612984  16.2153339  33.5812492  79.7907333
  16.0027447  32.7662277  79.3360062  15.9915171  33.4104881  80.7055969
  62.1069603  51.8200073   9.5647507  62.1856651  50.8880463   9.7684317
  62.0872345  51.8553314   8.6084061  39.8293114  37.9706268  12.2292147
  40.1054688  38.8262062  11.9006443  40.4799805  37.3597717  11.8832064
  43.2063026  53.7184219  17.9414921  43.9497299  54.2262497  17.6164322
  43.2745667  53.7770271  18.8944550  52.1572723  51.7831879  23.3555241
  52.8859596  51.8728600  22.7413502  52.3083534  50.9412613  23.7851353
  34.7161522  41.0018234  18.7064972  35.6677322  40.9102058  18.6582031
  34.4483833  40.3708305  19.3746147  52.2376823  14.4656706  67.2753220
  52.1613083  13.6413984  66.7947235  53.0862007  14.8201208  67.0095978
  63.4450569  22.5439739  53.6122055  64.2501984  22.5635357  53.0949020
  63.7053986  22.8718643  54.4729881  11.9440336   2.4366720   6.4868054
  12.4578381   3.2388775   6.5800939  11.8394060   2.1138158   7.3818188
  56.5180931   8.1617432   1.3862646  56.1055794   8.7354784   2.0319369
  56.6850319   7.3476434   1.8612437  42.5157661  65.7951050   0.9864835
  41.7966919  65.2872238   1.3622777  42.6946678  66.4743576   1.6367434
  38.3005714  57.4278450  33.0817642  37.8723717  56.7605019  32.5455513
  37.8203316  58.2334061  32.8902664  54.8186035  34.4437447  37.8614273
  54.4273911  35.3172493  37.8484230  55.4024239  34.4314613  37.1029854
  41.1075821  34.4390717  62.8144417  41.3211670  35.0695457  63.5022736
  41.9470329  34.0394020  62.5868111  46.9464111  26.1419792  66.4636917
  47.4078255  26.9749470  66.3662796  46.1657639  26.3587914  66.9734116
  40.2204056  68.1674728  27.8804455  39.4190407  67.9344940  27.4116535
  39.9537697  68.8659363  28.4781723  51.3305016  29.8397617  73.0069962
  51.5002670  28.9173698  72.8156738  51.6550064  29.9630127  73.8990326
  16.3982773  36.0120583  78.7078629  16.3945332  35.0715027  78.8855515
  17.1268482  36.3511543  79.2278976  24.9566784  46.1702957  12.8986368
  25.4684467  46.7129059  12.2987185  24.9319382  45.3093643  12.4809999
  68.6999130  27.7923717  76.3425598  69.4529419  27.9905205  76.8992538
  68.5754852  26.8478298  76.4352417  65.5502167   9.4872780   1.8336924
  65.7352905  10.2836733   2.3314211  65.0717621   9.7923660   1.0628253
  84.1694794  56.9504700  67.6115036  84.3281708  57.8068848  68.0084991
  83.7538681  57.1487732  66.7723541   7.1438184  51.3046188  67.9264908
   7.4231424  51.0621223  67.0436478   6.4338589  50.6953430  68.1289062
  14.9031410  68.6477127  47.0001602  15.0613155  69.3351517  46.3531380
  15.1456423  69.0454559  47.8363609  51.4445038  22.6230545  64.1169205
  50.6291084  22.1796017  64.3508301  52.1273880  22.1159706  64.5559692
  43.2537003  43.7212448  29.0436287  42.9977150  43.1125641  28.3506565
  43.6255951  43.1635590  29.7269382  79.0643845  17.2764130  34.1095276
  78.6884079  17.0840549  33.2505302  78.7221832  18.1421394  34.3323364
  64.1343460  44.3900681  79.6537247  63.3953209  44.4462433  80.2594528
  64.9079056  44.4736633  80.2112656  23.3655720  10.2138147  11.7065277
  22.8927975   9.5841265  11.1622763  23.9916592   9.6825962  12.1985168
  82.7202835  67.1484680   2.4752898  82.5730209  66.4646988   3.1287434
  81.8735733  67.5872040   2.3927212  28.7209816  40.1002960  80.8339462
  29.4602337  40.3467712  81.3898163  29.0082474  40.3117867  79.9457016
  71.2098846  42.2282982  82.0490952  71.2455063  42.0362206  81.1120377
  70.2795334  42.1784172  82.2686157  26.6247540  57.3300591  89.1159744
  27.5692024  57.2082596  89.2129898  26.2603779  56.4482880  89.1930237
  57.2232895  63.2218552  28.1019840  56.6420746  63.7001762  28.6932812
  57.9150887  63.8478050  27.8879070  32.5020828  52.2530861  67.1499405
  33.4276695  52.4969826  67.1561890  32.4953270  51.3320580  67.4105072
  74.2767792  49.1054001   7.8100042  75.0789032  49.5165787   8.1321125
  74.5439758  48.2200508   7.5630293  18.3866787  48.3419876  20.9313278
  18.1901741  47.9757996  20.0690479  18.0941181  47.6714745  21.5486240
   8.9644518   4.9301901  -0.1016860   8.8013363   4.4603133   0.7161409
   8.1241837   4.9124527  -0.5597979  63.8781700  53.9456635  81.9193039
  64.5359192  53.3926506  81.4976654  64.2668076  54.8204117  81.9219971
   6.4537487  34.4448891  61.6294365   7.1351752  34.9752083  61.2163391
   6.5102477  34.6643982  62.5594139  65.9750214  20.3049507  41.5447464
  66.1797256  20.6272621  42.4224930  66.5907364  20.7622566  40.9720383
  22.8135605  26.0099716  12.6465292  23.3395252  26.7819824  12.8553181
  23.3892021  25.2693081  12.8370142  83.6129990  48.8284378  29.7912884
  83.6948395  49.3765640  30.5717316  83.3725739  47.9655724  30.1287594
  26.3459415   8.7261286   3.3456974  27.2073269   8.5880203   3.7396154
  26.4800758   9.4379387   2.7199447  69.1730652  67.0698090  51.6707268
  68.5199585  67.7675400  51.7241364  69.2792664  66.7714920  52.5740318
   4.8533072  50.1075439  52.5788727   4.5988245  49.2147598  52.8121223
   5.8100576  50.0863266  52.5586090  59.5942268  39.1939888  19.6280918
  59.5521698  39.8855591  20.2885418  60.4349213  39.3307190  19.1913242
  67.8144150  30.9081459  43.7786827  67.6170502  31.6696606  43.2333641
  67.7622375  31.2363720  44.6763344  43.2609863   4.5415792  77.2908783
  42.7502594   4.2299619  76.5436935  43.3377266   5.4854770  77.1515961
  59.3553009  68.3701096  78.1124725  60.0129852  68.6924515  78.7287292
  58.9692802  67.6110001  78.5494766  81.8013077  23.9116249  37.0492210
  81.3088913  24.7055798  37.2575455  81.8840103  23.9243622  36.0956841
  56.7420044  41.1270828  21.5366325  56.1753998  41.8265915  21.8620262
  56.1698227  40.3617439  21.4810066  38.8755798  14.0428276  20.3417339
  39.7909737  13.9862623  20.0677204  38.9079742  13.9923611  21.2970524
  20.5921726  28.8437042  57.1617203  20.1396465  28.1753654  56.6471558
  21.1438637  29.3015137  56.5274658  69.0217133  40.3815231  48.5853157
  68.1557617  40.3986130  48.1777916  69.5585098  40.9479218  48.0309982
  83.9331512  25.3352261  50.0293503  84.1916504  26.0967197  50.5485191
  82.9916153  25.4446640  49.8960381  17.1595860  43.5361099  63.6946220
  16.4889946  43.1307945  63.1448441  17.8521481  42.8778687  63.7521553
  49.0466881   7.5415940  23.3685207  48.5463791   7.3609982  24.1643295
  49.2040176   8.4854450  23.3935375  49.6032639  40.5840225  28.7877216
  50.0874557  40.7696075  29.5923042  48.7062149  40.4223061  29.0799160
   9.8610706  59.1632004  12.7877073  10.5313025  58.5017776  12.6158381
  10.1151276  59.5494690  13.6258497  79.4777985  41.2135124  34.1211357
  80.3392181  41.5449982  33.8675613  79.3224411  40.4751053  33.5321960
  41.6851616  45.7511482  28.0381126  41.9540291  46.3797798  28.7080097
  41.9561996  44.9010963  28.3847885  57.2690506   1.0105000  32.0741005
  56.8891182   1.4919174  31.3391705  56.5530853   0.9315991  32.7044945
  10.8790855  71.6549225  67.8767548  10.4090919  71.0824127  68.4830322
  11.1717300  71.0726700  67.1756363  73.6951981  56.0070229  23.3699493
  74.1275101  55.4237099  23.9937153  73.8791962  55.6207695  22.5136852
  11.0691710  16.2479610  71.6921616  10.2524471  15.9575663  72.0981979
  11.5229292  15.4375648  71.4606552  19.0767632  47.4720078  39.1127205
  19.5236683  46.6799240  39.4112396  19.4521008  47.6480598  38.2499580
  81.8389511  36.3810654  16.2678928  81.3367462  35.8473549  15.6521225
  82.4811554  35.7767677  16.6402149  51.4416656  11.9271336  31.0914478
  50.5953865  11.8383865  30.6530800  51.2213440  12.0512648  32.0146408
  68.9175949  38.6384125  28.2096577  68.3456039  38.6722717  27.4429035
  68.4784164  39.1859665  28.8604603  73.2968369  23.1650467  35.8507652
  73.6525726  23.2128448  34.9634094  72.6883240  22.4266033  35.8253975
  33.1442070   6.3033128  79.5860214  33.5338364   5.4769588  79.3004379
  32.8704567   6.1397648  80.4885483  27.0056686  59.5744019  64.8615723
  27.8987885  59.2300720  64.8638382  26.4496784  58.7985687  64.9336166
  80.2791748  20.9321594   2.6402907  79.4701385  21.3352966   2.9552035
  80.4608383  21.3753986   1.8115765  67.8643341  20.4152050  82.8707352
  67.8638458  20.2840099  83.8189011  67.5063705  19.6013508  82.5161438
  21.8830109  26.2747364  83.2542114  21.8195324  26.1269512  82.3106155
  21.4943199  25.4925690  83.6458282  63.7136192  16.4554901  20.4109478
  63.3894043  15.8313274  19.7616901  64.4978714  16.0411205  20.7707882
  51.4157410  66.7124481  88.8384628  51.6279106  66.1032486  89.5456238
  52.2407646  67.1610489  88.6531906  36.0734634   3.3658810  86.2290497
  35.5454445   2.9422035  85.5523453  35.4415550   3.6207891  86.9013138
  24.9830799  28.4974022   7.4951792  25.7038937  29.0568542   7.7844410
  24.3664436  29.0983219   7.0769854  38.6146431  34.4677925  78.4867249
  39.1001778  34.8730927  77.7682419  38.5788918  33.5390701  78.2577591
  47.5143547  38.0764427   5.9669628  48.3822212  38.2199974   6.3443694
  47.1971817  37.2795677   6.3919616  26.1949825  58.0262794  23.6863422
  26.2213955  57.6568985  22.8036804  26.9355621  58.6320534  23.7147369
  73.9202576  42.4751892  36.2032051  74.5646133  42.8726463  36.7889175
  73.0836334  42.5909157  36.6536484   6.1459527  21.2922192  85.0594559
   5.5394115  21.6311417  84.4010696   7.0145998  21.4649811  84.6963577
   1.4549341  56.5494919  74.1439819   1.9418132  57.0157967  74.8234940
   1.0648241  55.8028488  74.5984802  16.8079033  22.7540798   0.1603235
  17.6151791  22.7726440  -0.3536731  16.9727688  22.1023903   0.8417565
  72.4339294  59.2788506  30.8046551  72.0474243  59.9063492  30.1938438
  73.3348694  59.5808372  30.9201412  86.7728577   1.9370750  19.6355381
  86.4478302   1.7331438  18.7586117  86.8976212   2.8860927  19.6300354
  75.6699142  58.2534790  83.9300003  74.7904816  58.1491699  83.5667572
  75.9392242  59.1305885  83.6572647  36.6538734  58.3321800  69.4146423
  35.8873558  58.9031296  69.3626556  36.8605194  58.1250801  68.5032501
  39.6712761  26.3442574  65.4827347  39.9700394  27.0656662  64.9290695
  39.8131332  25.5603962  64.9520035  60.8466606   3.0587368  16.5488853
  61.3857193   2.3279750  16.2461700  61.4145050   3.8250136  16.4675999
  79.4785004  23.8919353  59.8204727  79.0556183  24.1026707  58.9880104
  78.7635422  23.5967922  60.3843498  85.7067795   8.0207281  80.1926727
  84.9411926   7.5618758  80.5384369  86.1683044   8.3359022  80.9697723
  84.1758804  13.9174747  56.1442413  83.7388916  13.3211212  55.5362663
  85.0808182  13.6070738  56.1753654  11.1331825  67.6206131  20.0073757
  10.8813696  67.8638306  19.1164932  10.3173876  67.3319550  20.4165001
  45.1698303  65.0429916  74.6023026  44.9267044  64.1739731  74.2830429
  44.3427391  65.5230408  74.6435623   0.7671297   4.6441846  60.1798210
   0.6582831   5.5769143  59.9943504  -0.0556558   4.3848391  60.5945435
  50.9665413  22.1423874  56.5464401  51.1552773  23.0436459  56.2850075
  51.7366180  21.8717785  57.0464249   7.6629109  37.7083130  68.5917969
   7.3206162  36.8999634  68.2101669   7.8270822  37.4893723  69.5090408
  32.1134491  46.4229965  51.8816490  32.7162590  46.1101761  52.5561829
  32.0145912  45.6804543  51.2857513   9.2658978  70.4382782  31.9158859
   8.6368246  70.8685379  31.3367672   8.8178988  69.6447449  32.2088432
  85.5274429  65.5995483  50.1660614  84.9394302  65.4738922  50.9108353
  85.9198227  64.7383118  50.0227242  25.2280445  22.7660732  52.5272980
  25.3479767  22.9321899  53.4623108  25.2093010  23.6366520  52.1298370
  29.8543320  70.8618469  16.3803349  30.2339134  71.3548050  15.6529121
  30.5849648  70.7236023  16.9830761  20.6648121  14.5105772  79.2840118
  19.7862091  14.2295551  79.0284424  20.8693733  13.9840641  80.0567780
  19.5959110  61.2610474  58.0638199  20.4920902  61.0065231  58.2836189
  19.5486851  61.1733742  57.1118164  47.1288223  19.8020744  87.4305878
  47.2375755  20.7176342  87.6877975  46.7672806  19.8433266  86.5452576
  33.7015800  61.6246109  61.1406441  33.0911026  61.4677963  61.8610268
  33.4480553  62.4799576  60.7937431  42.3545799  47.2809944  59.8914413
  42.4076157  48.1382408  59.4688911  41.4752235  47.2538528  60.2685699
  67.5211792   5.1475964  57.4962044  68.0432205   5.8615823  57.8621712
  66.8807831   5.5830822  56.9336395  55.2221603  50.6104393  34.7852478
  55.0511742  49.6927490  34.5734978  55.5871964  50.5881424  35.6698265
  16.5715446  54.2409363  58.2221336  17.2909851  54.5142021  58.7913094
  16.1839542  55.0607376  57.9156570  55.4396019  19.3959408  40.7285309
  54.7537003  19.1496410  40.1079636  56.1578865  18.7906666  40.5442924
  11.7856140  70.2365265  58.2700081  11.3382215  70.4532852  57.4520302
  12.7168465  70.2896805  58.0550308  56.7180176  63.8281631  75.8354568
  56.7019653  64.6833115  75.4056931  57.2510262  63.2804451  75.2591400
  58.7469597  55.8720131  47.5274277  58.4117203  54.9758530  47.5546417
  58.8994751  56.0986481  48.4448166  24.2344379  15.7714949  79.2577057
  24.1010990  15.9024830  78.3189316  23.4360447  16.1103992  79.6626053
  56.1946259  50.7451782  23.8659496  55.5186348  51.1265411  24.4261570
  56.1091461  51.2128754  23.0351753  70.2479706  53.3776855  47.6063080
  70.3756714  53.9910316  46.8826141  70.5437088  52.5352287  47.2612877
  52.9000244   9.3170786  47.8330917  53.4978714  10.0596943  47.7474823
  52.9864426   9.0440798  48.7464561  40.5820580  51.8366623  22.1193810
  40.7687225  51.4663277  21.2566872  39.6270943  51.8245888  22.1836815
  86.5776138  15.7534561   2.6156728  86.7776794  15.3686819   3.4689925
  86.1329956  15.0545034   2.1360791  79.6283340  39.1449890   2.5684412
  79.2470551  38.5070000   3.1716206  79.8731613  38.6307030   1.7991529
  14.7164297  61.1637306  69.7171173  14.3376274  60.2900658  69.6199036
  14.0131359  61.6885300  70.0994720  52.3473778  23.9857750  20.6708031
  52.8976059  23.8414593  21.4406452  52.5494461  23.2515106  20.0909290
  76.2104340  29.4802036  85.0985336  75.4886017  29.0064316  84.6853409
  76.8108597  29.6765118  84.3793793   8.8798819  43.8891869  34.5516891
   8.1309357  44.0845184  35.1148567   8.4946423  43.7133904  33.6932487
  38.7616234  69.9111252  41.4723854  38.6200066  70.6766357  40.9154549
  39.6587906  69.6380997  41.2806206  70.5715714  56.5589447  43.0065269
  71.3010025  56.5718346  42.3868523  69.7931366  56.6794319  42.4626923
  57.1929398  66.8846588   2.4094937  56.5175400  67.5480270   2.2680531
  57.0810089  66.2704010   1.6839646   6.0523601  40.1918678  20.6071072
   5.9425154  39.5898094  21.3431034   5.2839766  40.7612953  20.6467342
  34.2507362  48.3768272  35.4866982  34.7581749  47.8921509  34.8356781
  34.8585129  48.5088425  36.2143059  27.0759068  44.6444817  23.3690262
  27.2666569  43.8915176  23.9283924  27.9152584  44.8593178  22.9621315
  31.6160221  55.2745972   9.0271339  31.1264038  55.8018036   8.3958187
  32.4836693  55.6779404   9.0542040  44.0965614  29.1087818   1.1329162
  43.5261078  28.6066761   0.5509312  44.9129868  29.2059422   0.6427729
  44.5107269  39.4004173   2.1044617  43.6824112  39.5853043   2.5471108
  44.8941460  40.2626419   1.9438767  50.5959511  17.1091785  22.0361614
  51.0854263  16.4532204  21.5398102  49.8647652  16.6238689  22.4183636
   7.2863088  69.3326340  46.9231453   7.8917456  69.5593872  46.2172699
   7.7172799  69.6460953  47.7182770  28.8083763  48.8287163  46.8879471
  29.4116039  49.5716286  46.9086609  29.3714924  48.0602875  46.9809380
  61.0179520  15.2111797  18.2821732  60.7204361  14.8306398  17.4557915
  61.4766808  14.4963808  18.7236061  45.4082718  63.6737556  21.8339577
  46.2742004  63.9108391  22.1659012  45.5340881  63.5673904  20.8910427
  46.8343658   0.7948220  23.6011982  47.3761292   0.6579490  22.8240299
  46.0764236   0.2255809  23.4680862  51.8131294   4.6773806  74.3699951
  52.2961388   4.4564271  73.5736847  51.5401802   3.8321712  74.7268600
  77.3797760  25.4852161   6.8569984  76.9960632  26.2048321   7.3581476
  77.0689926  25.6239548   5.9623504  83.8873367   7.1104445  62.5438576
  83.9199448   6.9740810  61.5969810  84.4966431   6.4638515  62.9000816
  11.2069874  30.8859177  82.5822372  11.5758305  30.3970795  83.3179169
  10.6348238  30.2584267  82.1405182  18.6839314  30.6365566  58.1585999
  19.2366600  29.8930702  57.9178734  19.0539722  31.3760967  57.6765404
  24.4102135  64.6415329   9.0106268  24.5592823  65.3418884   8.3754044
  23.5384693  64.3076782   8.7988796  21.2024574  67.0371704  38.1741447
  20.3167915  67.1141510  38.5289688  21.0967789  67.1790848  37.2334404
  61.6779594   1.4742881  18.8518543  61.9061699   1.6883607  17.9472427
  62.2959213   1.9790161  19.3806305   4.6656456  40.8791046   0.7828469
   5.1399517  41.3421631   1.4733846   3.7446759  41.0809822   0.9480520
   2.3388419   6.9017920  45.3417969   2.9349225   6.3621716  45.8611526
   2.4119129   7.7759795  45.7247963  29.1324234  56.1684723  72.1508331
  28.4666214  55.8292694  72.7490616  29.4476395  56.9682159  72.5718765
  12.0913172  48.4490471   1.3358570  12.4171801  48.4922142   0.4368674
  12.2780600  47.5528679   1.6155367  35.9302063  67.5726089  87.1356201
  35.8446350  68.4007492  86.6632919  35.9967041  66.9103088  86.4477386
  44.4189072  53.2738266  71.6952286  43.8565025  52.8560104  72.3474274
  43.8147545  53.7604141  71.1344528  48.1626740  34.3308678  57.5326576
  47.2328873  34.4319115  57.3288841  48.5807724  34.1946068  56.6824493
  29.6817722  46.2530022  56.6063957  30.3728218  45.6233215  56.4010048
  29.0669670  45.7639809  57.1532974  14.5420580   6.8216667  62.0841789
  13.6957750   6.6068439  61.6918945  14.6305637   7.7666645  61.9601707
  84.2321243  30.3275776  38.7802315  83.5153656  30.4283772  38.1538658
  84.1932297  29.4079037  39.0427551   5.4919930  16.8488235  14.2566586
   4.6005611  16.6773529  13.9530487   5.4672003  17.7512245  14.5749168
  79.3849945   5.5389242  21.7978363  79.1874619   4.6049476  21.7278519
  78.9713516   5.8104806  22.6172180  68.9291534  49.6876297  27.3078346
  69.4968338  50.4479523  27.1818237  68.3493652  49.9381866  28.0270710
  40.5555038  40.6126099   7.9069691  41.4602509  40.8883591   7.7599158
  40.0312157  41.2282791   7.3948097  52.3925056  58.5519485   4.8430033
  51.8134727  57.9252472   5.2768211  51.9964752  58.6878281   3.9822309
  24.4472160  64.4635696   5.8829823  25.1429367  64.5255127   5.2284842
  24.3622742  63.5256500   6.0542126  54.5448265  61.7345810  46.9479904
  53.9622574  61.1315765  46.4862175  55.4130516  61.3404694  46.8637733
  26.0862141  60.0528755  89.1248016  26.8597603  60.3569489  88.6500397
  26.0272217  59.1208916  88.9146576  49.4120674  22.6327991  69.5637436
  50.2589645  22.3436584  69.9034348  49.1868057  23.3940983  70.0984497
  26.8008308  52.8300896  63.1369133  27.0748749  51.9334564  62.9440842
  25.9739227  52.7315483  63.6088715  62.7621498  17.0933857  66.8290863
  63.2382393  17.7480297  67.3399811  61.9427605  17.5262089  66.5893097
  74.7857056   1.9358082  87.4132690  75.1547394   1.2179126  87.9277267
  73.9844513   2.1765368  87.8783188  27.6622066  31.0395718  86.4671707
  28.1492939  30.3058910  86.8422623  27.8333683  30.9850197  85.5269852
  28.6852989   2.8658860  14.0381079  28.6323872   2.6109118  13.1170101
  28.5175457   2.0564494  14.5207081  59.9852676   3.3025255  56.5429497
  59.4313469   2.5734565  56.8219833  60.4244308   3.5897150  57.3435059
  60.1944122  32.0066757  78.5239182  60.9404755  31.5722561  78.9373169
  59.7006302  31.2964172  78.1141052  81.5204620   5.4190035   5.0628357
  82.0060883   5.2903228   4.2480755  81.3926697   6.3660011   5.1184850
  62.0486069  18.2570190  15.1742887  61.9082680  18.4910202  16.0917740
  61.1700974  18.0910721  14.8323565  36.9951820  51.2684937  76.2540207
  36.5051613  51.9273834  75.7621155  37.2599907  51.7170334  77.0570908
   5.2117858  39.5537643  77.1598358   4.7968130  40.1414337  76.5284271
   5.3822536  40.1047821  77.9237442  25.5287399  68.3923187  21.2718582
  25.7805233  69.0417633  21.9284019  26.3358803  67.9114304  21.0888195
  80.8441772  67.2657242  60.4340401  80.4018936  66.4168625  60.4411430
  81.6748505  67.0992661  59.9885063  50.9964485  64.3298264  48.0264549
  51.0572624  65.0972214  47.4575577  51.3265266  63.6081429  47.4912453
  81.0300369  12.8300381  36.8963699  81.6052856  12.2108984  36.4469490
  80.2944565  12.9525194  36.2962379  73.9893799  24.5177250  79.3261948
  73.2066727  24.3842773  79.8607941  74.2894974  23.6334267  79.1160126
  38.6386528  55.4532471  84.1661301  39.5485458  55.6624832  83.9550781
  38.2371521  55.2511063  83.3210449  80.9798355  31.4268303  24.1594753
  80.4022217  32.1899338  24.1760139  81.0710449  31.1755180  25.0785809
  77.5365601  60.0072975  33.2953262  77.8266068  60.8368111  33.6748123
  78.2243423  59.3837509  33.5285149   8.1468573  53.1136513  61.4662056
   8.6957912  52.7491150  60.7719345   8.7519779  53.6178246  62.0101471
  68.9224091   0.8967851  11.9708433  68.7972641   0.8410067  12.9181862
  69.5383301   0.1924938  11.7687340  31.2118092  44.0559387  44.1056099
  31.7008724  44.5410881  44.7702026  30.3844547  44.5302124  44.0232658
  61.5257759  40.3876228  10.7368994  61.4699364  39.7699738  11.4660263
  61.1519585  41.1988373  11.0810251  75.6601486  60.4455757  70.5907974
  74.7209167  60.5928268  70.7021027  75.9668350  60.1876984  71.4600906
  13.2088232  64.3068085  24.0851974  13.4292555  63.8632927  24.9043026
  13.9255800  64.0833664  23.4914284  60.6591911  54.2689438   9.2615871
  60.8415527  53.3333244   9.3486853  60.6101532  54.5882988  10.1626081
  73.5943832  15.5260172  38.7409821  72.8968735  15.9981365  39.1957512
  73.9696960  16.1716633  38.1422195  22.6639614  64.8686905  52.9792175
  22.4125137  65.2623978  52.1437531  23.6161251  64.9615097  53.0107994
  34.6304741  30.1705189  12.8952188  35.4169350  30.3773746  12.3903170
  33.9167747  30.5781231  12.4045858  85.8840256  32.2440453  66.0098495
  86.4617386  31.8212032  66.6452103  85.6181641  31.5379257  65.4208221
  61.9731750  64.1787109  27.2356358  62.7634125  63.8200264  27.6394939
  61.4820862  64.5570984  27.9649429  12.0490799  21.5672741  88.7484665
  12.6622448  22.1245537  88.2691956  12.4884186  21.3872948  89.5796204
  42.2940216  53.6510048  73.8740463  42.7007103  54.5065193  73.7364502
  41.5733604  53.6243744  73.2446289  66.8511734  17.1563873  30.0213966
  66.3559418  17.3846531  30.8080807  66.4152985  17.6354237  29.3165798
  70.0974197  63.9128799  75.7693253  69.7598648  63.7011795  76.6396561
  69.7253723  64.7721329  75.5706100  30.3918304  49.9909935   4.9698715
  30.5004826  49.0689087   4.7371039  30.7618179  50.0610771   5.8498874
  39.0574455  38.1856041  67.4733200  39.3757553  38.0378571  66.5827713
  39.0259247  37.3124847  67.8643494  19.5547085  58.3825569  65.9444885
  19.1130466  57.5413284  66.0606613  18.8804436  58.9595490  65.5857620
  79.6817017  38.9461632  39.2105522  79.6753693  39.8957901  39.3305550
  79.4146194  38.8179817  38.3003502   8.0561752  36.8490410  71.3362427
   8.7722673  36.3206291  71.6886978   7.6935024  37.2999916  72.0987015
  70.8935318  30.1224155  39.1708908  71.3726654  30.7051849  38.5817833
  70.6598206  29.3707008  38.6263428  57.8613625  26.1977139  29.8775139
  57.5038567  27.0808258  29.7851372  57.9721947  25.8889160  28.9782982
  78.6767426   2.6363068  36.7418175  78.9725266   2.0758519  36.0244370
  77.8992844   2.1958158  37.0849762  73.1490250   8.0898638  86.9452057
  72.7376785   7.4019074  86.4220047  73.8394775   8.4389105  86.3815765
  33.5549850  69.7133789  15.5354195  33.9435310  69.2785950  14.7763233
  33.3315086  68.9990997  16.1321621  78.1500397  32.6559372  84.2920380
  78.8563766  33.1847496  83.9209900  78.4534912  31.7527523  84.2003708
  70.2418747  53.4219055  86.2904816  69.5540466  53.0668221  85.7274170
  70.9038773  52.7313690  86.3244324  74.4784622  36.0766296  64.5579071
  75.1695251  36.4960632  65.0704956  74.4437943  35.1799622  64.8910980
  67.0980453  39.6641235  38.0343323  66.9585114  38.9771271  37.3825684
  66.3940277  39.5374222  38.6703644  55.6631432   3.9578869  72.6643600
  55.8407097   4.8903236  72.7879105  56.4857025   3.5995600  72.3308563
  17.9220333   5.1174178   3.0619071  18.3412170   5.6545453   2.3895903
  17.2091465   5.6629238   3.3942447  64.8442612  40.0628128  59.3415146
  63.9050751  39.9431038  59.4823723  65.1542587  39.2048302  59.0517044
  85.6704330  21.1935654  67.0689697  86.5066147  21.3820438  67.4950027
  85.2290649  22.0416317  67.0219345  68.8676224  48.7362862  84.0640182
  69.7972946  48.6361198  83.8592834  68.8511810  48.9817810  84.9890518
  47.1296463   3.4313788  19.0984573  47.0051842   4.1217127  18.4471664
  48.0446205   3.5169339  19.3662968  85.8131561  38.3265648  30.5861301
  85.8239212  37.9704094  29.6977215  84.9294968  38.6788559  30.6922550
  72.3617859   6.8090477  73.8094330  71.8830490   7.3728566  74.4170151
  73.2145691   7.2325068  73.7110901  11.3419561   0.6676527  81.8382187
  12.0351801   1.1443664  82.2947464  10.9063663   1.3317831  81.3039703
   5.1175499  56.0499153  24.7619343   4.2530417  56.4221649  24.9359684
   5.1595106  55.2716789  25.3176479   9.8128729  28.9803429  81.4471970
   9.7097826  28.1705494  80.9473572   8.9528494  29.3985214  81.4057465
   1.1983395   2.2324090  27.4492931   1.1411058   2.4429092  28.3813057
   0.6143562   1.4823750  27.3368473  64.9421844  15.9895449   3.3811369
  64.5942993  15.6955433   4.2230201  64.9509354  16.9445095   3.4459233
  27.7768879  68.3596802  30.4951515  28.5747948  67.8309479  30.4909744
  27.7219734  68.7033691  31.3868313  86.1398163  12.6298437  30.2791595
  85.8026428  11.7366409  30.2103863  85.5053253  13.0832996  30.8341656
  19.0903778  34.2106667  14.4610157  19.0061626  34.4491310  13.5378294
  20.0345726  34.1791496  14.6150789  75.0780792  20.6469326  55.3495560
  74.9467926  21.1653633  56.1434250  75.9362564  20.9194317  55.0247345
  59.0144157  58.2764587  36.6973190  58.1036148  58.4247627  36.9516449
  58.9958572  58.2574730  35.7404861  65.8497772  15.6242428  37.2165794
  65.0859146  15.0526924  37.2945671  65.8908234  16.0848656  38.0546532
  18.4322758  54.6113014  51.2934532  17.7708893  54.1977158  51.8481979
  18.9389858  53.8804550  50.9394226  38.1580315  11.4731855  77.0687332
  38.2603302  10.5343170  76.9128723  37.7432671  11.5292740  77.9295807
  13.0431118  12.6575336  88.0800629  13.7361641  13.0189142  88.6326141
  12.3023491  12.5357456  88.6739197  67.6002502  50.6308479  68.0191345
  67.2835541  51.4089890  68.4778595  67.1302261  50.6364822  67.1853027
  10.7024899  46.4067307  23.2026463  10.8523769  47.0520020  22.5117111
  11.2973804  46.6664963  23.9061069  21.3868484  68.4893265   8.1946678
  21.2069454  68.9681015   9.0037670  21.5123997  69.1718216   7.5353732
  48.8572388  56.5728455  11.1844769  48.7358818  57.4832268  11.4541178
  49.2927208  56.1584435  11.9293642  55.0096016  22.2763176   6.1159248
  54.1801338  22.3817101   5.6499758  55.4837799  23.0906868   5.9480352
  70.0469437  70.7200623  30.2931862  70.7126160  70.4093552  30.9068413
  69.5161362  69.9463959  30.1036625  33.6017799   4.4405956  62.2936745
  33.9390602   4.8504429  63.0902290  34.0157928   3.5777757  62.2744980
  10.7479858  65.6505585  84.0411911  11.5266638  65.2871857  84.4629135
  10.6231022  65.1092224  83.2617035  40.3791733  67.0139542  77.9930725
  41.2334213  67.0398560  78.4241409  40.4220543  67.7073441  77.3345795
  16.7311153  68.8574753  37.3841476  15.9952822  68.9252396  37.9925804
  16.4585075  68.1927185  36.7516823  20.8901386   9.5407896  21.0457783
  21.7553692   9.3859739  21.4247780  20.7201385  10.4686985  21.2080059
   0.0069154   3.0479193  74.8736801   0.9052927   3.0962932  74.5468674
  -0.0570136   3.7641621  75.5054626   7.6806087  58.6812286  54.0269432
   6.9596653  58.5152969  53.4195404   8.4456425  58.2930031  53.6024017
  15.1853561  48.0988503   1.8476429  15.0016689  48.9931107   1.5599066
  15.5639973  47.6728249   1.0786417  31.1721497  39.7187042  18.1453667
  30.8947029  38.9564209  18.6534786  31.5240631  39.3510094  17.3346958
  64.1803055  55.1797256  28.1324978  64.3977356  54.2486153  28.0879326
  64.8376312  55.6057739  27.5823727  31.5527477  48.1437759  61.3846245
  31.2479248  47.8625717  62.2473183  30.8267899  47.9385490  60.7954712
  44.0297012  62.6245461  73.8748016  43.8058662  61.7188377  74.0888596
  44.4170723  62.5753899  73.0008698  86.6181488  60.8499603  26.0988998
  86.9203110  60.8842621  25.1912918  86.6139374  59.9174461  26.3148518
  71.1985931   5.0689077  20.1952782  71.5030289   5.9716878  20.2876873
  70.7471542   5.0535741  19.3513565  54.1010094  55.2297668  33.8119316
  54.0392761  54.3783493  34.2449570  53.8803864  55.8626137  34.4953499
  83.4767761  37.2972908  41.8483505  82.8772964  36.9565086  41.1844864
  83.4784698  38.2438850  41.7062492  58.1311913  57.4183426  33.9800606
  58.9997559  57.4561577  33.5795593  57.7662773  56.5849876  33.6824265
  35.0750504  53.7858543  22.8082409  34.9113197  53.2207985  23.5633125
  34.9752655  53.2087669  22.0511131  44.9848366  63.6481895  64.8153000
  44.6140366  64.1935654  64.1215363  45.8391571  63.3791733  64.4776688
  33.8722916   9.8635283  85.6102600  33.3136063  10.5988045  85.3583298
  33.5386581   9.1241179  85.1021347  85.4955444  42.3858070  85.1051559
  85.0324631  41.9212418  84.4080429  85.6823578  43.2485428  84.7349930
  54.5543480  16.4279194  20.0104847  54.0795898  16.8384838  19.2877979
  54.8089180  17.1577396  20.5750999   4.5148239  30.4424706  78.9659958
   3.6275191  30.7637024  78.8055801   5.0763798  31.2016239  78.8092346
   4.4104652  29.5134754   4.3753853   4.4905133  28.9018974   5.1073670
   4.7374721  30.3442402   4.7205310  73.4428558  15.1848831  62.4887619
  72.6995621  14.5848999  62.5501137  73.9415359  15.0312595  63.2912254
  64.2435532  28.4798870  10.6752262  64.1946945  29.2993774  11.1674442
  64.5512390  27.8355637  11.3127298   6.0313687  62.3139000  76.2405701
   5.8823023  61.9195061  75.3812332   6.6972976  61.7589569  76.6465302
  50.1403961  24.0681458  10.4738007  50.8680077  23.5585213  10.8303061
  49.3583107  23.5757618  10.7230625  43.0755196  56.8961601  16.7481575
  43.2305069  56.8245316  17.6900063  42.5250282  56.1418343  16.5379639
  55.2432480  28.1802082  20.6342487  55.9710617  27.8563347  21.1649342
  54.6798782  28.6408958  21.2560329  39.5576706  38.4574471  22.1530323
  39.4150772  38.7652092  21.2579441  39.6594620  37.5095711  22.0670338
   2.8891497  63.7918549  72.0470657   3.6879206  64.1113968  72.4666977
   3.1600771  63.5655632  71.1573334  14.1834307  56.2486725   5.2244978
  13.3008661  56.2807999   5.5936594  14.0511885  56.0039215   4.3086147
  15.5258522  63.4968071   3.1458092  15.0222874  64.2552719   3.4414227
  16.4114380  63.8345985   3.0121424  30.6110287  66.9405746  65.7488937
  31.5478668  67.0494614  65.9123230  30.3781910  66.1379395  66.2155762
  57.6543198  37.6832314  58.5321655  57.9904289  38.4386406  58.0498543
  57.0011978  37.2975464  57.9482880  34.2566338  21.5885887  85.4588242
  34.0445900  22.4985237  85.6668930  35.0899200  21.4294472  85.9021530
   4.9069242  23.8013420  77.3183212   4.4726081  23.0010815  77.6135941
   5.7276120  23.8240013  77.8104477  25.3346157  50.0903511  80.9696045
  25.9725971  49.4266243  81.2316742  25.8564835  50.8790588  80.8218689
  82.3167877  67.6153259  48.6849327  82.7575455  66.7656403  48.6860161
  82.7572784  68.1145172  49.3726883  20.8567791  32.9689293  28.9222984
  19.9133339  32.8533859  28.8091908  20.9525681  33.8705139  29.2292271
  44.8796730  12.5017433  56.6104774  44.1626358  12.3820419  57.2331772
  45.6443634  12.1319418  57.0517578   5.6309252  51.0160942  33.0465164
   5.3144884  50.3854027  32.3997345   4.8726263  51.1873474  33.6049843
  68.7119446  14.0295725  39.6422081  69.0437469  13.6176147  38.8444443
  68.8819504  13.3877735  40.3317146   5.2541461  13.2732058  30.1419468
   6.0928864  12.8219519  30.0464725   4.5979099  12.5978365  29.9703026
  64.4088364  48.4839783  61.3277969  64.6555634  48.0097923  62.1218414
  63.5341873  48.8250732  61.5145454  52.0297165  35.7061577  18.8778725
  52.4440689  36.5175743  19.1713810  52.6410522  35.0172081  19.1383533
  78.6579971  54.1470337   7.5225091  78.8638077  53.3974190   8.0810375
  79.5057678  54.5559807   7.3484945  85.8990707  33.8190804  12.5149965
  85.4266739  33.0286293  12.7762632  86.6751175  33.4943886  12.0583096
  68.4217529  16.8630276  48.6289062  67.5040283  17.1349640  48.6365738
  68.5140228  16.3094883  49.4043503  16.4812851  65.1744080  59.6143303
  15.8355236  65.8623581  59.7754059  17.0067654  65.5049973  58.8857613
  75.2500610  60.9603271  12.5089197  75.5963058  61.2071075  11.6513386
  74.3049469  60.8901825  12.3744822  86.6072311  17.9929752  80.9767761
  85.9224548  17.3879089  81.2617569  86.5551453  18.7219601  81.5949173
  46.3826942  60.7678146  20.3617706  45.5232353  60.8092613  20.7811069
  46.2554207  60.1870766  19.6115875  80.2747955   2.2246222  45.4329605
  80.9888000   1.9704666  46.0176277  79.9013290   3.0077147  45.8373375
  75.6532440   3.7232392  12.4317703  76.1494141   4.0333943  13.1893005
  75.0245361   3.1001232  12.7960377   5.0153484   6.6766763  83.5341034
   4.4690266   7.4549856  83.4245682   4.5950003   6.1865020  84.2406921
   4.1992159  28.6207027  69.4574203   3.8837080  28.4999008  70.3530197
   4.1246624  29.5622826  69.3021698  84.5239792  44.9404602  57.5876503
  83.9641647  44.3950500  57.0350494  83.9695969  45.6811790  57.8330688
  56.4890213  51.3811913  54.3126183  56.7724724  52.2264748  53.9642143
  56.1818085  51.5777550  55.1976128  86.4930725  53.3565636  16.4163361
  86.3190002  53.5647087  17.3342705  87.3596954  53.7261009  16.2471256
  53.2604485  51.5233879   5.9239311  52.4022751  51.8963013   5.7221828
  53.1656151  51.1685829   6.8078713  18.5359745   4.5537190  27.8252773
  19.1320572   5.2186246  28.1699791  18.6583652   4.5909781  26.8766651
  74.0735550  57.1792107  61.5653458  73.5446014  57.5722542  62.2595749
  73.4908600  57.1522026  60.8064232  45.4422913  27.5425301  38.5164337
  45.3810883  26.5989799  38.3674393  46.2505836  27.6540508  39.0168953
  80.6521072  53.6633148  72.3183899  80.5608139  53.6523628  71.3656158
  80.8152847  52.7499962  72.5538712  57.9958534  39.1025276  32.6357765
  57.8840714  39.8209038  33.2584114  57.2314568  38.5435410  32.7752724
   8.5464926  42.5480423  37.2271690   8.2795010  42.1688957  38.0645447
   8.4415703  41.8351097  36.5971298  71.6773987  69.5263519  70.6151581
  72.5203323  69.1652069  70.8895035  71.9000473  70.1695786  69.9421616
  63.0340424  61.6509514  24.0559788  63.4107933  62.3242111  23.4894009
  62.3106956  62.0909729  24.5025005  15.3173323  41.8158722  62.2971687
  14.3773232  41.9830856  62.3653831  15.4247713  41.3971825  61.4431267
  11.8148460  38.3831940   0.0280665  12.0196486  37.8004341   0.7592833
  11.1288586  38.9591141   0.3656601  57.8629723  48.6988029   7.7344885
  57.5813789  48.4406204   6.8568320  58.7659302  48.3874931   7.7975769
  37.3138161  67.0352173  11.4271364  37.8687439  66.5170670  12.0100679
  36.5257683  66.5042114  11.3120451  65.0324936  57.2513199   6.6570544
  64.0955276  57.4457283   6.6802793  65.4519424  58.1057281   6.5556931
  21.9483356  52.7418518  32.5407104  21.5632343  53.6017036  32.7097702
  22.0214825  52.6954117  31.5874386   6.3346071  68.3498840  74.9758682
   6.1765966  68.4514160  74.0372696   6.4351635  67.4062576  75.1011200
  11.1786251  66.9358597  75.3258591  11.9833803  67.3640823  75.6177902
  10.9828377  66.2995529  76.0136185  50.6831169  63.6430206  33.5916634
  50.9848366  62.7392159  33.6829567  49.7578125  63.6123390  33.8347702
  80.5455704  24.7566509   3.5939066  79.9831161  24.3539925   2.9322848
  81.3466187  24.2329082   3.5781798  24.7466011  39.9496346  73.1145554
  24.0548115  40.4686928  73.5247269  25.5560150  40.4075089  73.3413391
  11.9945831  10.1287498  76.4544449  12.1795063  10.1905394  75.5173111
  11.7513180   9.2130604  76.5907059  32.1054001  13.5747814  74.2957153
  32.8225136  14.0820742  73.9154129  32.1565857  12.7239609  73.8601532
  51.8143196  68.6322632  55.6969109  51.0953255  68.2466125  55.1963539
  52.5687790  68.0775681  55.4985771  59.6490936  14.1409140  32.4667244
  58.9479942  14.0192032  31.8265076  60.4351082  14.2781553  31.9379749
  16.7670479  64.4454880  74.6863480  17.3169403  65.0904083  74.2414551
  16.4209518  63.8986015  73.9811096  75.3609695   3.2634335  51.5791969
  75.4124680   2.3131163  51.4768410  75.8999863   3.6104519  50.8683777
  72.8033295  15.7065811  81.2225418  73.6373520  16.0425644  81.5508041
  72.6428070  14.9173317  81.7397995  11.5726576  34.1645317  11.1570959
  11.5899601  33.9200745  10.2318001  11.5044842  33.3315277  11.6236668
  47.9364052   9.9263191   0.9047388  48.6923370  10.2958565   0.4484060
  47.5855370   9.2744122   0.2979943  35.0135117  43.2242508  81.5676346
  35.4603996  42.6091766  82.1491928  34.5875282  43.8457031  82.1580276
  16.4135780   1.3681124  62.3037567  17.0834694   1.2207180  62.9714012
  15.7847548   1.9567574  62.7212601  20.1283817  61.6707001  54.9098396
  19.8419876  62.3369293  54.2850609  21.0216808  61.9263039  55.1398735
  70.5783005  60.9239540  37.3756790  71.2515640  61.0585899  38.0426254
  69.7727509  60.7839127  37.8733826  56.2191315  12.5758343  68.0391998
  56.0790558  12.7419176  68.9714127  56.9933205  12.0137014  68.0097504
  30.6153049   4.9771757  15.5391970  31.4727726   5.0344009  15.1176443
  30.1670551   4.2700086  15.0752802   2.7922740  51.2991104  53.8994598
   3.3171096  50.7634087  53.3046494   2.6607637  50.7444420  54.6684074
  85.1502457  70.4494400   1.1035721  85.3667908  69.5216064   1.1955507
  84.7865829  70.6959610   1.9539888  51.9105263  71.0014191  68.0634995
  52.1564903  70.4790344  68.8269424  52.3471527  71.8425369  68.1980667
  74.0041504   9.1289196  78.0006485  73.8356018   9.4290075  78.8938293
  74.9567184   9.0494461  77.9504318  43.7950172  40.7026978  52.6420174
  44.4350395  40.1106071  53.0370293  44.1927109  40.9661484  51.8121605
  77.3528595  10.8816872  71.3717804  77.3556900  11.0528841  72.3135452
  77.5375824   9.9453840  71.2979965  42.2775116  64.9602356  83.7814102
  42.2663383  64.1199265  84.2396622  41.3605995  65.1255722  83.5619507
  60.8847466  31.5237904  49.8066673  60.6299591  32.1993141  50.4351463
  60.0893517  31.3539848  49.3019409  53.1941147  54.0114021  88.6234665
  52.3486366  54.4430580  88.7462234  53.5365868  54.3823509  87.8102417
  60.4177322  31.3858032  61.9327850  59.5220451  31.7194691  61.8813896
  60.8637543  31.7805805  61.1834869  80.2310257  65.6036072  83.4980087
  80.9527359  65.4570236  82.8865433  79.4846191  65.1563568  83.0991745
  16.8359222  62.7627296  69.4148026  17.5576744  62.6638985  70.0357208
  16.3202076  61.9629364  69.5177383  48.0787277  26.0621548  77.4830246
  47.6851921  25.8796005  76.6297760  48.9426956  25.6522484  77.4409332
  79.2636032  37.5210075  50.1245461  79.5542755  36.6138458  50.0307579
  80.0738449  38.0274925  50.1812401  70.7630157  25.9487362  52.1859550
  70.0446548  26.5291443  51.9343300  70.8065186  26.0209370  53.1394348
  19.9194489   4.8503790  56.5530624  20.5572758   4.1705198  56.3358040
  19.5338135   5.0946627  55.7117271  15.3150482  52.2269630  17.3540440
  14.7773428  52.6056366  18.0495377  14.8960505  51.3893089  17.1565418
  25.3213482  50.6653099  32.4088020  26.0956402  50.3852310  31.9206848
  24.8660374  51.2614250  31.8141823   3.6627419  64.0114365   3.0166373
   3.3457787  64.0736542   2.1155851   4.0726895  63.1479454   3.0672438
  75.9717712  42.6756935  31.4682426  75.4204330  42.0746231  31.9692135
  76.0314560  42.2782898  30.5994854  65.8499680  52.3985405  69.6831894
  65.4452820  53.1858978  70.0472412  65.1834183  52.0340042  69.1008987
  46.8422012  52.3537674  62.0118828  47.7119484  51.9726295  61.8914566
  46.6666145  52.2588081  62.9480362  19.4126644  30.5234013  21.8281841
  19.1340294  30.1920452  20.9744892  19.8968868  31.3244019  21.6277885
  78.5737076  40.8851662  62.8271027  79.3686905  41.3676262  62.6002617
  78.0091248  41.5361977  63.2437973  24.5661182  14.4266500  65.6988754
  25.0623589  14.3301897  66.5116959  25.2343426  14.4935493  65.0167999
  27.3414726   9.6182566  82.6682129  26.6346760  10.2220993  82.8963394
  27.6710415   9.3059902  83.5108871  72.0739212  44.1971664  26.7716694
  72.4292221  44.7821732  26.1025181  71.8204346  44.7789154  27.4882870
   3.7581542  65.8093185  57.9268417   3.0559404  66.2700729  58.3860130
   4.0612202  66.4320831  57.2661247  53.8437881  62.9213409   3.7378359
  54.4740067  63.1064529   3.0415654  54.2799301  63.2114334   4.5389962
  78.4119644   2.7072041  43.0762024  78.4069748   3.6374261  43.3017960
  77.4925919   2.4948313  42.9153175   9.6671848   4.9553213  13.9241047
   9.2272835   5.7681298  13.6749849   8.9542389   4.3413248  14.1000261
   2.6940870  50.7256584  22.5714951   3.1974750  50.4751434  23.3461380
   2.7246361  49.9538918  22.0060978  17.4768620  34.1689186  19.1573906
  17.9607143  34.5442162  18.4216805  17.3431873  34.9038086  19.7559738
  78.0620193  51.7560310  77.0070953  77.2848358  52.3086090  77.0899811
  77.9546814  51.3167152  76.1634674  65.7945099  40.1503868  63.6597481
  65.6614990  39.2798615  63.2846146  66.3443756  40.6047859  63.0214653
   2.5211501  13.0606461  46.7967339   3.2749994  13.6365738  46.6692581
   1.7614299  13.6278648  46.6651306  21.6311607  43.2865028  80.8345871
  21.1890354  44.1227493  80.9810486  22.5577545  43.4765358  80.9813614
  79.1503754  65.5362854  20.4180832  79.0209503  64.9076996  21.1282692
  79.7560730  66.1837997  20.7787628  30.4076214  19.3853569   0.6173959
  31.1357727  19.1978474   1.2097355  30.7905006  19.3291950  -0.2580928
  37.5072784   4.1462111  36.0855103  36.7866745   3.8171346  35.5482254
  37.4631996   5.0974817  35.9886971  79.0920258  57.1070023  89.4053116
  78.1372299  57.1376152  89.3447952  79.3812485  56.8877716  88.5195847
  53.2238159  66.0175781  26.0524788  52.4361763  66.3723907  25.6402168
  53.0689507  65.0738220  26.0922070  59.9639320  24.1322823  64.8890991
  59.7213097  25.0438976  64.7268600  60.8878593  24.1706944  65.1363220
  76.2808380  41.9403992  28.6951485  76.2973480  42.6900482  28.1001778
  77.1871872  41.6334877  28.7189217  43.9822960  30.5255642  39.6086121
  44.4965820  29.8661385  39.1428909  43.3424606  30.8290501  38.9646111
  25.5426960  67.8345108  72.6789017  24.8523140  68.4949951  72.7369156
  26.2674084  68.2003784  73.1860199  58.4356308  69.7274246   5.7988238
  57.6899223  69.4358215   5.2743068  58.3660088  69.2280960   6.6124926
  12.7822266  16.2549076  25.4656334  12.7417459  16.5261040  24.5485497
  13.6793280  16.4527435  25.7345276  79.7800064  36.1663666  64.9822159
  79.1167831  35.8564911  64.3654938  79.6805725  37.1183891  64.9825287
  14.7585611  44.5272560  53.1451340  14.5642624  45.3660355  53.5633774
  14.8813210  43.9189606  53.8739281  35.6190796   1.9531647   9.5727596
  35.3504181   1.2441120   8.9885530  35.9265862   2.6437578   8.9856014
  81.3276367  32.0435219  76.8772583  81.1858063  32.3344612  77.7780685
  81.2234573  32.8358841  76.3504333  34.0093727  61.7844086  55.3929672
  34.7268944  61.1511841  55.4133911  33.5320206  61.5796318  54.5889549
  21.4078770  40.6496429  12.8246603  21.0597286  41.5112228  13.0542345
  22.0381699  40.4535332  13.5178442  64.6692581  62.7932167  26.0157528
  64.6603699  62.1305504  25.3250809  64.3681183  62.3290939  26.7968674
   4.9670262  20.6124020  60.4062729   5.5304790  20.5315819  59.6367149
   5.5187073  20.3341427  61.1373329  18.8753242  61.2727127   5.2893400
  19.6971703  60.9431114   5.6528835  19.1421967  61.8151436   4.5471940
  49.3896828  34.2558250  12.1138277  48.5793991  34.5274048  12.5450134
  49.2264290  33.3518600  11.8447046  60.4313927  55.2056046  22.6253853
  59.8902817  55.9950104  22.6417351  59.9210548  54.5553627  23.1080551
  60.3366623  53.2369423  71.9558640  60.5828819  53.5603752  71.0892563
  59.3862648  53.3453522  71.9908447  25.2882481  30.9215813  18.0543079
  25.7706356  31.1858559  18.8376923  25.5118732  31.5839653  17.4004955
  63.2006073  14.0500383  36.4659348  63.3604736  13.1805954  36.8330078
  62.8464890  14.5570631  37.1965218  76.8256454  63.7514114  42.5396805
  76.0558701  63.2983513  42.8838043  77.0611572  64.3773956  43.2244492
  25.1595497  56.8786545  66.1631699  25.3324184  57.0416527  67.0904160
  25.7056580  56.1228409  65.9469757   3.4047854  13.0201416   8.7276506
   4.3170471  13.0978727   9.0068789   2.9059944  13.4664125   9.4119625
  75.6634827  37.4408875  52.2637520  74.8780899  37.7006302  52.7453461
  75.4474640  37.6065445  51.3460770  69.2382050  18.6981068  75.3763809
  68.3776474  18.5968990  74.9696350  69.1936646  18.1615124  76.1677780
  52.4028282  47.6303864  13.2629395  53.3453865  47.4740906  13.2047091
  52.0323105  47.1348877  12.5325775   5.6897941  63.9038429  33.7365112
   5.7313762  64.6318741  34.3565750   6.6036429  63.6555290  33.5970421
   1.8347753  43.9995003  64.5289612   2.4288006  43.3814240  64.1031113
   2.4016938  44.7122192  64.8236847  75.2077255  71.0502701  69.6914444
  75.4061279  70.1241684  69.8300247  75.8417969  71.3352051  69.0334167
  83.2587433  39.2332458  30.4563675  82.9098740  40.0713196  30.1527977
  82.6499634  38.5808182  30.1100292  59.0742912  61.6693993  57.0453224
  59.2371025  61.9416771  57.9484215  59.9198265  61.3430519  56.7374191
  21.2614155  64.1989517  64.1790314  20.5647526  64.4326782  64.7924347
  20.8780518  64.3450623  63.3142090  81.6344299  13.5442743  88.8373184
  81.8296814  13.1928186  87.9686508  81.3466644  12.7847681  89.3438492
   2.3859892   6.6107807  52.7485504   1.8343401   6.5994678  53.5307198
   3.1389909   7.1482105  52.9942932  63.8168526  12.1906452  31.4712563
  63.7197456  12.4712858  32.3812256  63.2849274  11.3974361  31.4071808
   5.5502758  44.0694160  10.6707382   6.0971980  44.8394089  10.8263607
   6.1325278  43.4458122  10.2367687  78.7489548  62.2135620  44.9419289
  79.6566544  62.3920441  44.6960373  78.7677231  61.3257103  45.2991371
   8.8843145  58.1607056  61.5287476   9.3903923  58.4778023  60.7807083
   8.2948351  57.5039635  61.1580315  12.2982807  35.2519188  74.6109085
  12.0740776  36.1603813  74.8125610  13.2521296  35.2527275  74.5308838
  22.7690887  23.9703369  55.1047630  22.2210541  24.0860977  55.8809662
  22.1467190  23.8364029  54.3899574  65.7077866  59.0276527  46.3990364
  66.4042664  58.6409302  45.8683891  65.7259750  58.5308418  47.2170105
  31.1930180  20.6529675  81.5703125  31.1541939  19.7079525  81.4231033
  30.8940563  20.7673340  82.4724045  12.6616011  62.5924034  15.7739887
  13.3607321  63.2210197  15.9536848  12.5949383  62.5747528  14.8192759
  46.3743019  70.1689224  12.6073875  46.8713684  69.4317780  12.9620323
  45.4784393  69.8400726  12.5330534  48.4495506  49.5426331  64.5833359
  48.9537010  49.5605392  63.7698555  48.6077232  48.6702003  64.9439850
  80.9399567  29.3673553  87.0289612  80.6942139  30.0575619  87.6449661
  81.4939575  29.8076820  86.3844299   8.4624910  41.5435410  77.2225571
   8.3328247  42.4853287  77.3341599   8.3218203  41.1772804  78.0956497
  68.5171967  32.4317780   4.1552911  69.0655899  31.7291393   4.5042825
  68.5423660  32.3065338   3.2066543  41.1410179   5.4914036  44.7266159
  40.8214798   4.6640697  44.3665543  40.3855171   6.0777817  44.6864624
  23.1838417  48.8702164  66.8174744  23.9394951  49.4175072  66.6037216
  23.4674911  47.9794083  66.6119537  32.5570869  46.0288315  67.9298553
  33.0541267  45.4913139  68.5465088  33.2243652  46.5006065  67.4314575
   2.6591330  18.4760170  64.1408234   2.9499023  17.6075058  63.8626556
   2.5188782  18.9546871  63.3238525  69.5877304  59.0095520  45.9196014
  70.4833527  58.6823616  46.0034981  69.2589340  59.0406113  46.8180237
  86.3951569  38.7375221   4.6653061  86.4224167  38.0563736   3.9933522
  85.6332703  39.2697182   4.4361110  17.9768372  60.1981850  64.5713577
  17.5437756  60.0231934  63.7358589  17.3663387  60.7643013  65.0436249
  54.0321045  11.6490898  35.0731659  54.3892784  11.5596733  34.1896172
  53.8500900  10.7510395  35.3499489  85.7417450  29.3032799  43.7969398
  85.2933731  29.7959099  43.1095467  86.5659561  29.0279884  43.3955498
  67.3830795  51.1969604  10.1339674  67.1754074  52.1265259  10.2289019
  68.2996140  51.1278000  10.4012051  74.1446533  31.4026699  22.8385010
  73.3700104  30.8517246  22.7261696  73.7951050  32.2627296  23.0716286
  14.8228207  65.8060837  11.6701803  15.2717276  65.5597916  10.8614454
  15.3577385  66.5105286  12.0360460  63.5489388   4.1777301  58.4100761
  64.1522827   3.9785492  57.6941605  63.3723602   3.3297238  58.8174286
  84.9680328  68.1864166  81.0171127  85.0903244  68.7626648  81.7715759
  84.1836624  67.6796951  81.2274094  63.3560371  18.6236267  88.6021576
  63.1267204  18.7979050  89.5149994  63.5147972  17.6801968  88.5710068
  52.7952156  11.3037548  25.2941475  52.7793198  11.3050642  26.2512150
  52.9738808  12.2135639  25.0563259  35.0987930  29.4270058  15.5987988
  34.3004112  29.5898209  16.1011009  34.8036995  29.3768368  14.6896038
  62.9254875   2.0034227   8.2413025  62.6590729   1.3126494   7.6346011
  63.8282166   1.7843466   8.4722099  22.0203228  12.4900484  81.1932831
  22.3388329  12.1740227  82.0388031  22.7007008  12.2345657  80.5703506
  56.8707314  31.8021889  27.2594910  56.0459518  31.4287090  26.9488754
  57.0389519  31.3548126  28.0888195  82.9201508  17.6034966  71.1555786
  83.7033463  17.8286247  70.6534348  83.1946411  16.8763199  71.7142410
  11.2905560  49.2621536   8.0397177  11.1798973  49.3154640   7.0904312
  10.5417023  49.7406349   8.3953905  11.1233902  10.7539263  16.6001015
  10.2947350  11.1689959  16.8394337  11.6137133  10.7072277  17.4208546
  78.2384720  53.6657104  67.2961197  77.7752686  54.3259544  66.7806091
  78.8649445  53.2799072  66.6838150  81.1542969  43.7962646  65.5368347
  80.8025284  44.6410942  65.2562180  82.0889893  43.8477020  65.3370056
  65.7009888  44.1460228  69.7675934  65.7312698  44.6047325  68.9280090
  64.9890594  44.5701141  70.2466888  74.7846451  27.1103058  49.5940857
  74.0357285  27.1176472  50.1901627  74.6907349  26.2949581  49.1015205
  26.5918102   4.5392947  65.6632004  26.7071457   3.9917583  64.8865814
  26.8357716   5.4187407  65.3745956  18.1012650  61.0953407  80.4550629
  18.7231445  61.8196335  80.5250168  18.4677029  60.4101906  81.0140991
  55.9121094  28.9910526   5.6947522  56.5084877  28.7419128   6.4007936
  55.1442719  28.4338608   5.8220000  32.0977783  45.5186043   9.7547960
  32.6977882  44.8333778   9.4603748  31.5479832  45.6993523   8.9923735
  35.1569366  70.8324966  87.2570343  34.7945747  70.2932434  86.5540924
  35.2451897  71.7033386  86.8696289  73.8812180  14.5313568  52.8854866
  73.1447296  14.2061529  52.3677406  74.1898422  15.3003340  52.4062653
  87.1861649  36.3117485  32.1359711  86.4139786  35.9421692  32.5641975
  86.8318405  36.9076157  31.4759502  11.3573904  23.5250397  72.4201202
  11.5320282  22.6223145  72.6862411  10.6710300  23.4507580  71.7570801
  18.7408295  14.5734863  85.7108078  18.4718075  14.9482260  86.5495148
  19.0006218  15.3287926  85.1833115  51.6534004  51.9053383  73.7846985
  51.6791420  52.4827538  74.5476913  50.9361382  52.2463188  73.2503738
  78.4616318   7.5786462  67.9656296  78.0863647   7.4495153  67.0945816
  78.1240845   6.8472419  68.4826813  25.6804714  50.8235664  55.0625610
  26.1654873  51.2232437  54.3405838  25.3217087  51.5653191  55.5497208
  76.8857269  57.4364853  79.7378464  77.2394867  57.3568764  80.6237030
  77.6101151  57.7899132  79.2215271  12.2152462  20.5779343  23.6050873
  11.7293978  20.6602306  22.7844715  11.6688356  20.0128498  24.1512985
  85.3318405  64.8596420   9.1037455  84.5057220  64.5978775   8.6972418
  85.2941284  64.4867096   9.9845009  85.4179001  38.2722549  67.9532394
  85.3903427  38.6624031  67.0795975  85.0351105  37.4023590  67.8392639
  74.7410507  32.2570190  48.8383560  75.0154495  31.5904293  49.4681168
  74.1321106  32.8113327  49.3263741  85.5004196  33.8508911  25.3287029
  86.2533188  34.1528473  25.8368282  84.9196625  34.6106186  25.2865620
  84.4179077  28.9277554  73.2827682  84.0393982  29.5641766  73.8893356
  84.2012787  29.2665653  72.4141388   8.5151720  24.5608406   6.0732422
   8.3321733  25.2753239   5.4631143   9.3531637  24.2036095   5.7793250
  16.1114178  41.3820457  77.6000595  15.6114092  41.1328468  76.8227997
  16.6020794  40.5936203  77.8321533  47.5204391  43.6041336  61.9288177
  47.0665703  43.9003105  61.1398201  47.1210060  42.7582283  62.1316223
  64.9233551  48.5866280  41.2145500  64.3504868  49.2847900  41.5317688
  64.9451218  48.7074394  40.2652550  72.6860046  14.6354837  57.8546028
  72.6103897  14.9783459  56.9641190  71.7830353  14.5797310  58.1672707
   1.5010338  14.4946041  51.2055588   1.4710732  15.4034443  51.5044632
   2.4196146  14.2420387  51.2985725  53.7629356   0.5140228   1.5684874
  53.9195366  -0.3064871   2.0358965  54.1022110   1.1914403   2.1534903
  25.9336472  18.2305183  35.7465973  26.2090302  19.0916100  36.0611115
  26.2405453  18.1970634  34.8405457  35.7195435  32.4833145  67.9633408
  35.8427811  32.4144859  68.9100723  35.2046738  33.2817039  67.8462448
   7.1430054  70.6604614  86.6799011   6.8620601  71.2474823  85.9779739
   7.4806523  69.8884659  86.2257538   8.2747688   3.5998805  71.1051712
   8.0543642   3.6299360  70.1741791   8.8915586   2.8719282  71.1819077
  20.1183662  59.3377647  82.0049896  19.9492188  58.6005821  82.5916595
  20.5745716  58.9498177  81.2582626   0.6631483  13.3434572  27.7699051
   0.0090686  12.9875860  27.1684341   0.2221473  13.3627253  28.6192455
  32.9817238  39.7400780  77.9662170  33.2920456  39.2674255  78.7385788
  33.7665863  40.1542511  77.6074982  36.3913269  44.5307236  74.2379837
  36.1058617  44.6701202  75.1409302  36.6585846  43.6120033  74.2104111
  43.6287193   3.8796008  22.6715374  43.6827164   4.6047716  23.2939873
  43.3909187   3.1221559  23.2062893  29.7926064   4.6303754  87.7918015
  29.2021179   5.2177672  87.3200760  30.4592228   5.2083373  88.1630402
  41.8662300  31.0462875  70.3361435  41.4851341  30.3287525  69.8300400
  41.1730385  31.3059082  70.9430237  46.1153946  19.2819805  16.7511692
  46.5327377  20.1360874  16.8632298  46.2518425  19.0679779  15.8282309
  28.1604538  66.8684387  20.3110237  28.4180832  66.6561661  19.4139175
  28.4981937  66.1423416  20.8353806  37.0944901  68.4437790  58.4506378
  37.6554375  69.2150574  58.3688393  37.0466957  68.2811966  59.3927193
  73.5620499  56.6084137  65.5465622  73.1200485  56.6359062  66.3951569
  73.9142609  55.7202568  65.4886246  66.3069382  26.2113380  56.1578789
  65.6752777  26.1220055  56.8714981  67.0180359  26.7320938  56.5312347
  45.4471359  51.6910706  51.6600609  45.0254097  50.9224854  51.2757988
  45.2618980  51.6227303  52.5966759  34.1154022  62.5914955  29.8973579
  33.3053513  62.2623329  30.2868500  34.3077278  63.3921661  30.3853855
  77.2485352  63.8238602  85.0922089  76.8385773  64.3318100  85.7923203
  78.0815964  63.5332451  85.4634018  73.9878998  39.9505196  71.8201828
  73.4898682  39.2355576  72.2164536  73.5376816  40.1269417  70.9941025
  35.2644615  17.4647427  74.4214249  35.7918663  17.0909214  73.7154999
  35.4179382  18.4076576  74.3615417  64.5277557  43.9360237  17.9209385
  64.0142441  44.3832207  17.2482147  64.7954941  44.6325836  18.5204010
  40.5108757  60.7384415  81.6193542  41.4017067  60.7991982  81.9642639
  40.5369072  61.2330894  80.8002853  66.0803223  67.7003555  24.5979137
  66.2813339  68.3117142  25.3064785  65.4184189  67.1154938  24.9667606
  76.2626495  63.7465401   7.1193709  76.3388290  62.8385010   6.8262968
  75.8713760  64.2059937   6.3763790   1.4922880  65.0710754  68.5931854
   1.0068243  65.7521744  69.0586472   0.8210139  64.5792923  68.1201401
  19.2203484  68.5788956  12.4454775  19.2534161  69.3849335  12.9606905
  19.7796097  68.7551193  11.6889038  81.9238205   2.8700743  87.2909851
  82.3343124   3.6973093  87.0391769  81.6665878   2.9984949  88.2039871
  73.3614883  20.8484364  81.4384460  74.0992813  21.4405479  81.5843811
  73.6199493  20.0332241  81.8684006  11.2865305  49.0485191  63.6799812
  11.5859060  48.3173981  64.2204132  11.6609402  49.8241425  64.0976639
  62.2429886  55.8123627  13.9783602  61.7477951  56.6100197  13.7919121
  62.5928650  55.5435982  13.1289005  40.7041168   1.0437893  29.7147808
  41.5775719   1.3836470  29.9092102  40.7662086   0.7246832  28.8144760
  62.0445633  49.0210648  17.1330509  62.0796127  48.7297897  18.0441818
  62.8617859  48.7039223  16.7486057  10.7481585   6.5738063  22.5930347
  10.3603001   6.8014894  23.4379940  10.7643080   7.3982501  22.1069660
  53.6537247  34.8712120  65.6282425  53.5597305  34.6537514  66.5556641
  53.7538986  34.0247459  65.1927109   1.6459152  38.0218201  28.4296513
   1.8351985  38.1525917  27.5005112   1.8231126  38.8720093  28.8321571
  72.2629547  56.9489861  46.7588997  71.9703140  56.2562675  46.1666756
  71.7112350  56.8497086  47.5347748   4.3573446   1.9161220  53.6588554
   4.0046635   1.7587352  54.5346870   3.9401841   2.7296348  53.3752975
  40.3169670  28.4817333  87.4872284  40.1656723  28.1551495  86.6002808
  41.0323143  29.1105957  87.3921356  27.2607327  68.3924789   4.5689802
  27.6497536  69.2499695   4.7410231  26.4044476  68.4280548   4.9952912
  80.4317780   4.2921433  27.9066563  80.0253601   3.6512685  27.3232746
  80.0384445   5.1278863  27.6555595  46.8414345   1.7121954  69.7069550
  46.0146790   1.3295789  69.4131622  47.3428650   1.8455379  68.9025803
  77.7149811  61.9538231  81.0473022  78.4733963  61.5735893  80.6040802
  76.9773560  61.4118195  80.7673569  17.5659657  39.8207474  68.6716461
  18.2528934  40.2850838  68.1933670  17.2346764  39.1746483  68.0479202
  60.5837708  70.4048920  54.7217941  60.2737923  70.0853958  53.8744049
  60.6985626  71.3467255  54.5952454  27.7600231  24.2520962  56.8799019
  28.4629669  23.7801857  56.4333611  26.9562683  23.8380241  56.5656471
  48.7290726   7.3984218  32.9005508  48.4443283   7.9282942  32.1559792
  48.8110542   6.5127616  32.5468330   8.1226311   5.2267647  18.1329899
   8.3506355   6.0174074  17.6439800   8.8592405   4.6334472  17.9859753
  34.7606735  14.1610966  13.1817102  34.8041229  14.6609793  12.3665648
  35.5991669  13.7015152  13.2258186  20.8384571  59.8616676  35.1744652
  21.7253513  60.1854630  35.3319664  20.3128834  60.6523705  35.0528297
  64.4762421   2.7193353  30.7523479  63.7779808   2.3061962  31.2602692
  65.2840805   2.4321580  31.1779613  64.4863205  29.5065575  38.9019051
  64.4581528  28.5962639  39.1965294  64.4072876  30.0208855  39.7053070
  74.1549301  38.0809135  79.5466003  74.1987686  38.8830681  79.0261612
  74.7178497  37.4623222  79.0811005  54.9865685  54.4123116  22.5571918
  55.3211861  54.4692001  23.4521923  54.0792503  54.7104568  22.6213074
   3.9083247  17.0983219  84.3381653   3.8248777  17.5837879  85.1588974
   3.1854458  16.4711475  84.3563080  13.4459963  21.2848244  83.7123642
  13.0047169  21.8612671  83.0884857  14.2672958  21.0489750  83.2809982
  50.3005753  57.5163536  41.5341911  49.4071846  57.5674477  41.1943703
  50.2216415  57.7683563  42.4542465  51.4723129  52.7828484  58.3227806
  50.8059044  52.3564110  57.7840042  51.8361206  52.0768776  58.8570862
  78.4758377  24.1786690   0.1187518  78.8624573  24.9919472  -0.2058013
  77.6892395  24.4577255   0.5873942  15.7157583  60.0583954  14.0956697
  16.0466766  59.2494431  13.7053890  16.4329796  60.3684502  14.6485634
  34.5655136  13.7275887  67.4355087  34.0325890  14.1364326  68.1174698
  34.7850838  14.4448528  66.8409042  17.9967823  52.4397545  12.8149748
  18.6591072  53.1295967  12.7740707  18.3190384  51.8377953  13.4858179
  82.9738007  27.2357635  12.8306541  82.5220490  28.0795479  12.8171120
  83.0673065  26.9993114  11.9078436  55.9759064  67.1328888  85.0905304
  56.6314163  67.8096466  85.2594833  56.2125359  66.7789459  84.2332306
  15.3369112  68.4351959   7.4498010  15.9216986  68.4201050   8.2074471
  14.4656763  68.2849045   7.8166723  50.9509277  46.8708000  57.0986748
  51.6256485  47.4507446  56.7456169  50.4222412  47.4344330  57.6635132
  67.5875702  27.3492165  67.2686005  66.8660889  27.9447155  67.4712753
  67.1590958  26.5419636  66.9840240  26.8316994  62.3478775  75.4183655
  26.0403194  62.8104591  75.6939850  27.2051296  62.9003029  74.7316284
  19.4608688  37.6720314  83.8527756  20.3538151  37.3289452  83.8185501
  19.5427094  38.5818062  83.5666885  15.7613430  27.4955330  82.3637390
  16.6426449  27.2539959  82.0787888  15.6309385  28.3780956  82.0168762
  42.0822792  17.4209728  69.0071487  42.9329376  17.4034958  68.5686188
  41.8051682  16.5050220  69.0289078  60.1501541  27.2931633  65.5710297
  59.8473358  28.1992054  65.5108566  59.8151016  26.9840450  66.4127045
   0.7128994   5.2527766  33.1316719   0.6501833   5.3864946  34.0774078
   0.3887721   6.0696158  32.7522697   1.4347991  24.7322464  22.2179432
   0.6590759  24.6915989  21.6586285   1.0947640  24.6301079  23.1068611
  68.2885971  46.1892929   6.1373482  67.9934692  45.3738365   6.5425191
  67.6900787  46.8552170   6.4758101  35.1199913  13.6794128   9.8563404
  34.9113960  14.5937481  10.0479460  36.0648994  13.6151676   9.9950857
  83.0395966  29.7708149  75.3528442  83.7721329  29.5097542  75.9109268
  82.3424606  29.1508713  75.5671005  57.1308975  34.0569725  88.1234818
  57.4486771  33.3135490  87.6110687  56.1847992  33.9226456  88.1790466
  43.4025040  22.8580437  15.3563833  42.6558113  22.9974136  14.7739277
  43.3729095  21.9242077  15.5644865  60.5681190  12.1665678   5.1394138
  59.8982315  11.7843075   5.7062974  60.4714165  13.1114731   5.2578845
  11.0334024  64.1351471   4.4242835  11.2526979  64.5806427   5.2426176
  10.1120567  63.8946877   4.5219316  56.8193245   1.5706131  10.9777136
  56.4774323   0.8332339  10.4721327  57.0574036   2.2228827  10.3188543
  76.5981827  36.7399101  59.8328133  75.7424164  37.0305519  60.1481247
  77.1688995  37.4985237  59.9553986  38.7765121  57.7690430  88.9592896
  37.9564171  57.5702515  88.5074539  38.5080185  58.0230484  89.8422546
  48.3145103  65.1269455  66.5054398  47.7920570  65.9233170  66.4102249
  47.8353500  64.4651031  66.0068436  48.9206314  32.2737312  31.2675400
  49.3005409  33.1295586  31.4661827  47.9909554  32.4516106  31.1250725
  36.0452690  19.1990280   4.1531157  36.8586998  19.6090622   4.4471130
  35.6652069  19.8312435   3.5431259  18.9315376  28.2553043  14.1203613
  19.4664249  27.4633694  14.0658674  19.5197029  28.9606247  13.8505125
   4.0381498  60.2646332  27.4923935   3.4525971  59.6818810  27.9758835
   4.2171564  60.9822769  28.0999889  67.9469223   4.1172857  66.8856277
  67.7148590   4.9832044  67.2211304  67.7290421   4.1549749  65.9543152
  35.5245132  48.5944061  80.5956497  34.6130409  48.3487778  80.4371643
  35.9084587  47.8280907  81.0217667  28.6374626  69.7376556  85.5999222
  29.0034409  68.8613663  85.7200012  27.7980175  69.5890427  85.1646347
  10.3980675  53.6028633   8.2943001  10.4340000  52.7923126   7.7864170
  10.5532122  54.2951889   7.6517673  71.7077713  27.5688477  65.0617218
  72.6157455  27.8693218  65.0227814  71.1883316  28.3725185  65.0387268
  33.8802338  55.9103622  39.4338951  34.6003685  56.5383072  39.4915657
  33.1835785  56.3857689  38.9812431  51.9338303  49.7782059  75.5678711
  51.1910439  49.9258728  76.1532745  51.8695602  50.4781609  74.9181290
  46.8665962   0.8575544  19.6240273  46.7447777   1.8057240  19.5753765
  47.7516365   0.7472994  19.9715595  51.5927620  66.8329163  52.0081902
  52.4845352  67.0915070  51.7755966  51.4753227  65.9782715  51.5934334
  13.6497393  18.4064770  27.9019279  13.0491533  17.6611481  27.8983936
  13.0798473  19.1735554  27.8467255  58.1013412   5.6862926  74.5587769
  57.5385590   5.9146771  73.8189468  57.9272346   6.3652158  75.2106857
  58.6231155  63.1492157  66.8686295  58.3101082  62.6463966  67.6205826
  59.1811714  62.5382271  66.3874893  66.1663895  37.7737961  32.3245735
  65.6164856  37.4862633  33.0533791  65.5507431  38.1415520  31.6905670
  42.0577469   6.1842580  66.8942108  41.2329712   6.6231427  66.6859970
  42.0016251   6.0013771  67.8320999  46.3433723   7.9302726  24.7719688
  45.5678749   8.0486488  24.2234936  46.9090195   8.6698103  24.5498009
  77.0525208  60.4902878  83.5246124  77.4117813  60.8782120  84.3225403
  77.3697586  61.0550499  82.8198929  28.0804596  46.0378227   8.3197765
  27.3056126  46.4391174   7.9263239  28.1448326  46.4400749   9.1859636
  42.9910126  36.0783691  79.1343384  42.6590347  35.1923561  79.2792664
  42.2325935  36.6446419  79.2770615  66.6108246  60.4752655  49.4117088
  65.8429642  60.0016060  49.7314987  66.3152313  61.3817978  49.3277473
  36.0187721  66.2019806  41.5842476  35.4126320  66.4379044  42.2865067
  36.3964043  65.3680573  41.8638878  70.7250214  55.3950500  17.7580605
  71.3530731  54.6914139  17.9214001  71.2664261  56.1728325  17.6232719
  46.5133591  46.7269363  47.6067505  46.7947235  45.8618736  47.9046249
  46.1607285  47.1473351  48.3910637  67.2749786  41.8442039  33.7423553
  67.7657623  41.3042831  33.1227989  66.6183395  41.2517700  34.1085243
  64.5906754  65.4277420  18.3967075  64.8365097  65.4852448  19.3200111
  65.4235535  65.3494263  17.9315186  16.9570370   4.4104447  78.0227356
  17.2906857   4.6697707  78.8816071  16.3263302   5.0933795  77.7946091
   5.7839966  60.7339134  70.1297913   6.1418152  60.5591736  71.0002365
   4.9901466  60.2009087  70.0857468  70.3267059  35.3993034  60.7757835
  71.1039810  35.5485115  61.3141174  70.6187286  35.5713158  59.8805923
  55.2735100  44.0860558  37.2623177  55.8234749  44.2565575  38.0269737
  55.1228867  43.1409798  37.2815628  68.5683212  24.3491516  54.5556755
  69.3201141  24.8359947  54.8933487  68.1292953  24.9639111  53.9678345
  49.4377861  54.5488853  50.3875809  48.5482712  54.2273026  50.2406845
  49.3513031  55.5021667  50.3850746   9.0943546  59.6224098   0.3768181
   9.7155657  59.5874557   1.1042148   9.6324739  59.4929810  -0.4041470
  41.8745766  64.4650574  23.7960682  41.3513756  64.8389435  24.5050850
  41.3417511  63.7446365  23.4594326  54.5674820  71.3197327  60.9932785
  54.3537865  70.9335022  61.8426285  55.3591042  71.8327179  61.1557922
  31.6273899  20.2139435   7.6357422  31.0596142  19.5724564   7.2087083
  32.5120926  19.8694820   7.5137725  80.7034454  53.6690788  18.0540447
  79.8130341  53.5902290  17.7117290  80.7577438  53.0002060  18.7366104
  85.2368317  31.4208813  70.1419601  85.8107758  31.3313122  70.9027481
  84.3750458  31.1505146  70.4589233  15.0596123  35.5781174  74.3178864
  15.9098129  35.1386108  74.3029251  15.2403030  36.4362221  74.7015991
  83.3442230  30.6621151  82.0558853  84.0246429  31.3294373  82.1450043
  83.3235321  30.4647160  81.1194839  15.2589474  11.9167528  28.6117821
  14.6918917  11.5683060  29.2997246  16.0769119  12.1301174  29.0608253
  54.5126686  48.2158966  43.8661804  54.3814278  47.6290131  44.6108742
  54.5406609  49.0910339  44.2529411  69.7950974  17.4513302  60.8115349
  69.3274307  16.8959446  61.4352798  69.2070389  18.1916962  60.6622887
   7.8733840   0.8092522  14.4615402   7.1242485   0.6755435  15.0421867
   7.5159702   1.2931523  13.7170076  80.4296646  17.5175591  70.2841721
  81.3743210  17.3716927  70.3350449  80.3160858  18.4372807  70.5238419
  78.7382584  43.7452774  87.8586807  78.6004486  42.9953957  87.2799606
  77.9780579  43.7418213  88.4403305  83.2745819  63.0521889  80.6936264
  83.6903915  62.2702293  81.0567627  82.9593048  62.7778168  79.8324890
  47.1587524  55.7949638  30.0769348  46.9085045  55.8769226  30.9972019
  48.0494003  55.4451218  30.1011600  20.4997463  34.1525536  73.2766953
  21.2756500  34.2313843  73.8316650  20.6695557  34.7426033  72.5423660
  41.2423477  51.7062874   3.6848156  41.6128998  51.8538628   4.5549564
  40.8687820  50.8261375   3.7296982  81.1605530   8.0734415   4.8433728
  81.9043579   8.2194977   5.4278836  81.4862213   8.3151150   3.9763303
  56.4896812  19.1415024  56.9002457  56.2169533  18.7623062  56.0647430
  55.7710381  18.9414158  57.5000381   4.4369898  37.3463249  49.5116920
   4.7389617  36.5814629  49.0217628   3.5343823  37.1362495  49.7512741
   3.4707417  67.6798706  49.4879723   4.0408983  68.0413513  48.8093834
   3.0138953  68.4404755  49.8471451  45.1988106  27.6384678  87.1580276
  46.0244522  27.7787380  86.6944885  45.1759796  28.3286953  87.8208160
  55.1284904  65.1147919  80.2977142  54.3831596  64.6297150  79.9435806
  55.8487053  64.9181290  79.6986847  63.4409523  23.0698261  83.4094925
  63.3239746  22.4271297  82.7098618  64.3624725  23.3221207  83.3513412
  29.7164745  22.1010933  75.2530365  30.3789635  22.0681686  75.9431534
  29.0748634  22.7381954  75.5671539  57.5764389  14.7527733  60.1092529
  57.6768112  15.4760618  59.4903755  58.0987358  14.0432138  59.7351379
  63.3144150  62.5327568  19.7675323  63.2890434  62.9362488  20.6351643
  62.4021912  62.5307045  19.4775772  48.4672775  48.0239944  45.9685555
  49.1812057  47.4016304  45.8299675  47.8222389  47.5380173  46.4823418
  47.8537369  10.6430225  69.1128006  47.9007835   9.9479132  69.7691879
  47.1601677  10.3622131  68.5158539  18.3749828  66.1141205  33.6442032
  17.4682808  66.2022552  33.9380722  18.4108295  65.2501144  33.2337875
  67.4376755  65.6294403  26.4324894  67.4676056  64.6819000  26.3001842
  66.5071793  65.8487396  26.3842640  46.0222588  39.5213242  23.7380924
  45.1523628  39.7211761  24.0838852  45.9255180  39.5957718  22.7887077
  47.9654312  52.3829575  23.7367096  47.1401215  52.8284760  23.5453777
  48.5723457  53.0886154  23.9601612  85.6136169  50.5438118  19.8198147
  85.5767975  50.1069603  18.9689102  85.8815460  51.4401894  19.6174545
   1.6474700  13.4610319  68.8821030   2.5691481  13.2034378  68.9017715
   1.6052645  14.2421541  69.4337387  54.2491798  39.3227768  14.2620878
  53.4752808  39.2826920  13.7002153  54.1693153  38.5598030  14.8345556
   9.1787376  29.8968277  71.7164230   9.9103479  29.9416714  71.1008148
   8.8750086  30.8012619  71.7937546  38.7967072  64.1878510  40.0843697
  38.9511948  65.1159592  40.2603531  38.1249962  63.9327240  40.7167854
  50.4866753  62.9145660  71.8514404  49.9387398  63.6578827  72.1033859
  51.0254555  62.7416191  72.6234741  53.5027008   9.6944914  41.5469284
  54.3377571  10.1604805  41.5889359  53.3779564   9.5099697  40.6160011
  43.6137199  44.3870583  76.3370972  43.1081276  45.1935501  76.4379807
  43.3134117  44.0184517  75.5063248  45.2178421  56.3466949   4.6536860
  44.6945190  56.6585083   3.9153540  44.9336624  56.8845139   5.3927560
  12.3494110  62.6756630  37.1599197  11.7683926  61.9205437  37.2518120
  12.5494070  62.7115555  36.2245331  50.1442795  65.2477341  26.6214008
  49.8931313  64.3304138  26.7294502  49.3427505  65.7384796  26.8029270
  66.0208282  71.0162125  15.4048185  65.8449936  70.8853760  16.3365879
  65.9719238  70.1383972  15.0262842  75.5181961  45.5843277  19.2724133
  76.1935043  45.3595924  19.9124756  75.4449844  44.8070755  18.7185650
  69.1163406  57.6648331  38.6965141  68.2233582  57.7509155  38.3627472
  69.2364502  58.4297104  39.2593384  39.8635139  11.7840137  70.5003128
  39.6711998  11.9452991  71.4240189  40.0404663  10.8445024  70.4530029
  75.2083969  30.4112225  56.1788673  75.8230209  30.0398388  55.5459862
  75.3607864  31.3552036  56.1351738  25.1355171  62.1303596  31.3325806
  25.8644619  62.6647186  31.6477489  24.3760834  62.7113533  31.3765717
  28.2388096  53.2466660  37.2456055  27.8861065  54.1365166  37.2463188
  29.1428432  53.3475914  36.9476662  81.9844131   2.3580997   3.3602133
  82.3309937   3.1650290   3.7409768  82.4745789   1.6591592   3.7931714
  74.1624298   2.2076786  78.7233734  73.5186920   1.8810784  78.0947495
  74.8530960   1.5449479  78.7251282  42.3414536  59.7146149  60.2512169
  41.8661842  59.6506424  59.4228096  42.9676056  58.9911156  60.2246056
  69.9472809  15.3772726   6.2821016  70.3648682  15.0281267   5.4947314
  70.6767044  15.6269426   6.8494134  63.5582695  41.2762260  66.8193512
  64.1408463  41.6495934  67.4807358  63.3360443  40.4089699  67.1580353
  19.2823563  36.6549606  63.6473694  18.5370102  37.0892143  64.0622330
  19.7826195  37.3668365  63.2483711  76.4613113  19.5923195  85.2304993
  76.6636581  20.3152084  85.8243942  76.3405151  18.8366280  85.8054504
  75.7315140  19.3825836  73.2621536  76.2120819  19.3908138  74.0899353
  76.2686844  18.8466454  72.6786728  21.9131260  61.3136902  44.3027267
  22.3531513  62.0172272  44.7798462  21.2390480  61.7581024  43.7885780
  77.1309280  16.5239067  70.4004593  77.3633194  17.0558681  69.6393814
  76.2766190  16.8577614  70.6741791  46.4111023  24.5856972  17.7941589
  45.4815598  24.8055420  17.8561993  46.7395744  25.1329975  17.0808563
  45.1334000  56.6079292  82.1402054  44.6165085  56.9464302  81.4091339
  44.7911758  57.0659904  82.9078598  78.1632309  32.4408340   6.6907234
  79.0265121  32.1755180   7.0078869  78.0786743  33.3547287   6.9625244
  83.8241348  61.7030716  42.9992905  84.0921173  62.1665993  42.2058449
  83.5758133  60.8303261  42.6945114  85.3178787  24.9744110  34.9406242
  85.4156418  24.2784081  35.5904350  84.9728851  24.5315228  34.1653404
   5.2088456  31.5999737  41.8068428   4.8257413  31.3583241  42.6500893
   5.1738138  30.7959404  41.2886353  38.9357719   1.5326711  60.5588531
  38.9911499   2.0124414  61.3852844  39.7936935   1.6556547  60.1525574
  50.7376060  65.4778214  44.7947769  51.2152138  66.2627945  45.0629921
  51.1581345  65.2089767  43.9780083  74.1367950   7.0006070  24.6147003
  73.4152832   6.5139670  24.2161617  74.2692413   6.5796986  25.4641285
  49.5618210  47.8557129  75.4616394  49.8633804  47.1717644  76.0595627
  50.2752304  48.4937592  75.4482574  33.9883728  15.3098736  86.9879837
  34.6394501  14.8353968  87.5048981  33.1462288  15.0147266  87.3342743
  17.2416706  63.0594292  18.5842876  16.6582413  63.5583267  18.0124989
  17.1074123  62.1474266  18.3264866  26.4285259  11.0620470   5.5253301
  26.0397491  10.2343159   5.2425814  27.3251038  11.0319605   5.1914525
  59.1362038  12.6126175   9.8730907  58.3887444  12.1093378  10.1959581
  59.8663750  12.3402672  10.4288836  17.4219112  34.9991837  62.5274010
  17.5975342  35.0387497  63.4675217  18.0674820  35.5890350  62.1381149
  49.6801224  61.1616287  76.5904999  49.6791916  60.2191925  76.4230118
  48.9884338  61.5059814  76.0255051  30.7596340  40.0144691  12.0991898
  31.6018982  39.6858139  11.7848482  30.1107540  39.5740395  11.5503635
  55.2820816  32.0900688  20.0059891  55.7499046  31.9788532  20.8336391
  55.7586899  31.5386543  19.3854904  72.5566406  19.4349747  59.8667297
  73.0456696  19.1375103  60.6339302  72.9889679  19.0083637  59.1269150
  24.6281319  44.6564636  70.9103928  24.5799942  44.2557564  71.7783432
  23.8499756  44.3352814  70.4548187  58.4456291  68.2134933   8.2946539
  59.0266762  67.5503845   7.9219494  57.6352348  67.7414703   8.4861889
  53.5839958  56.6188583  54.7278328  53.8543282  57.1148491  53.9550819
  54.3355484  56.0614891  54.9296799  35.1823692  50.5807991  83.9429932
  35.7555656  50.8236122  83.2158585  34.4302788  51.1672325  83.8612518
  68.5129013  61.6055717  51.2905312  67.8174057  62.0041237  51.8136787
  68.1948090  60.7226677  51.1020470   7.1668611  12.9975462  54.8805847
   7.9464097  12.7930880  55.3970451   6.9311643  13.8869343  55.1445312
  79.6321564   7.6111255  87.8016586  78.8645782   7.0903807  87.5652542
  80.0316772   7.8430815  86.9633255  69.5288162   3.0613179  39.0755768
  70.1231461   2.3223958  39.2059822  69.5681381   3.2373047  38.1355171
  49.6166687  29.7294846  87.0789566  49.6707420  28.8787079  86.6436539
  49.8492813  29.5478477  87.9895248  27.5229397   9.8078957  15.7487640
  26.6398830   9.5766420  16.0368023  27.5507336   9.5466776  14.8283167
  27.0623207   7.7036252  67.7734833  26.2326870   7.2307916  67.8395691
  26.8572769   8.5898895  68.0713501  24.6686592  46.5029297  66.4864960
  25.2076283  46.2641106  67.2406235  23.8312511  46.0663834  66.6427307
  67.4855194  19.1148472  67.8740921  66.5656204  18.9760971  67.6487885
  67.8141251  19.6986809  67.1904373  41.0961342  23.0007286  14.0839100
  40.5262909  22.3002167  14.4013977  40.5754089  23.7974873  14.1851664
  70.2740097  30.3661213   4.7446928  71.2145386  30.5434914   4.7574782
  70.1390762  29.8461590   3.9524395  12.9389086  16.4469147  63.7496643
  12.7229881  15.5145435  63.7324944  12.1840687  16.8598881  64.1690674
  23.4070625  60.4888496  88.2467651  24.3206062  60.2187729  88.1533356
  23.3924656  61.0108109  89.0489960  47.3189926  60.6142921  13.5391083
  46.9915352  61.4695320  13.2605963  47.0036354  60.5181236  14.4377375
  84.0421219  69.1209793  50.2954674  84.6548767  68.5450516  49.8382263
  84.5607681  69.8940506  50.5181885   1.2144396  70.9978256  11.6662655
   0.8097716  71.0375824  12.5328074   1.9344655  70.3751297  11.7665138
  55.1565056   4.9760895   5.3462744  55.6583672   5.3656874   4.6303282
  55.8182106   4.5908499   5.9207010  64.8023758  54.6935806  37.6191330
  64.7117462  54.3045845  36.7492485  64.8175125  55.6371956  37.4591446
   4.3207130  13.2159872  60.3662376   3.4090061  12.9915667  60.1800690
   4.8029642  12.9183273  59.5948334  33.0062485  42.5596886  62.9376068
  32.8125916  42.9419785  62.0816956  32.2396622  42.7676201  63.4717789
  -0.0448464  38.7805061  43.2305832   0.8696226  38.5270195  43.3559761
  -0.2746952  38.4300346  42.3700180  24.8750057   9.4991627  73.6347885
  25.2922020  10.3077173  73.3374329  24.0675144   9.7884979  74.0596085
   7.4528155  32.3274536  51.4969177   7.0996466  31.7210541  52.1479034
   6.6821289  32.7612114  51.1306839  37.6554832  44.0013733  15.7893448
  37.8884392  44.9291878  15.7557354  38.3025246  43.6131554  16.3782902
   5.8690138  26.9433384  30.2177467   6.8260550  26.9421787  30.2003613
   5.6134100  27.1553917  29.3200111  32.2047653   0.5028369  42.7793884
  33.0179710   0.9965070  42.6734505  32.2058907   0.2337053  43.6979713
  42.6550484  57.5425835  57.8518410  43.1295357  56.7187004  57.9628067
  41.7392273  57.2806969  57.7573967  68.1794739  64.0650406  57.2243500
  68.9501572  64.5239716  57.5585098  68.5303955  63.4329910  56.5969734
  83.5408859   7.6723886  30.7908478  84.2864075   7.2322788  30.3825188
  82.7795563   7.3530407  30.3064747  60.2931023  32.0445175  31.4519882
  60.3103867  32.7820930  30.8421421  59.4278145  31.6536388  31.3306522
  74.5660400  56.4080849  31.9705296  74.5152435  56.1815720  32.8991547
  74.8366852  57.3261909  31.9623985  79.5639801  52.9288826  83.4674835
  79.2530289  53.5851097  84.0911102  78.8184357  52.3407784  83.3469620
  23.2874470  59.4759712  57.0175247  22.7461433  58.6960716  57.1399002
  23.6257992  59.3951683  56.1257706  37.4636497  49.7870331  26.4182720
  38.0687256  50.5190048  26.2985363  36.9217148  50.0438461  27.1643200
  79.2524490  23.4631348  40.2560539  79.9219437  24.0914593  40.5266304
  79.6388092  23.0090485  39.5072136  79.5292053  20.0091019  51.0319824
  79.0346527  19.2396889  51.3142014  80.4373245  19.8054447  51.2557678
  13.2656221   2.0714986  57.9500198  13.8213491   1.3187361  57.7481613
  13.8774166   2.8007791  58.0504684  47.6658401  32.6465912  24.7588272
  48.2343826  33.3925667  24.9499016  47.8789635  32.0036049  25.4351254
  49.5328789  43.3883705  49.3507271  50.4027100  43.7182884  49.1253815
  49.5940895  42.4422302  49.2191734  77.8343048  42.2661400  20.3667927
  77.9232330  41.4616585  19.8557758  77.4195786  41.9868011  21.1830063
   4.6871338  42.1962547  57.4017487   4.7407827  41.3203888  57.0193710
   3.7974687  42.2512093  57.7506142  64.3408890  17.2037411  28.1940136
  64.0849915  17.8281021  28.8729248  63.5125656  16.9062481  27.8176994
  36.5831451  17.2968845  68.7100143  37.1844597  17.9492188  69.0693359
  35.7705498  17.4248905  69.1994400  36.9056435  19.6637306   9.7684422
  36.9073563  19.4919701  10.7101040  37.5233688  20.3861713   9.6556301
  50.1147766  33.7628899  73.1886292  49.1678047  33.6611290  73.0931320
  50.4291420  33.9251099  72.2992020  24.4655190  53.9180794  68.0030899
  23.6215572  53.9012833  67.5517807  24.9253712  54.6667519  67.6232834
  78.4444275  60.5803757   1.6252156  78.0313339  59.9644852   1.0200129
  78.8988419  61.2042046   1.0590212  79.6511841   6.2029700  32.3673630
  80.1331711   6.7635612  32.9753571  79.8033600   5.3143554  32.6889801
  67.8242416  63.0413132   0.3147174  68.6491928  62.7637978  -0.0836342
  67.9635010  63.9617767   0.5373848  79.9316177   3.7031758  33.2168770
  79.8726273   2.9142315  33.7556915  79.1247864   3.7023475  32.7018433
   2.3611052  27.9017792  55.5660858   1.7133722  28.2044144  54.9296227
   3.1560299  28.3887424  55.3488464  45.8923492   4.2423568  39.8629265
  46.6589584   3.8680201  40.2969971  46.0288048   4.0568938  38.9338303
   6.5425553  58.5299911  64.2007065   6.9240623  57.7730598  64.6453857
   6.2594819  59.1069450  64.9100952  38.4314766  21.1793213  82.6340714
  38.7904549  20.7887897  81.8372955  38.7412224  22.0848675  82.6175156
   7.5719962  27.6259041  21.6989727   6.9142709  27.9108734  22.3333397
   7.4796200  26.6736259  21.6695747  30.0701580   5.9197483  59.9670258
  30.6048412   5.9981518  60.7570877  29.9164314   6.8233662  59.6912079
  74.3332825  36.1619110  24.9149914  75.1917572  35.9090462  25.2545815
  74.4795685  37.0142975  24.5047798  86.2677460  30.6454735   4.8233881
  86.9444733  30.2609768   5.3805528  85.7298203  29.9016933   4.5519881
  72.6276016  67.3990479  21.0791168  73.5043945  67.6057663  21.4027405
  72.7198944  66.5384369  20.6703815   1.5993544  31.4720097  45.6656532
   1.1338418  32.2160645  46.0476341   1.1568075  31.3152447  44.8315010
  51.9786339   5.0659642  56.0800629  51.6404495   5.3325515  56.9349251
  51.3410301   5.4075108  55.4531326  64.5267410  57.2958565  63.3380241
  64.2215576  57.2642479  62.4313240  64.8096313  56.4011230  63.5268478
  45.5492821  63.1362457  77.1572342  44.7427597  62.6207352  77.1572876
  45.3173103  63.9438400  76.6987381   7.4443979  60.4043350  12.8064785
   8.1095266  59.7166862  12.8376780   6.6390028  59.9715691  13.0898256
  70.2328568  19.8412743  46.1796417  71.1191940  19.5073967  46.0411758
  70.2758026  20.7566414  45.9030762  15.8531837  27.1512814  79.4137878
  16.0412292  28.0670013  79.6195221  16.5268517  26.6575317  79.8813477
  16.2538586  69.9998169  79.6747589  16.3651714  70.9302292  79.4793854
  17.1327705  69.6958466  79.9013519  49.5663338  12.0996037  61.2695503
  50.0418510  11.5298786  61.8741379  49.8588676  12.9832106  61.4929161
  51.0291977  45.6393814  31.4528923  50.6470528  46.1523705  32.1649590
  50.3358879  45.5894470  30.7948208   3.1714778  70.4907684  27.1075382
   3.4278028  71.2576981  27.6197395   2.8386226  69.8701324  27.7558060
  45.3434792  69.9359207  41.4993782  45.1614037  69.6118851  40.6172867
  45.6376114  70.8372040  41.3674812  54.8962784  44.8623428  41.5288200
  55.4703140  45.1356087  42.2443924  54.1123428  45.4019585  41.6312370
  46.8538818  14.7121229  69.6270828  46.5920143  14.3495731  68.7807846
  47.5181160  14.1046610  69.9526825  77.4961395  18.1289120   3.6970868
  76.6627197  18.0991955   3.2272251  77.7585220  17.2119045   3.7776086
  23.8284130  42.2705536  16.3836060  23.9475670  42.8175278  17.1600418
  24.6323204  42.3930473  15.8786697  31.5064430  12.3006077  87.2784653
  31.8321552  12.3499718  86.3797379  31.7092342  11.4078836  87.5580139
  57.2148705  25.1499271  36.4423828  57.7927666  24.6632900  35.8546295
  56.6750107  24.4777145  36.8582077  79.0346985  37.9955673  21.3109245
  78.9304199  37.0964088  20.9996796  79.8494797  37.9822159  21.8131065
   8.0632153  35.7396622  88.7543564   7.1858077  35.4185982  88.9624557
   8.6510754  35.1650925  89.2447891  80.1849747  10.6080885   5.1724482
  79.3334808  10.4636974   5.5851665  80.4881516   9.7315540   4.9358039
  51.2657661  68.1609802  16.3492947  50.8920593  67.7388306  15.5757523
  51.6265259  68.9848709  16.0217590   0.8146390  71.6193695   5.8940825
   1.6490833  71.9064636   6.2649026   0.7636134  70.6885452   6.1113262
  19.7250843   5.6895218  19.3330822  20.0661621   6.0628300  18.5203457
  19.4218292   6.4458561  19.8353024   3.8122063  69.8907242  71.9155350
   3.3135457  69.3666840  71.2886734   3.9969869  70.7073364  71.4516068
  63.2060394  66.6950150  64.7798462  62.6917992  65.9168549  64.5647659
  62.7307205  67.4172516  64.3691483  14.2811890  42.9979324  16.8588066
  14.8793840  42.2938118  16.6085911  13.4092522  42.6112175  16.7787399
  31.0232544   2.5549841  63.3085251  30.4511299   2.4002924  62.5568733
  30.4268227   2.7915699  64.0188217  55.6095505  59.6591530  87.5640793
  55.4385948  60.5773621  87.3545685  56.2852974  59.3930092  86.9405670
  32.4332352  61.1309357  53.2275848  32.8549461  61.5539360  52.4796181
  31.5823078  61.5634460  53.2989349  22.3588772   1.0919080  19.4740753
  23.1671066   0.6584321  19.2000370  22.3915176   1.9495651  19.0502949
  49.0934715  39.0615883  78.1026306  49.6657677  39.6130714  77.5691681
  48.9437332  38.2827911  77.5666351   9.0538206  60.6391716  22.5818310
   8.2025089  60.3734970  22.2341003   9.6092663  59.8675575  22.4708328
  59.0876389  49.0239258  35.4809341  58.3728714  48.6113052  34.9960823
  58.7410164  49.8784676  35.7375336  36.5212402  60.7502747  20.9118443
  35.7866402  60.8146133  20.3015537  37.2979240  60.8690109  20.3651314
  77.1084595  69.2869415  50.2383537  76.4038086  69.8926773  50.4680786
  76.6998444  68.6590958  49.6424713  49.9506798  16.1218243   7.1034489
  50.2148857  15.6244450   7.8774257  49.1114044  15.7390947   6.8477817
  23.4998074  39.7871933  10.9339447  22.9306850  39.1161118  10.5571432
  24.3832455  39.4296799  10.8447685  36.7987061  26.5635014  65.5734100
  37.6269722  26.8535843  65.9555893  36.1431656  27.1523075  65.9473114
   0.2696745   9.9133348   8.8875341  -0.5387655  10.3986235   9.0523119
   0.7413982   9.9441433   9.7198553  26.9172764  56.1038132  36.9474373
  27.6098461  56.7164612  36.6999588  26.5246754  56.4897308  37.7304840
  28.8831749   9.9490213  39.6495476  28.3169079  10.0286951  40.4171562
  29.7678089   9.8872690  40.0098801  55.7354050  30.8775768  76.9590912
  55.2812729  30.2859173  76.3591461  55.8858681  31.6708622  76.4449997
   0.6842342  21.7887993  79.0030594   0.0022075  21.1172028  78.9976120
   0.2196053  22.6035614  78.8119736  30.6388168  41.7535019  28.7109146
  30.2467556  42.4685707  29.2121105  29.9735203  41.5224876  28.0626526
  48.0433807  54.2831459  20.1019554  47.1060028  54.4761429  20.1194706
  48.3334084  54.4220848  21.0035152  61.9002495  15.5071106  69.4103851
  62.4950333  16.0272732  69.9506607  62.0665283  15.8051081  68.5160828
  61.4486961   7.6969037  82.3013840  61.1479721   8.4835129  81.8463669
  62.2331657   7.4286261  81.8229904  78.7713089  41.5120201  53.4792137
  78.5941696  41.9634628  52.6539536  78.7299805  40.5818710  53.2570686
  11.4540920  43.5414162  75.0506134  12.1448555  43.8737068  74.4773178
  11.0607624  42.8205719  74.5587692  13.5675573  57.2539062  88.2962494
  12.9386215  56.5861969  88.5698166  14.0359831  56.8554955  87.5627136
  73.1751938   5.2958093  51.5150452  72.4223785   4.8796992  51.0951004
  73.7940063   4.5802131  51.6607170  33.8536491  57.0720711  78.9997177
  33.7985191  56.4279938  78.2937698  33.4609184  57.8640327  78.6325836
  82.7926636  59.3047523  49.4630661  82.7883072  58.5453148  50.0457077
  83.0938492  60.0274124  50.0137787  30.9563904  29.7560863  10.3644066
  30.4169865  29.2534370  10.9748325  30.3461380  30.0410748   9.6842546
  67.4574814  53.4093094  34.7362022  67.6443176  52.5754662  34.3048897
  66.6284561  53.2628822  35.1917267  83.1060715  10.6764555  76.4117203
  83.8357925  10.4728718  75.8266678  82.9877548  11.6225119  76.3268051
  74.7940445   8.1993780  73.4717865  74.3523407   8.9168081  73.0174408
  75.0106125   7.5747690  72.7795486   2.9310699  28.6467209  75.9727402
   3.3319032  28.9251175  75.1492920   3.6577497  28.6177673  76.5951004
   5.1498556  33.6668625  50.7980080   5.0062566  34.0943375  49.9536858
   4.8347454  34.2995720  51.4434662   1.8464922  33.6619682  56.4724998
   2.0998461  34.4716568  56.9157219   2.6656101  33.1767082  56.3735046
   6.5200415  68.0948868  51.9774780   6.3635778  68.7695236  51.3167076
   7.4514618  68.1731491  52.1837883  85.6379242  16.3469429  49.4122772
  85.0070419  16.3822021  48.6932640  85.1447906  16.6408138  50.1782341
  54.3099365  35.5215302  41.3989525  54.1605988  34.6206055  41.1121368
  55.1798286  35.7385521  41.0636597  79.7468033  33.7322502  57.5678520
  80.5402679  34.2662277  57.5289459  79.9310532  32.9874229  56.9955635
  44.1363335  47.8556938  78.0827332  43.4629631  48.1256104  77.4582748
  44.6115494  47.1557961  77.6349106  57.7667274  31.6200867  36.3929100
  57.5747948  31.5811577  37.3298607  58.6915359  31.8628273  36.3477478
  75.7557297  52.7586784  76.1983871  75.1668854  52.8913345  75.4554825
  75.3600082  53.2613373  76.9104004  84.7153091  66.0938644  42.4035072
  83.9469910  66.5449371  42.7534485  84.5329361  65.1649628  42.5452957
  72.3090668  65.3618774  38.5477676  72.1146393  66.2920532  38.4328957
  71.5145111  64.9974976  38.9378242  40.3469086  46.0385666  85.0310669
  39.8806000  46.5850868  84.3985291  40.2731667  45.1507988  84.6808319
   8.5703859  19.3403111   2.4668589   9.4352837  19.0631447   2.1645932
   7.9793844  19.1022835   1.7525117  84.1418457  14.4190760  35.9640923
  83.5207672  14.6814384  35.2846336  84.4412994  13.5513649  35.6927338
  68.8729477  21.3001595  88.1129684  68.6265564  21.3811607  89.0343628
  69.2420349  20.4199810  88.0402298  57.7857666  21.9417839  74.0511093
  58.0020943  21.0306683  73.8528595  57.1362915  21.8866787  74.7520981
  60.1877251  24.4167576  43.3485756  60.7813377  23.8763676  42.8271942
  60.2338562  24.0427399  44.2284698  21.0958481  34.6607971  77.1823654
  21.7356377  34.2463570  76.6034546  20.5729809  35.2154884  76.6034393
  67.6927414  49.9309387  17.3098164  66.7410049  49.8832436  17.2194920
  67.8637619  50.8367653  17.5676289  25.0436478   9.7623138  57.1474800
  24.7855797  10.4034967  56.4852753  25.5560417   9.1131887  56.6654854
  62.8151817  57.5491905  38.4784241  62.0903893  58.1743469  38.4690933
  63.0511627  57.4423027  37.5569496  74.2820511   6.0795875  38.6044006
  74.3010941   6.7298064  39.3066025  75.0588531   6.2715573  38.0790901
  52.7392769  66.5504761  19.6772900  53.1646538  66.3446884  20.5097179
  51.8859940  66.1201324  19.7315216   0.5988993  32.2486877  19.7151890
   0.8673609  32.3477097  18.8017578   1.3979417  31.9869747  20.1726494
  71.8628464  41.3896713  14.3575430  70.9407349  41.4738464  14.1149330
  71.9725647  41.9910126  15.0941467  84.9698563  22.9808922  78.6149902
  84.7220535  23.7370281  78.0829391  84.4139481  22.2703762  78.2950439
   6.2745275  10.7262888   7.3075624   6.6206183  10.0806999   7.9237337
   6.3363762  11.5598183   7.7740750  34.2499504  13.5206232  78.6148682
  33.6103935  13.0384922  78.0907059  34.5010529  12.9097843  79.3077240
  45.1881866  16.7269135   9.6509857  44.4443130  17.1068821  10.1184349
  45.3209724  17.3064137   8.9007998  32.2001648  30.4480801  15.9093046
  31.3211823  30.4384079  16.2881584  32.0869179  30.8582783  15.0518980
  30.2393074  36.0704803  83.2690887  29.3237000  35.8598366  83.0859909
  30.2574348  37.0254402  83.3319397  17.7010536  62.9244423   7.2024636
  18.2317219  62.7366066   6.4282928  16.9833260  62.2925491   7.1599388
  33.2151413  40.8098335  28.4994640  33.5969543  41.6208534  28.1637573
  32.2736244  40.9806252  28.5241604  42.3591919  15.0069351  12.1912403
  41.9219589  15.2500439  13.0073013  42.8348427  15.7955189  11.9302282
  28.8802929  32.2646179  73.9715195  29.5045090  32.0184135  73.2889023
  29.2617378  31.9219208  74.7797852  31.9670811  45.1102448  58.8338242
  31.6016331  44.2634621  58.5776291  32.5186539  45.3665695  58.0947075
  31.4051819  71.1007233  45.8206596  31.0147839  71.9649734  45.6906929
  31.4868317  71.0151749  46.7705269  83.7234573  23.2028828  63.6735497
  84.4075241  23.8721886  63.6912346  82.9053116  23.6946564  63.7444916
  43.7443085  13.5482416   1.6852062  43.7588501  13.2957726   0.7620161
  44.3900604  12.9763260   2.1001170  10.2760410   9.3712006  88.7771454
  11.2210617   9.2372417  88.7048798   9.9125757   8.9339676  88.0071106
  42.6307983   4.8988757  16.5896244  42.2563782   5.1006389  15.7321072
  43.4565468   4.4567523  16.3924046  62.4899788  42.3115311  70.1899261
  63.1633301  42.1641731  70.8540878  62.6993561  41.6883430  69.4942017
  46.2378006   5.4248891  48.8473969  47.0713730   5.6065097  49.2814522
  45.8634148   4.6965451  49.3429604  77.7660446  71.7728271  74.4409866
  78.5538025  71.7282715  73.8990479  77.0802307  71.3824692  73.8992233
   4.2220931  37.6520042  46.0964394   4.7321181  36.8484077  46.1981354
   4.4697766  37.9853592  45.2340240  20.9443302  60.6802254  38.2247124
  21.6873188  60.3479424  37.7209358  21.3138618  61.3799744  38.7632523
  45.7304573  58.8786888  88.7711029  46.5370750  59.3871002  88.6867218
  45.3635025  59.1496124  89.6126328   4.7301159  34.5951843  69.6757507
   4.7233648  35.1856384  70.4291077   5.6582146  34.4705658  69.4774246
  55.4068298  51.4835014  31.3425102  54.6932068  51.2639389  31.9414806
  55.6087646  50.6599350  30.8984489  42.2608795  41.5167961  27.5654545
  43.0327110  41.5003281  26.9995594  41.9044304  40.6301575  27.5102177
  75.7121048  27.7438450   7.8472419  75.4727478  27.7371807   6.9204760
  75.7348709  28.6715126   8.0820684  18.1473656  48.6692047  81.2012711
  18.8064022  48.9314575  81.8440247  18.0800209  47.7196083  81.3010864
  72.8967361  58.1695976  83.4643936  72.5482941  59.0595818  83.5168610
  72.2179031  57.6731720  83.0072556  36.1428223  53.0536766  34.9065170
  36.1106911  53.4306793  35.7857590  35.5074005  53.5634804  34.4039497
  -0.2296235   2.6348789   4.8959351   0.0343163   1.8532895   5.3814092
   0.5937108   3.0750058   4.6846514  48.9398842  69.0251465  19.0091457
  49.6406860  68.6050110  19.5077324  48.1362495  68.7639465  19.4587860
  26.5399952  43.3835068  56.7027626  27.3502655  43.4317245  57.2100792
  26.5211353  44.1999016  56.2033882  54.2037201  57.7563400   6.9360700
  55.0300407  58.2384109   6.9038906  53.7651711  57.9776497   6.1145291
  84.6999893  50.4549789  68.4043655  85.4190216  49.9945183  67.9717026
  84.9011002  50.3897057  69.3379211  23.3136463  53.7922668   3.0411816
  24.0751495  53.6450539   3.6021404  23.3408909  54.7279129   2.8410437
  46.9215546  63.0044708   9.3344193  47.5913925  63.6466179   9.0994787
  47.3546715  62.1573219   9.2296495  14.9365940  64.0536041  14.7757759
  14.7334270  63.4318504  14.0769377  15.8222628  64.3570328  14.5763922
  37.9985466   6.8247590  76.1780167  37.8034401   7.0318398  75.2640839
  37.1805000   6.9998522  76.6431808  55.7450333  50.6990318  81.1095276
  56.0194435  49.7854538  81.0301514  55.6532021  50.8405380  82.0517426
  13.8960419  21.3131828  12.7122288  14.2524920  22.1152935  13.0940561
  13.0353556  21.2159004  13.1196432  12.0195827  42.5817795  52.8098335
  12.7897120  43.1062355  52.5905571  12.3054199  41.6758270  52.6924553
  36.0909309  44.1543808   4.9067259  36.7027283  44.3408928   4.1945801
  36.5873871  43.6018524   5.5104451   1.3403064  28.2580032  42.9561386
   1.2338485  27.3689938  42.6176643   2.2876670  28.3760490  43.0254517
  14.4523897  64.8642731  50.4739723  14.7832260  65.4668579  49.8078804
  13.5082045  64.8320084  50.3200073  27.6879292  56.6631584  13.7040958
  27.8893185  57.5435905  13.3870583  28.4725304  56.1519279  13.5059137
  79.6249161  63.5265999  54.7291374  79.7048950  62.6288681  55.0514984
  78.9781342  63.4717484  54.0256500  54.4949760  30.5147362  34.1157227
  55.1882210  31.1660976  34.0090675  54.6725159  30.1130753  34.9662399
  74.1403198  42.2856941  58.6593971  74.2212448  43.0659790  59.2078857
  74.9119110  41.7612915  58.8735886  70.2277756  71.2319336  83.3362427
  70.8341675  70.6715088  83.8204422  69.4298630  71.2344589  83.8649750
   3.1893423  21.3500843  77.2061386   2.4925475  21.6028614  77.8117828
   2.7299550  21.0895748  76.4078064  13.0698900  40.2807045  87.4173889
  12.9749985  40.0190659  86.5015411  12.5847874  39.6169319  87.9076080
  50.0132637  15.3289232  39.5165024  49.5490265  16.1229458  39.7815437
  50.8096924  15.6476002  39.0917892  16.4112110  64.3106155  84.4060135
  16.0934505  63.7165146  85.0859375  16.2416573  65.1858978  84.7543869
   4.0416594  21.6907883   7.1389956   3.6676977  21.4353275   6.2957139
   4.6488385  22.3997021   6.9268484  66.0460281  42.2488403  57.4844589
  65.8087997  41.4575844  57.9680595  65.4436188  42.9178963  57.8095741
   1.9717573  59.6328888  41.9007301   2.3478181  58.9386024  41.3596382
   2.4017773  59.5340157  42.7501640  83.7874374  31.9896603  17.5141029
  84.2701492  32.1865387  18.3168869  82.8805847  32.2186165  17.7176514
  71.3473206  41.6765747  85.2971573  72.0422440  41.9534340  84.6999435
  71.5393143  40.7564049  85.4778671  65.1570129  57.3552284  36.5443573
  64.4291534  57.0932198  35.9806137  65.8346100  57.6534233  35.9375839
   9.0395632  20.9692059  88.9606094   9.2048941  21.3466358  88.0966415
   9.0701838  21.7163162  89.5582047  72.2428360   8.9465008  38.2689590
  72.8059311   8.1770630  38.3533478  71.8689499   8.8745184  37.3907433
  67.5870819  47.5521660  14.2525673  67.6993332  48.5021439  14.2868252
  68.0728607  47.2261162  15.0101576  77.7120438  71.3977203  40.0288582
  77.5636292  71.2704315  40.9658737  77.4627686  70.5633926  39.6313667
  48.6938210  26.6702232  20.1894588  47.8116722  26.3629913  19.9805164
  48.5619087  27.5423660  20.5612106   8.3217192  34.4593277  53.1150742
   9.1637516  34.1774864  53.4725380   7.9460349  33.6660538  52.7332268
  83.8858948  40.6204910  80.4970627  84.7868500  40.8316040  80.2522278
  83.3488388  41.2005959  79.9573593  11.7688246  28.6465969  23.0853043
  12.5308418  28.1270199  22.8291779  12.1389399  29.4322453  23.4877987
  69.2012482   7.3218389  36.8372612  69.7791901   8.0728569  36.7024155
  68.3802261   7.5723329  36.4136887  70.4816589  15.9190531  67.7065201
  69.6729507  15.9541559  67.1956558  70.8109131  16.8177795  67.6958313
  48.5576820  46.8498650  10.6110783  48.9219818  47.1359329  11.4487438
  49.2679443  46.9824142   9.9832315  31.6636066  15.6172953  13.1930542
  30.7438068  15.3533936  13.1695461  32.1402550  14.8082008  13.3785334
  71.5993195  16.1906052   2.6823511  71.9641876  17.0744572   2.7260008
  71.8451843  15.7885733   3.5155094   3.3681908  28.0246468  71.8328476
   3.6952188  28.7409325  72.3771057   3.4952409  27.2406349  72.3670883
  39.7474022  48.1954155  76.7968292  38.8522682  48.5025864  76.9404144
  40.2741623  48.9943352  76.7749252  75.2088547  29.5376377  16.9873714
  74.4951553  29.1528950  17.4961319  74.7758484  30.1492748  16.3918571
   0.4685179  44.2554131   5.0543137   0.5527991  44.1543045   6.0024199
  -0.4135046  43.9400635   4.8572812  84.8793945  32.7314224  22.9853477
  85.1074829  32.9854240  23.8796005  84.5617065  33.5386314  22.5807247
  42.9901733  13.2640953  73.6457214  43.2290955  14.1784897  73.7974854
  42.4715042  13.2823811  72.8414383  33.7744789   6.0823298  42.7944756
  34.7259865   6.1424255  42.8796692  33.4400520   6.3481636  43.6510506
  32.0116386  16.7021580  84.4926071  32.9611168  16.6533794  84.3815079
  31.8776417  16.6399269  85.4383392  13.7139397  66.6155319  20.2159863
  12.9352722  67.1367874  20.4114399  14.1920147  67.1328888  19.5678959
  85.9138641  30.4628391  51.9759140  84.9875641  30.2755394  51.8238792
  86.3504944  30.1795425  51.1725922   1.6987840  56.8706512  47.6308594
   1.6421980  57.8125725  47.7915268   1.5130041  56.7754364  46.6967010
  35.1702271  49.5915031  77.5331039  35.8436775  49.7219353  76.8655090
  35.6456871  49.2460823  78.2886505  22.3482456  18.5329342  62.0991402
  22.2808743  17.9664478  61.3305130  22.3322620  17.9305000  62.8428116
  15.0170708  54.3207893  47.6468277  15.4779301  54.7297096  48.3793755
  14.9652872  53.3947296  47.8833885  19.1342449   3.8312747  21.6212330
  18.8789825   4.6892138  21.9603672  19.8317909   4.0197582  20.9934311
  63.4888344  44.9783211  84.6443024  62.6598206  44.5000229  84.6582870
  63.4025574  45.6275940  85.3423233  15.7166157  40.1993370   0.8691460
  15.7458067  39.2866707   1.1562361  14.8792887  40.5270119   1.1973934
  10.0429497  37.5551109  87.1873093  10.8185215  37.5483284  87.7482681
   9.4579983  36.9068565  87.5795212  74.7157211  17.2161541  11.9597406
  74.6290054  16.3073444  12.2474499  75.0491791  17.6797867  12.7279100
  28.6946106  28.6108112  12.7261686  29.2803726  27.8990498  12.4682732
  28.4947414  28.4352627  13.6456614  46.0259819  57.1128044  35.8975220
  46.1829834  56.3810883  36.4943237  46.8919907  57.3309822  35.5530510
   7.2273784  26.0364323  69.6505585   7.8429546  26.3721333  70.3021774
   7.0366015  25.1438236  69.9388046  56.4801712  33.5615959  82.0581741
  56.3518333  33.8168793  82.9717331  56.2022171  32.6462822  82.0239410
  67.7802963  21.4569340  77.9423218  66.9056320  21.0822239  77.8384705
  68.1246643  21.5119801  77.0509109   5.5426083   1.5989096  11.1565819
   6.0646486   2.0080686  11.8467226   5.5997367   2.2077725  10.4202023
  84.4487228   0.4788123  60.3574295  83.5307999   0.6272838  60.5846024
  84.8794632   0.3142758  61.1962509  77.7028809  36.4843445  63.0228157
  77.0284119  36.9478416  63.5192986  78.0363693  37.1358185  62.4058914
  85.2895050  32.4277725  82.0866699  85.4288559  33.3605537  81.9231567
  86.0255890  31.9960194  81.6530762  32.8799057  29.8131065  74.9332581
  32.0165100  29.7927361  75.3460083  32.7090340  29.6223259  74.0109558
  51.9700050  21.4010582  23.1338081  51.4925499  22.1818352  23.4142685
  51.4146461  20.6702671  23.4053783  38.8946724  69.9084167  74.9836426
  38.2706795  69.2525558  74.6726608  38.3734589  70.7044830  75.0877762
  78.6891632   6.0981188  77.3917618  77.8595810   5.8522229  76.9824219
  79.3481674   5.5842772  76.9249496   7.8440690  62.3098373  59.1062546
   8.0913143  62.5580139  58.2154617   8.5992985  62.5540161  59.6412659
  13.3660526  43.7412300  77.5991364  13.1535196  43.1432076  76.8825912
  13.5234308  44.5824242  77.1703568  27.5553951  55.5619354  81.9806900
  28.1571579  54.8916931  82.3045502  26.7631989  55.4462509  82.5053635
   6.4972196  45.9356079  20.7625141   5.8167162  45.6685982  21.3804569
   6.1115470  45.7813530  19.9001369  49.3207016  69.9254608  23.2159538
  49.8945122  70.1186142  23.9573517  48.7495346  69.2250443  23.5312576
   4.5407500  29.1532211  45.1898193   4.7562652  30.0572510  44.9606590
   4.4705038  28.7029896  44.3480453  61.4221077   9.8114433  73.0144043
  60.6957283   9.2981720  72.6606293  61.5696716  10.4977732  72.3637085
  44.9928703  29.3747978  67.1250610  45.3677254  29.7739277  67.9101791
  44.7931633  28.4756241  67.3855209  50.6522522  14.8248768  26.7518520
  51.2520828  14.5103655  27.4282513  49.9456749  14.1792583  26.7393036
  32.3602715   2.2837460  50.2744446  31.6036320   2.8308384  50.4851952
  32.3005791   2.1463230  49.3290405  85.9589310  58.3090477  69.9929276
  85.5911026  57.8349953  70.7387238  86.7849121  57.8618164  69.8086243
  31.1500187  45.9423561  15.1825523  31.2007446  45.1100349  14.7125540
  32.0226250  46.3242950  15.0881395  27.2880421  31.1944275  66.4607925
  26.9758987  30.9525528  67.3327408  26.7737617  30.6516361  65.8631897
  80.7456207  30.5806694  48.1629601  80.4405899  30.9811726  47.3488426
  81.6254883  30.9356785  48.2895508  11.8384628  10.5819473  12.6586065
  12.3720016  10.3730850  11.8918304  12.0304928  11.5018482  12.8406458
  81.5897141   9.2451067   8.8735008  80.7088242   8.8773623   8.9443951
  81.4479065  10.1656857   8.6529150  84.6493454  46.7094765  22.6935558
  84.3779984  46.4905815  21.8021049  85.2356110  47.4587746  22.5882912
  43.0305748  47.1425743  53.3917694  43.0273666  46.4346352  52.7475319
  42.2696419  46.9663429  53.9450798  85.5121689  25.2303524  40.7623558
  85.0260849  25.2969818  39.9404564  84.9437637  24.7162094  41.3357735
  72.6313248  15.7699499  21.8650417  72.0387421  15.0362110  22.0284615
  72.0608292  16.4749718  21.5589237  62.5991631  19.8731327  84.5223999
  63.4495926  19.4871693  84.7322311  62.5925827  19.9332790  83.5671158
  83.8865204  14.1461020  68.6728516  84.6212769  13.5929947  68.9382706
  83.3536911  14.2321215  69.4633713  70.8072128   8.7868910  22.5106945
  70.3708572   7.9763293  22.7730141  71.0011063   8.6645918  21.5813484
  39.8499794  48.1536446  20.8246460  39.7250252  47.2122345  20.7048016
  39.9158974  48.2677307  21.7727337  45.6482353  16.0719147  75.4060822
  45.1677399  16.5144958  76.1057053  46.1304512  15.3747149  75.8506165
   2.3892908  21.0421677  23.8537235   2.6748722  20.7310867  24.7127361
   3.0610023  21.6716671  23.5914898   0.2755638  56.9932365  15.2542934
  -0.3344902  56.2655792  15.1335392   1.1418362  56.5872688  15.2227659
  65.3685379  62.2811775  65.7371216  66.1146088  62.7741623  66.0785370
  65.6772842  61.9262047  64.9035110   3.7203209  45.4829483   0.5768453
   4.1213498  45.0176926   1.3109740   2.8036129  45.5876083   0.8316489
  68.9741516  16.0073853  43.4002609  68.6232529  16.6700230  42.8052711
  68.9873810  16.4365635  44.2557526   5.4382720  34.2500572  66.5096512
   5.3290367  33.3212051  66.3058472   4.6246362  34.6576805  66.2128830
  59.5050812  69.8507690  30.2419395  59.7267914  70.7488785  29.9960079
  58.5852394  69.7549744  29.9950638  84.0811081  55.9526749  77.3297729
  83.1632690  56.1678200  77.4956436  84.2213135  56.1916122  76.4135361
  70.3292389  33.3985672  24.2124500  69.5400696  33.6113319  24.7106171
  70.1940155  33.8138084  23.3606739  45.2156448   4.3299284  54.7534142
  45.7862701   4.4193740  55.5167084  45.1156921   5.2227716  54.4231529
  77.8486328   5.2730093  35.2837219  78.4304504   5.9463143  34.9310455
  78.4389343   4.6077824  35.6376190  83.2629395  55.7887230  29.9752560
  83.4582825  56.4695396  30.6191158  82.3116913  55.8209724  29.8736897
  80.9923172  67.4489594  71.4007416  81.8716812  67.7784729  71.5861664
  80.6995773  67.0684509  72.2288361  39.3917961   5.1289606  84.6301880
  38.8167458   4.3639827  84.6111908  40.2299156   4.7907972  84.9455109
  53.8446388  54.6010132  82.7284317  54.5347672  55.0535011  83.2134171
  53.0437393  54.7930908  83.2161713  67.8320160  49.6943016  86.7583923
  67.4589157  49.0673027  87.3779907  68.7651749  49.4823189  86.7357788
  80.5489502  21.6942482  76.1619034  80.8739929  22.3616447  75.5576172
  79.8042831  22.1083260  76.5980682  71.7634277  52.8127441  12.7967539
  71.2561722  52.0157280  12.6428194  71.1444244  53.5251846  12.6370802
  68.2614288  16.3726177  66.1891785  67.7639084  16.8077450  65.4968109
  67.6397629  16.2845364  66.9116669  66.1118088  34.8135719   2.9183309
  66.7108154  35.4347992   2.5041993  65.3584137  35.3439445   3.1778045
  52.1530266  36.9499283  86.1906662  51.6912994  37.3362732  85.4465103
  52.0204277  36.0071526  86.0915604  -0.0552384  63.0670738  87.8162003
   0.3878960  63.4849319  87.0777817   0.2984086  62.1778107  87.8356857
  59.6877556  17.8498230  71.1757431  60.2686996  18.5970287  71.3186493
  59.7291832  17.3543568  71.9936905   2.1828103  40.5978355  29.5458908
   1.9435060  41.5160980  29.4203548   1.8061025  40.3660469  30.3947716
  12.6137705  36.6999321   2.0033650  13.4106007  36.1696014   2.0100675
  12.7355585  37.3242569   2.7186384  43.2812271  63.0007133  53.9514656
  43.3772812  63.9395180  53.7913170  43.8726463  62.8206596  54.6822433
  59.3181610  12.1109571  72.5407715  59.8602867  12.8695822  72.7571411
  58.5942535  12.1477623  73.1659393  86.1230698  27.1109657  16.5150394
  85.9146423  26.6620464  17.3343430  86.0725555  28.0417919  16.7323914
  65.1509171  59.8727150  61.0262527  65.7336578  59.1685410  60.7420158
  64.7581253  60.1998863  60.2169914  51.5864067  53.0786858  40.0742989
  50.8493805  53.5811043  40.4215775  52.3504715  53.6326027  40.2343292
  69.7625656  11.4296656  22.8986473  70.5227737  11.9312019  23.1932106
  70.1082458  10.5560083  22.7157288  38.0570641  40.0395317   3.3527925
  38.5195580  39.2961845   3.7397957  38.4015503  40.0983353   2.4616668
  69.2149963  69.4890442  15.2794638  69.1093597  70.4391174  15.3287868
  68.5036469  69.1407471  15.8169565  42.7277794  30.9121475  66.3120880
  43.5072632  30.5623875  66.7437210  42.5971146  30.3416786  65.5546417
  41.5662956  66.1027679  38.1758118  40.6150398  66.1041870  38.0693245
  41.7012138  66.0848541  39.1232872  52.9518967  51.7665482  78.3541565
  53.7904549  51.5126762  77.9686813  53.1424980  51.8865967  79.2844772
  23.4306698  59.1855965  43.9187698  23.2269039  58.6715126  44.7000694
  22.7888775  59.8957329  43.9252129  84.3156281  34.4881172  70.3001556
  85.2382660  34.3332634  70.5026550  84.2918930  34.5818672  69.3478546
  83.4635162  51.0694046  71.6867142  82.9521103  51.2122726  70.8902969
  83.3103714  50.1508446  71.9081421  75.0429611  16.4851437  51.1509399
  74.7492676  17.2872009  51.5830040  75.9667664  16.4089546  51.3897133
   7.1155772  66.1386948  30.6999702   7.9202099  65.6210556  30.6708508
   6.9045086  66.3051834  29.7812958  72.3558426  13.3464308  75.0224609
  72.8979950  13.6892490  74.3119812  72.7611847  12.5098934  75.2508011
  45.3802223  22.1139755  86.7702789  45.6637917  22.6511707  87.5100403
  45.5514755  22.6566792  86.0006180   2.9609735   2.7658584  60.2018013
   2.3183241   3.4559388  60.3661880   2.4760430   2.0972896  59.7179756
  85.6269379  32.4248428  40.3075066  86.4166489  31.9153137  40.4890785
  85.2132339  31.9717827  39.5727844   7.7289100  45.9402809   3.0334411
   7.1297455  46.5896034   2.6651838   7.3975797  45.7828941   3.9175687
  18.6694489  33.4867630  68.5672073  18.7994900  33.2507744  69.4857025
  17.7888889  33.1727982  68.3616104  53.1777954  64.9616089  73.1640167
  53.5785522  65.4080276  73.9098969  52.3299751  65.3922272  73.0544510
  17.1315174  28.5436363  76.9373245  16.8941345  28.3591881  76.0285568
  16.5446148  27.9922905  77.4548111  65.6619263   1.3290044  -0.0325699
  65.1266861   2.1213090  -0.0773652  65.0721359   0.6609750   0.3168858
  53.7354088  70.4618912  52.4452553  54.3759117  71.1634445  52.3277321
  52.9209099  70.9151688  52.6628723  45.5677757  10.3697548  62.4483719
  45.7561493  10.5264406  61.5230598  44.6122437  10.3815994  62.5036163
  70.3222656  57.1446228  81.7478180  69.5172043  56.7058067  81.4729538
  70.8395309  57.2203484  80.9459915  59.6672478  29.3765430  39.4279594
  59.4622765  28.9916458  40.2800598  59.2469788  28.7944603  38.7948837
  24.6771202  60.9967995  77.7162933  24.8438683  60.0738258  77.5251312
  24.2908649  61.3421097  76.9114380  13.9302101   4.1279984  74.9568100
  14.3087864   4.9322753  74.6017685  13.9598093   4.2480183  75.9059906
  76.9267960  39.0491829  69.4873581  77.7585831  38.9710579  69.0201797
  76.4984436  39.8067207  69.0887527  75.0835800   9.1043901  85.6313477
  75.3773575  10.0036459  85.4855270  75.4761353   8.6050777  84.9152374
  70.7335815  59.3018875  59.0450134  70.7514114  59.6893501  59.9201088
  70.6405106  60.0491257  58.4540749  37.6185112  44.9161758  22.2926960
  37.3504372  45.8342133  22.2529659  37.5225754  44.5995598  21.3944855
  21.9540691  16.3427200   7.4671979  21.5826836  15.9759865   8.2695770
  22.2464275  17.2191715   7.7173796   5.6396794  68.0154724  25.5974770
   4.8977056  67.4111023  25.5763988   6.3730583  67.4836731  25.9066315
  27.4117050  69.0931625  81.4728699  26.6866512  69.0461731  80.8497162
  27.3765411  68.2609253  81.9444427  78.4696350  10.6283493  46.5295105
  78.2546310  10.7931366  47.4475822  79.1787415  11.2414389  46.3358078
  58.3352242  22.6457138  82.1069641  58.3761635  21.9759865  81.4243088
  59.1068268  22.4823513  82.6493454  26.3765106  23.3788452  83.6503296
  26.4483147  23.9206543  84.4361496  25.7683945  23.8556156  83.0854263
  72.3338089  35.3223877   5.8627696  72.8761292  34.8710747   6.5096388
  72.1572418  36.1781960   6.2534709  33.2945290   2.0958047   2.5558784
  33.8661499   1.7994258   3.2641425  33.3736687   3.0496571   2.5674589
  46.6974831  12.0406895  58.3974266  46.9512672  12.6519804  59.0889091
  47.3936653  12.1149654  57.7447052  75.6035690  47.2344742  76.0043335
  75.1700745  47.3398552  76.8512192  75.6591263  46.2870140  75.8799667
  27.0405407  30.0978031  76.4792404  26.2842693  30.1815987  77.0599823
  26.7224941  30.3963547  75.6272125  50.8662300  67.0671616  81.8507080
  51.3238525  67.8859558  81.6599503  51.5583115  66.4629669  82.1194153
  47.4878120  45.8203697   0.4737866  47.6696510  46.7601357   0.4703072
  48.2559776  45.4262505   0.0604791  56.3062057  40.1583061  53.7324638
  55.8798637  41.0144691  53.7705383  57.2055168  40.3501778  53.4666519
  66.4834747  49.4488411  48.5373077  67.1230240  49.4843445  47.8260078
  65.7844467  50.0413513  48.2606812  65.1756897  63.8685760  29.2193432
  66.0214996  63.4717941  29.4276714  64.5715942  63.1283264  29.1616325
  35.8752975  65.7763901  36.4479141  35.5678482  66.5631638  36.8981209
  35.5534706  65.0521088  36.9846382  25.6218109  15.9811554   1.7887094
  25.6598206  15.0281763   1.8700527  25.5806065  16.1395855   0.8456112
  66.1710510  22.9973660  60.0158806  65.2437744  22.9057808  59.7968025
  66.5819168  23.2881813  59.2017250  36.3980789  47.2122078  57.2997169
  35.6682816  47.5367355  56.7721672  36.8110123  46.5443878  56.7522392
  27.3417950   3.7049334  45.5178108  28.2917404   3.6875830  45.4014778
  26.9929810   3.3762729  44.6892319  75.6135483  67.6185837  69.6360474
  76.3308182  67.1709061  70.0847626  75.1047440  66.9137878  69.2352829
  10.1272612  48.3328743  40.4032249   9.3357544  48.0455551  40.8584099
   9.9072247  48.2650375  39.4741287  39.4950333  41.1205139  55.8780365
  40.2045670  41.1297379  55.2356148  38.9344749  40.3941193  55.6053581
  67.4164505  65.3759460   6.7432051  67.5059509  65.5037003   5.7988000
  67.9772263  64.6249390   6.9375134  84.1041107   6.0375023  52.7472267
  84.6993713   5.8403540  52.0240097  84.6573029   6.0072031  53.5277977
  82.7286835  16.9082603  27.4966049  83.6579437  16.9005947  27.2671642
  82.2957611  17.2836742  26.7298756  80.9908447  35.1220627  77.9189453
  80.5377731  34.9560356  77.0922699  81.3899536  35.9845047  77.8043289
   8.6444635  41.5437927  71.0435715   9.1275759  41.5906563  71.8685837
   8.5822668  40.6073532  70.8553009  31.0997295  61.3885994  83.5929718
  31.4433441  61.9478722  82.8962860  30.2578106  61.0794106  83.2585983
  27.2575436  70.9510498  15.8179379  28.1884918  70.7463531  15.9055204
  27.1652050  71.2664413  14.9189196  50.2463264  70.7339096  32.2224617
  49.3634224  70.7476578  31.8529758  50.4161072  71.6425476  32.4710426
  38.3213158  53.6989059  48.6711960  38.6449738  53.3566628  47.8379211
  37.8660622  52.9591370  49.0733376  33.7092857  16.3287182  76.5260162
  34.3409424  16.6801758  75.8985443  33.0348511  15.9199867  75.9835129
  71.7342377  27.9652309  31.2279205  72.6866913  27.8834763  31.2766762
  71.5036545  27.5792561  30.3828850  59.0637398  52.8704300  82.0364609
  59.3419342  52.8689995  81.1205750  58.6692505  52.0083237  82.1682968
  68.1471100   9.8090372  84.4809189  68.5743332  10.4746208  85.0200882
  68.5508728   8.9849424  84.7530823  74.3844528  47.4359283  86.1076660
  75.0251770  46.7750053  86.3701248  73.9990768  47.7361031  86.9308319
   5.9955606  54.4882812  52.4041672   5.4912729  54.9392929  53.0813026
   6.5571799  55.1678009  52.0312500  30.8915710  61.1543045   8.6897221
  30.0521240  60.6969948   8.6404390  30.7024727  62.0370369   8.3715143
  33.5099983  61.7112389   9.4977303  32.7352829  61.2014313   9.2607841
  34.2460518  61.1269875   9.3157759  19.8360043  55.4111023  28.8129997
  19.3059673  56.0808029  29.2451916  19.3270969  54.6057816  28.9063034
   2.4668305  70.7405243  65.1827240   3.0239360  70.4194183  65.8917770
   2.7686551  70.2667542  64.4076920  47.4692917  48.7946053  78.7125854
  46.7118568  49.1041718  79.2092667  47.4286652  49.2782860  77.8875809
  66.9324646   4.0162826  64.2702789  66.1254349   3.5284123  64.4343185
  67.3983154   3.4956002  63.6159782  55.2923622  40.0203362  80.4131241
  55.0384598  39.1106796  80.2572632  54.8876114  40.5082207  79.6959229
  18.9779320   1.0389504   7.4491386  19.6648273   0.7731346   6.8377900
  18.4511852   1.6695598   6.9581170  29.9791279  41.2238388  14.6196384
  30.7094326  41.2597198  15.2373762  30.2844200  40.6448479  13.9212141
  49.3769608  25.3715343   6.6961989  49.0173454  26.2559662   6.7646751
  49.1981316  25.1095257   5.7930908  42.7891579  30.2727089  35.5636101
  42.1782799  30.6789074  36.1784782  43.0859795  30.9941959  35.0090065
   3.0312209  21.5185966   9.5292120   3.2107956  21.6378384   8.5965996
   2.1068387  21.2727852   9.5656195  53.2943649  66.8214645  45.2258606
  53.9721069  67.3363495  44.7879181  53.7751045  66.1287231  45.6788750
   7.2809215  43.0679626  61.3764534   7.6492176  43.7287903  61.9628792
   7.2451768  43.4988098  60.5224457  49.2225723  33.8425102  62.3265228
  50.1125183  33.8749504  62.6774902  49.2353630  33.1117477  61.7084198
  61.6877861  63.2989159   5.8890338  61.1026154  62.5668526   6.0836844
  61.3171616  63.6992111   5.1025033  53.1611443   8.6599293  24.2386875
  52.8606491   9.5640059  24.3313217  52.7743111   8.2013483  24.9845409
   6.0831137   5.6031175   9.0037661   6.7343760   5.2974949   8.3723507
   5.6760330   6.3592715   8.5809793  14.4698296   9.8066959  78.1620331
  13.8968334  10.5554390  78.3272324  14.0446262   9.3328047  77.4472885
  81.3526764  32.7278442  79.8404694  81.0452347  33.5528831  79.4649429
  82.2807236  32.6904449  79.6090393  83.7921524  19.6393757  26.8824272
  82.9566727  19.4561577  26.4527397  84.2886887  20.1416531  26.2363567
   1.2552388  61.3098335  64.9259491   1.9612422  61.8535233  64.5763855
   1.6920650  60.7091217  65.5297394  73.7214966   9.2630711  32.9567108
  73.9426651   8.3398466  32.8343430  74.4436722   9.7387886  32.5463638
  59.2800674  56.1213417  51.2924652  59.7152252  55.7188072  52.0440178
  59.9164009  56.0503273  50.5809364  29.1181793  65.3556061  71.8849792
  29.2103596  64.4339218  72.1263123  29.6959438  65.8205795  72.4901352
  35.0094299   1.6177939   4.7001591  34.8585320   1.0009606   5.4163837
  35.8503456   2.0250883   4.9080057  70.6275787  43.0155792  57.9975395
  69.7215652  43.2046776  57.7533875  70.9413147  43.8255730  58.3996658
   1.3095922  56.2958145  30.5538731   0.5916491  56.7174644  31.0261021
   1.3088694  55.3933983  30.8730488  82.3896790   2.6445582  47.8767586
  83.3002167   2.7702937  47.6096535  82.2311707   3.3354831  48.5199776
   9.3747044   4.7627811  63.0147362   8.6540451   4.1475000  63.1500587
   9.6097193   5.0538969  63.8957901  38.2832832  63.1384811  73.3392105
  37.7805367  62.9194527  72.5546722  39.1976852  63.0696220  73.0646973
  78.8763275  42.2074203  16.8185902  79.6179123  42.7500038  16.5504646
  78.5873871  42.5893517  17.6473694  53.9470329  51.8914909  21.4537373
  54.8671074  52.1264000  21.5741901  53.6965904  52.3169403  20.6336727
  60.6522484  33.5805130  60.1538887  59.8745155  33.0977020  59.8741455
  60.7672386  34.2568779  59.4864006  63.0349388  62.5690918  55.8397255
  62.0990982  62.4893570  55.6551208  63.4411049  61.8730240  55.3232498
  77.8096542  56.8794594  74.3036804  78.1872406  57.4986687  73.6789932
  77.3698044  56.2272568  73.7583389  22.8707695  33.1773567  12.5204096
  23.1692333  34.0389252  12.8117008  23.5437164  32.8861656  11.9051199
  76.6152267  59.6794281  57.4657631  76.7898178  59.6096649  56.5272102
  77.1390686  60.4277420  57.7518539  81.8989334  26.0788498  74.8114243
  82.5738068  26.2776203  74.1623764  81.1696091  26.6550751  74.5827789
  74.4486923  21.9862309  48.1478958  74.7567978  22.1859493  47.2639198
  73.8694611  21.2325764  48.0350838  51.9265862  34.9353180  11.8607140
  51.0306396  34.6027985  11.8064671  52.0775986  35.0651550  12.7969675
  62.8707581  50.7279243  14.4100914  62.0785828  51.1900940  14.6841116
  62.5744019  49.8385277  14.2167692  58.3767548  24.2900219  85.3557739
  58.2879639  24.6839409  86.2236328  58.9724464  24.8746643  84.8871841
   9.3990574  38.8549194  61.6208763   9.1869822  39.5197487  60.9656982
   9.2757406  39.2980118  62.4603348  86.2054901  13.6870298  50.1664352
  86.1355972  14.5071449  49.6778069  87.0079498  13.7816143  50.6796036
  57.9092331  42.7774315  14.8698673  58.1098747  42.5334320  15.7734365
  57.5694885  41.9745026  14.4747572  33.4887505  47.6054192  15.7792683
  34.2108040  48.1220398  15.4215374  33.7370415  46.6967812  15.6090813
  15.7255630  15.3327761  12.1460991  15.7853327  15.9027605  11.3794327
  14.9071074  15.5885391  12.5714769  49.0265808  20.8700104  58.1303177
  48.4169579  21.4852829  58.5377884  49.5560303  21.4103680  57.5438614
  10.9725876   2.3879170  56.5412445  10.7981520   1.5635476  56.0871315
  11.7123499   2.1926353  57.1164398  36.2086067  63.2231483  23.4398174
  36.8671913  62.6574402  23.8428955  35.5026970  62.6275291  23.1884880
  41.2757950  65.1509705  56.3857460  41.4248314  65.0750656  55.4432716
  40.5011368  64.6131821  56.5498123   6.2533603  66.5586929  85.4116211
   5.8939090  67.4124069  85.1703873   5.5539618  65.9379425  85.2073212
  16.5274124  67.6283798  12.8067722  17.4713688  67.7856903  12.8275833
  16.2269611  67.8575439  13.6862307  27.1715279   4.4409299  82.8686142
  28.0731163   4.4591827  83.1896133  26.8371220   5.3205748  83.0436325
  53.3303146  66.0817337  16.9056740  53.1507759  66.0163269  17.8436069
  52.6698685  66.6918640  16.5773678  37.8872223  45.2302399   8.5957413
  38.6199799  45.6256981   9.0678797  38.2977600  44.6139603   7.9892006
  30.0756645  30.5616093  17.4834938  29.6212177  29.9762592  18.0893612
  29.9333363  31.4368534  17.8439388  49.5926590  54.4795113  24.4406796
  49.7428398  55.3922348  24.1944942  50.4209557  54.1965294  24.8280773
  35.7122879  61.1596565  33.2143936  35.7830353  60.2497673  33.5030556
  36.0516090  61.1540604  32.3193741  53.7617760   0.7286284  65.8875809
  53.2036057   1.2790846  65.3383408  53.3948975   0.8177726  66.7671738
  62.4460487  25.9936829  76.4057236  62.3330727  25.1682510  76.8770370
  61.6927834  26.0382633  75.8168030  78.4970856  44.3215218  18.7047539
  78.6222229  45.1479568  19.1712093  78.2744522  43.6911621  19.3898144
  81.6905899  17.2707462  74.4739304  81.2340393  16.4334030  74.3923645
  82.5205154  17.1366196  74.0162582  13.3816643  63.2431679  57.0204697
  14.2957258  62.9817619  56.9091530  13.3355474  63.5775108  57.9161911
  85.2888107  20.4772701  32.7385750  85.5528793  19.8611145  33.4218407
  84.6133499  20.0123215  32.2448120  69.4409409  32.4290390  31.3930378
  69.7747803  33.2901764  31.1415844  70.0548630  31.8096104  30.9985313
  37.1357117  63.9312210  17.5436821  37.1825371  63.7829323  16.5991974
  37.5882225  64.7639236  17.6781120  33.0270729  67.0225372  11.0351505
  33.5000496  66.4753494  10.4081669  33.3494453  66.7396469  11.8908844
  18.0098209   1.5318067  82.8779907  17.4711437   2.2663343  83.1721497
  18.6798325   1.4397773  83.5553741  11.2235918   5.8169703  10.2707396
  10.2907057   5.6950889  10.4470901  11.5552492   4.9328313  10.1141071
  16.7959862  68.6218567  72.6371613  16.6874409  68.8255539  73.5661163
  16.4981670  67.7159576  72.5542068  51.8698807  43.9977493  23.4849434
  51.2356377  43.2868996  23.5780010  51.8376923  44.2274094  22.5562611
  64.2404175  18.0775528  78.6555023  63.6285019  18.1776943  79.3847198
  64.1932755  17.1487083  78.4291000  38.0828972  35.3497887  83.9324188
  38.3982887  34.4901314  84.2112579  38.1283989  35.3231735  82.9766769
  70.2569885   7.0128760  49.9572868  70.4744186   6.5417023  49.1529541
  69.5151367   6.5316000  50.3237038  23.4832115  21.6908493  72.3270111
  22.8129635  21.7891922  73.0032730  23.6342602  20.7470779  72.2749481
  73.5237503  30.6617680  10.8421259  73.2679520  31.4597607  10.3795166
  73.8163223  30.9662476  11.7011518  15.3718939   5.6962223  24.0111389
  14.7983809   5.5124946  24.7551556  15.5304852   4.8399501  23.6138000
  53.8400612   2.2733150  47.4524994  53.3243484   2.1632128  46.6536560
  54.7393417   2.3836994  47.1437263  59.8580856   7.0867624  60.0461960
  60.1333771   6.5059309  59.3369141  59.1482277   6.6141634  60.4809227
  47.2057343  71.2820129  47.1047134  46.5098038  70.7319260  46.7451210
  47.8090096  71.4136887  46.3733101  43.8619461  50.2888336  21.0324802
  44.3309669  50.1701508  20.2065468  42.9388542  50.3208237  20.7812672
  19.1192207  67.5751038  88.9488678  18.2995453  67.1669769  88.6699600
  19.0892773  67.5435181  89.9050751  47.4588509   5.4477344  25.2044449
  46.9662476   5.0315771  24.4970646  46.9888458   6.2638140  25.3757381
   3.3982141  61.5563469  56.6233788   3.5547371  61.6647835  57.5614471
   2.7907779  62.2612190  56.3988571  40.0998650  13.2366552  83.1009369
  40.4641571  13.2612495  83.9857635  40.0418091  12.3044214  82.8916473
  85.6386337  60.8521461  51.8226624  86.2086334  60.6665840  52.5689163
  84.9095459  61.3477249  52.1955719   2.7648156  31.8594398  74.5608368
   1.8945428  31.6408577  74.8941193   2.7781143  32.8162041  74.5351639
  24.2492085   3.7650964  62.8388557  24.5679436   3.2771051  62.0795784
  24.9091015   3.6132584  63.5154037  12.8624525  53.7199631  22.2925529
  13.5914860  54.1635323  22.7261276  13.2804384  53.1183052  21.6764927
  66.7096024  33.6693802  80.3137894  67.2065811  33.4574547  79.5236435
  65.7934799  33.6216927  80.0405121   1.9760866  47.3414192  66.9185562
   1.9870483  46.4430237  67.2486954   2.0597653  47.2488747  65.9695206
  60.4862442  23.3555088  45.7812462  59.5661583  23.1142902  45.8884354
  60.5845566  24.1583748  46.2930756  24.8342896  43.7188034  18.6944809
  25.5991497  43.6041451  19.2584629  24.4999390  44.5874100  18.9180088
  62.0027008  41.7461548  33.6463394  62.4871216  42.4710579  34.0414124
  61.1941605  42.1452789  33.3251038  21.1775856  18.7299404   5.1923561
  21.9463310  18.1603737   5.2215910  20.9527264  18.7812824   4.2633600
   7.9300079  24.3360195  -0.2545728   7.9622025  25.2913551  -0.2042888
   8.3706417  24.0392799   0.5416806   5.5124707  45.7852859  17.7148457
   5.0771570  45.7446785  16.8633270   6.4408536  45.6649323  17.5152130
  30.8477974   7.3792672  24.8920250  30.7590141   8.0527267  25.5664158
  30.1513710   6.7521062  25.0866852   6.7757359  18.5293980  80.4287338
   7.3802943  18.7133675  81.1476898   6.2242556  17.8185291  80.7554932
  78.2267532  31.6081505  74.4753265  77.4709702  31.4435139  75.0391617
  77.9140091  31.4119034  73.5922012  33.7456055  34.8490639  67.4106140
  33.3426781  35.1122437  68.2380295  34.5748138  35.3265724  67.3854523
  42.5382462  31.0336208  76.8893356  42.4918137  31.7306805  76.2349777
  42.4193153  30.2266312  76.3884811  85.5733871  68.0904846  44.4886436
  86.0573578  67.3712082  44.8943977  84.7294769  67.7068481  44.2501411
  57.1204491  36.2759705  41.3256760  56.7308960  37.1268158  41.1243172
  57.8501587  36.4791107  41.9109001  75.1454849  35.7352829   3.5214593
  74.8776627  36.5104065   4.0151086  74.3729630  35.1701012   3.5253785
  28.4966316  27.5744724  69.9587784  29.2787418  27.7602386  69.4391403
  28.5475922  26.6362095  70.1412506   9.1124563  48.5217323  78.7662735
   9.7023954  49.2754478  78.7554092   8.3119478  48.8500214  79.1757126
  43.8360291  23.9876556  63.0378342  43.4922371  24.3285313  63.8635712
  43.0578842  23.7399483  62.5384712  12.9348164   7.6001086  76.7113647
  12.6847754   7.1273308  75.9175110  12.1619015   7.5495048  77.2737427
  41.3324585   2.6200550  38.0444374  40.5345612   2.7100961  37.5233994
  41.7423248   1.8188673  37.7183380  79.4773636  34.6302948  49.4953537
  80.0877380  34.0311165  49.0656319  78.6481247  34.1526680  49.5169907
  66.3885345  38.7830315  82.5041580  66.5661316  37.8488464  82.3946457
  65.4863434  38.8196793  82.8218689  63.8542137  44.5470085  21.9604034
  64.7072983  44.4311104  22.3787804  63.5316162  43.6562691  21.8234653
  80.6499634  37.4361496   0.6192489  80.3716354  37.8827667  -0.1803104
  80.1428299  36.6243935   0.6290902  38.4011688  69.8380737   2.2079957
  39.2810135  70.1121902   1.9492260  38.4959221  68.9134369   2.4366629
  69.0913467  44.9612923  39.8895378  69.9029312  44.4579735  39.9546318
  69.1530304  45.6072502  40.5932159  10.2754860  70.8146057  39.9520111
  10.1572256  71.7256393  40.2208328  10.3370123  70.8525772  38.9975433
   8.9665308  63.8977814  30.8552170   8.4478817  63.3149872  30.3006134
   9.8683681  63.5984650  30.7397537  83.1376266  51.4426155  43.8220062
  83.3621445  52.1936378  43.2726517  82.9157562  50.7491531  43.2006264
   9.0749235   3.0210652   8.5044737   8.6430340   2.2929735   8.9512234
  10.0097694   2.8594482   8.6316538  42.5562744  14.2373505  61.3952637
  42.6965294  14.0870361  62.3301239  41.7295723  13.7948666  61.2029076
  17.0241489   6.8467116  56.1020889  16.1263084   7.1117473  56.3017693
  17.0510311   5.9135237  56.3134384  37.9021111  20.7832375   0.1298065
  37.4671555  21.0614433  -0.6761999  38.0635185  21.5966301   0.6078996
  11.9189529   9.8265753   4.4065576  10.9700680   9.8093433   4.5312681
  12.2344561   9.0453463   4.8608370  44.7528648  12.1525211  70.6068497
  44.8565559  12.7125177  69.8375092  43.8057137  12.0819941  70.7258530
  48.4380569   8.2961016  70.4417572  48.6648598   7.9852028  71.3181915
  47.8187981   7.6460433  70.1098251  73.3194122  19.2069225  40.6929169
  73.0088348  18.5165157  40.1071625  72.6711655  19.2335148  41.3966866
  86.7389069  57.9792976  42.5966415  87.1321259  58.8411713  42.4595833
  85.8096848  58.1598320  42.7387199  36.3434105  49.6622849  73.6639481
  35.8989487  48.8285789  73.8176346  35.6677399  50.3243942  73.8099442
  40.5610619  15.2375784   4.4107885  39.9828186  15.9995623   4.4461293
  41.0711212  15.3608999   3.6102505  58.6266022  22.4210300  12.4356232
  59.3475227  22.2521915  11.8289909  57.9048500  22.7076874  11.8760386
  73.7828217  63.6035461  14.0964622  74.1183167  63.9462395  13.2680674
  73.7175217  64.3712997  14.6643753  80.1616135   0.7563303  82.8049011
  79.8631363   0.1920674  83.5181732  79.7436981   1.6002630  82.9762268
  48.1340485  34.7148056  65.0039215  48.4278984  34.3264389  64.1798782
  48.7436714  34.3756790  65.6593475  74.2787094  49.4966774  14.8243647
  74.9365845  49.8005142  15.4497538  74.7855377  49.2027321  14.0674276
  69.7045364  44.0316048  29.4407387  68.8619385  43.5975304  29.5742931
  70.3547440  43.3503532  29.6120911  53.0744019  67.0564880  64.1809082
  53.9707069  66.8684006  64.4592819  52.6537819  66.1980667  64.1316299
  73.1830063  43.2605743  12.2469912  73.6204910  42.6305809  11.6743250
  72.7954407  42.7256508  12.9397287  37.1504860  47.0674324  46.2582092
  37.4191360  47.9543686  46.4977951  37.8899727  46.7195892  45.7598114
  75.9747849  28.6632309  27.6028976  75.0642471  28.3906746  27.7163162
  75.9690247  29.1914825  26.8046818   4.7983136  30.1827526  25.8854065
   4.6328759  30.6498394  26.7043648   5.5912757  29.6743507  26.0556145
  33.5812225  50.9252510  46.0804062  33.8118935  50.4024048  45.3125191
  33.7805214  51.8260956  45.8254662  26.4272346  12.7218189  74.5128250
  25.9436913  13.4839058  74.8316422  27.3480320  12.9639082  74.6116028
  27.6818047   1.1914067  59.2203407  27.9801540   0.5245436  58.6018639
  27.0244713   0.7456254  59.7545891  51.9400444   9.3988419   5.5776858
  51.5383949   9.3963537   6.4465384  51.2163696   9.5861559   4.9798217
  77.3195190  29.4177837  61.3366013  76.6875534  30.0960369  61.5749855
  77.1762314  29.2750893  60.4010048  23.5859795  34.9279480  51.8481445
  23.2135105  34.4788589  52.6069717  23.3213692  34.3931885  51.0996513
  47.6350327  51.7479286  31.3875237  46.8201180  51.3251648  31.1165695
  47.4359093  52.1247177  32.2446213  66.7918015   7.3360896  44.5856361
  67.0422821   6.4409738  44.8142395  67.5307007   7.6688738  44.0762062
  65.1761017  25.3790607  76.2241592  65.5057068  25.4602909  77.1191483
  64.2665100  25.6725845  76.2763443  35.3868713  58.8014221  39.1278801
  35.8078651  59.5403023  38.6885033  34.7959061  59.2056389  39.7631721
  65.5682373  40.6192741  35.4705276  64.7789001  40.6013832  36.0116844
  66.1615219  39.9972839  35.8916893  71.8768082  13.8238220   1.5299983
  72.2854996  13.9705372   0.6769575  72.0769196  14.6147280   2.0306547
  79.2087173  28.7046089   1.4239131  78.8910217  29.6011734   1.5310434
  80.0532074  28.6943073   1.8744251  69.6394424  36.2061653  52.8707504
  69.2734070  35.3358231  53.0280952  69.1636658  36.5315170  52.1065445
   3.3411245   2.3055332  56.0915718   3.2210426   2.9713082  56.7687378
   2.5017309   1.8469304  56.0550499  47.2568626  32.1698875   9.9372740
  47.9525948  31.9991741  10.5721340  46.7179298  31.3790035   9.9540958
  53.3898392   4.2443061  40.8649940  52.6812172   4.8821144  40.9503632
  53.5792236   3.9749660  41.7637825  60.9737206   1.3800317  67.8749313
  61.3226852   1.6366549  67.0213470  60.0568542   1.6539218  67.8510208
   7.5769095  59.7559700  68.0147705   7.2485676  60.1001740  67.1841354
   7.0476084  60.1937523  68.6814194  26.4534264   1.7625440  16.4724121
  26.7038383   0.8430362  16.5620308  25.5297012   1.7359953  16.2229023
   2.0721879  61.8846550  69.3361359   2.4694276  61.3757973  70.0428848
   2.8064911  62.1217461  68.7697296  58.7390213  68.8432083  49.7534676
  59.2932129  69.2448502  49.0842972  59.3031693  68.1940384  50.1736488
  71.8666458  59.1095695  14.1373482  71.0976791  58.9230614  14.6759911
  72.2239456  59.9191971  14.5021439   5.4074154  61.4822769  29.5900040
   5.1657138  61.2825127  30.4943848   6.1368742  60.8920021  29.4010715
   6.4908018  16.3205204  69.8528366   6.0142283  15.7272425  70.4334641
   6.8453932  16.9922123  70.4353485  86.5928345  26.7681198  38.7164726
  86.1668167  26.5419502  39.5432701  85.8840103  27.0979099  38.1641731
  70.4180756  67.4305649   3.8724639  70.0192566  66.6181488   4.1841764
  69.7841339  68.1109543   4.0992074  13.5574484  27.3082008  87.6870270
  13.1824961  26.5150852  87.3041306  14.4854717  27.2702694  87.4555817
  14.2104216  16.5160408   6.6166291  14.9256458  16.0534706   7.0533385
  14.5742130  17.3762360   6.4069877  59.1916389  51.0562973  41.2476082
  58.9749565  50.3526611  41.8593063  60.1345177  50.9696999  41.1071930
  19.8698578  41.3050842  79.9495697  19.3779850  41.6015892  79.1838150
  20.3540306  42.0789375  80.2375946   1.1891938  58.8127937  36.7367935
   1.2563025  59.6886635  37.1170349   2.0515757  58.4228477  36.8798752
   6.6404333  52.4873428   6.6836991   5.8606558  52.0156975   6.9764957
   7.2755914  51.7995491   6.4843354  59.0741463   5.0127196  16.5071869
  59.7975388   4.3863602  16.4825077  59.4288864   5.7700887  16.9727879
  57.2198448  69.1059036  64.7204437  56.7936592  69.7682724  65.2643814
  58.1323586  69.1095734  65.0094757  23.2143536  26.2524681  27.7498779
  23.2219238  25.5809784  28.4319897  22.5412788  25.9613724  27.1346817
  73.9237137  37.2754898  35.1358604  74.8349838  37.3620415  34.8560104
  73.9743423  36.8328476  35.9830551  78.9896393  10.5949678  66.1887512
  79.8402634  10.6917820  66.6168900  78.3917236  10.3528690  66.8959503
  69.7789612   5.4214230  18.0094852  69.9504547   5.1340036  17.1127071
  69.8317032   6.3763189  17.9691734  29.0876312  63.0027466  29.9781666
  28.7224846  63.6966972  29.4292316  28.5304718  62.2435417  29.8066597
  14.4535589   7.8023610  56.3000603  14.4129324   8.6898127  55.9436722
  13.9376421   7.2753630  55.6898689  24.4099541  53.7369957  52.9993172
  24.9854641  53.6648712  52.2378578  24.1220818  52.8397942  53.1678085
  43.7796516   0.3309968   4.1949105  44.6172180   0.2689052   3.7357166
  43.9355354  -0.0976147   5.0364704  56.1333427  15.6620283   2.2776933
  55.2217827  15.7841930   2.5429525  56.4446793  14.9356880   2.8178172
  24.8651867  66.7363663  27.7498016  25.5153275  67.4388504  27.7418575
  24.8685913  66.3967361  26.8548851  58.6507378  61.1249657  29.0501194
  59.0968513  60.8597031  28.2458515  58.1208153  61.8792992  28.7924423
  64.4007034  67.9442520  78.9513397  64.0181503  68.8143311  78.8380051
  65.1036224  68.0727692  79.5882187  71.3059616  57.1526718  56.7237549
  72.1232986  56.6603050  56.7997169  71.3314362  57.7729912  57.4523087
  44.7389336  57.6741600  12.6658039  44.5415115  58.6102028  12.6329889
  45.1381149  57.4836655  11.8169222  72.4876480  51.7804184  22.5101852
  72.1409149  51.6424561  21.6287231  71.7703476  52.1978683  22.9870987
   1.7217307   4.3805852  57.6121521   1.6623821   4.6466198  58.5297203
   0.8320119   4.1124721  57.3824844  20.5796528  57.9011612  42.1551704
  20.0081921  57.4223480  41.5548363  20.3850346  57.5321159  43.0166588
  83.3083344   7.1139970   9.7920065  82.8567200   7.7047734   9.1892958
  82.6043396   6.6710892  10.2657642  50.5642624  18.5701599  57.9086571
  50.1151352  18.1351509  57.1838951  49.9236221  19.1961174  58.2462769
  57.4293289   8.1338100  23.2223053  56.8457603   8.7310553  23.6902523
  56.9276962   7.3225222  23.1422520  15.0303164  32.3972473  84.9839096
  14.3166666  31.7596760  85.0048828  15.6347103  32.1027298  85.6652374
   4.6012230  31.4981518  69.2028885   4.2230515  32.2944641  69.5758591
   5.5469036  31.6408176  69.2424698  29.9871731  65.4834900  22.4336739
  30.4194450  66.3359222  22.4858246  30.7056236  64.8511810  22.4179249
  15.3997879  61.3257294  30.0724411  15.0983419  61.0446129  30.9363480
  15.2953501  62.2771835  30.0802269  66.6173172   5.1607933  86.9637527
  66.2166061   4.9664960  86.1164551  67.1730499   5.9220819  86.7969360
  52.2450447  14.3208857  29.0235062  52.7287254  15.0107288  29.4778214
  51.6519394  13.9676933  29.6866169  53.4343224  35.5962677   4.1929297
  52.6401787  35.4691582   3.6738844  53.2911644  35.0732803   4.9817386
   4.0960960  35.7931137  52.5555458   4.0855818  36.3388481  51.7692261
   3.2047000  35.4505920  52.6213036  62.5337524  10.7582064  63.7865448
  62.3659439  11.6014318  64.2073059  63.3198814  10.4263477  64.2202530
  79.5308533   4.4765115  38.9741745  78.9730759   4.4217010  38.1982155
  80.3664246   4.8082786  38.6455650  75.7262497  28.1008358  43.9244499
  75.5410233  27.6318321  44.7380600  76.5233536  28.5971622  44.1102448
  19.2687016  59.6521530  44.3885651  19.9150486  59.8480988  43.7102814
  19.2984142  58.6997681  44.4797554  52.0785942  44.2113495   8.7608957
  52.4326515  43.6416245   8.0780420  51.2670097  43.7830620   9.0331631
  62.4787979  31.3051682  35.1906128  62.4003906  31.1255760  36.1275406
  63.0802155  32.0480194  35.1386414  75.8521805  63.6244698  21.3712234
  74.9861069  63.9867020  21.1843109  76.2606964  63.5245972  20.5113544
  81.7659988  47.5329056  33.3083878  81.9431686  46.6243019  33.0649147
  81.9539337  48.0344543  32.5150642  53.8455772   8.7956676  74.4697952
  54.3072929   9.6303272  74.5497589  54.0582199   8.4877644  73.5887680
  61.0802460  14.0435753  25.1230850  60.6704407  14.4026890  25.9100609
  60.3617058  13.6260052  24.6481457  34.4304619  53.5953255   4.5057864
  34.3036842  52.6903305   4.2209182  34.1628914  54.1229935   3.7533216
  44.0571327  62.2786713  28.3236847  43.9530602  61.7215767  27.5522938
  44.1940727  61.6651268  29.0455170  48.8636475  32.4543686  41.0258026
  47.9226379  32.6117973  41.1029053  49.2592545  33.3220100  41.1090202
  13.4477224   4.1186891  78.2442551  13.7944870   4.8661652  78.7313538
  12.5054951   4.1400809  78.4115295  50.3171158  24.9105244  35.7232208
  50.9312172  25.4520130  35.2273369  50.1696548  24.1453342  35.1673698
  77.3087387  30.2435417  32.8677635  77.4895706  30.7356434  33.6686172
  77.0538330  30.9098797  32.2296028  77.6903458  16.1852341  48.9681931
  78.4570618  16.3999805  48.4369011  77.8161392  15.2677698  49.2104073
  65.3919296  63.5064430  45.0010414  64.6615524  62.9253769  45.2135315
  65.0107651  64.3843994  45.0128212  26.8307095  40.0293808   9.2793150
  26.5734978  39.8805962   8.3694048  27.7346478  40.3395119   9.2250395
  26.6612167  40.9245300  63.3726006  26.2459488  40.7697563  62.5241737
  27.0161514  41.8110924  63.3073616  28.3655529  50.2328072  56.2283173
  28.5842304  50.7071190  57.0304642  27.6468010  50.7334938  55.8423920
  80.5301208  23.7319431  43.8916626  80.0144119  24.3774185  43.4083061
  80.6020966  22.9872036  43.2946587  53.2267342   8.3396950  11.6193199
  53.1836243   7.3930888  11.7546358  53.3901443   8.6990948  12.4913063
  20.1157246  62.1146965  73.0707016  21.0318947  62.2717361  72.8422165
  19.9406281  62.7220993  73.7894745  74.5741348  22.1662540  16.0395527
  73.9064941  21.9579468  16.6930790  74.1799469  21.9122543  15.2050867
  64.0444260  58.8050117   0.4855560  63.3633080  59.1689110   1.0511407
  64.0342636  57.8661995   0.6720013  54.3180313  33.3132210  87.8857880
  54.0658684  33.7309761  88.7092667  53.5645447  32.7713585  87.6515427
  76.2202759  29.5148296  38.8883553  75.8987427  29.0938950  39.6856384
  76.2484055  28.8107986  38.2404480  75.3090363  11.6170330  32.0441437
  74.8193436  12.1993790  32.6249237  74.7113495  11.4468317  31.3161106
  41.6160278  59.3405571  85.4968414  42.1438026  58.9289780  84.8125229
  42.2407722  59.8637810  85.9990005  65.3147812  71.4940796  21.2370415
  65.9532394  72.2072372  21.2412033  65.7597122  70.7716980  21.6802616
  58.7956543  46.7221870  12.5529194  58.6535378  46.7810326  11.6081591
  58.9502144  47.6257019  12.8286123  50.8396568  30.0607433  75.9854507
  50.3567657  30.8836155  75.9084320  51.4686089  30.2171593  76.6898575
   6.9499683  38.8334770   8.9738359   6.4110193  38.4618149   8.2755299
   7.2675648  38.0735168   9.4615068  23.5785866  58.4271584  69.1591110
  24.1307125  58.8128510  68.4789429  22.8759403  59.0644341  69.2871704
  68.6187210   2.4912686  82.0580750  68.3751221   2.8867795  81.2211380
  69.5111542   2.7985001  82.2174377  22.5328999  34.6858063  79.4305191
  23.0700436  35.4776154  79.4031830  22.0038795  34.7276306  78.6338959
  32.8222542   3.7780190  45.3366776  32.5106735   4.4027209  44.6817780
  33.7676125   3.7325683  45.1936226  60.4183044  37.1222496  66.9534531
  60.5828514  36.1796379  66.9787140  61.2271690  37.5154457  67.2811279
   8.6038828  19.0260811  78.3610001   7.8929629  18.8905239  78.9874573
   8.9031754  19.9198055  78.5280762   9.9581919  51.6795883   6.2842369
  10.6784286  51.0984802   6.0396843   9.4957914  51.8466339   5.4629488
   9.3101215   2.6872697  35.6192703   8.8555899   1.8467221  35.6750526
   8.7451143   3.2289901  35.0683289   5.2020125  29.8151093  12.8044147
   6.1544232  29.7424927  12.7421904   4.9225183  28.9817543  13.1834068
   6.7991080  33.1519585  59.0948334   7.4105530  33.3286819  59.8097725
   6.8244243  33.9432983  58.5569000  34.5232849  31.6742554  76.5227356
  35.4257698  31.5082283  76.7951126  34.2159119  30.8324680  76.1863556
  72.6827011  10.3832531  80.5773544  71.7784195  10.3869467  80.2635422
  72.7142715   9.6642952  81.2084961  57.1213417  27.8016624  23.2804756
  57.5462875  27.0602131  23.7116394  57.6080208  27.9150448  22.4640675
   6.5031304  35.6643753  43.9382172   6.8590732  34.8452835  43.5937996
   6.0159130  35.4038696  44.7198753   7.5952926  16.8075695   3.4429495
   7.9091372  17.6972847   3.2812672   8.2135029  16.4473686   4.0787973
  36.6428146  57.8752899  19.6645012  36.5445290  58.0550499  20.5995197
  35.8216286  58.1758423  19.2752037  38.2690163  65.8540344  13.9566593
  38.7581215  65.4401627  14.6678019  37.3543549  65.6370773  14.1370926
  13.4082479  31.2608337  67.1499710  13.4775553  31.5975113  68.0433197
  13.4836798  30.3113842  67.2453079  61.6497688   4.6268225  68.7751923
  61.8240471   5.4109349  69.2957916  61.8698082   4.8806343  67.8788681
  29.7003632  26.0843296  65.3445892  30.2564583  26.8126831  65.0680237
  30.0330067  25.3305683  64.8573303  82.4512482  52.6186485  47.7912674
  83.3021851  52.9158974  47.4691315  81.9424286  53.4220581  47.9002190
  75.7455444   2.8717868  46.9537430  76.3829956   3.4556055  47.3648949
  74.9978714   3.4354408  46.7549629  54.9365540  47.8787155  12.0333614
  55.0072441  48.3515968  11.2041330  55.1051826  48.5420799  12.7025023
  29.3855000  24.2051353  88.4169159  30.0404949  23.6985760  88.8971329
  28.7872982  23.5476284  88.0618515  68.3876343  57.2622261  28.5852280
  68.3153305  56.4112930  29.0175648  68.5873184  57.0512886  27.6731644
  73.7587891  52.1392479  14.5514851  73.8113174  51.1835365  14.5423689
  73.1004715  52.3492699  13.8891077  12.6461849  18.5176392  72.2001648
  11.9503469  17.9145966  71.9386673  12.3052225  18.9522667  72.9818802
  51.9848595  67.0730820  60.7502251  51.8451385  67.9401703  61.1308403
  52.8510246  66.8112335  61.0623589  23.8715591  61.0815392  27.5158424
  24.1101818  60.1554756  27.5570297  24.6674652  61.5208664  27.2162457
   7.6531668  64.2868805  38.5299530   7.8085818  64.6144638  37.6440773
   6.7943425  63.8668518  38.4827614  33.7572594  68.1647186  49.4646454
  33.3965034  67.6700363  48.7288628  33.1817818  67.9541245  50.1999741
   8.5428038  49.3756294  63.2802582   8.5327578  49.2615623  64.2305832
   9.4549417  49.2272072  63.0308418  36.3633842   3.5453620  16.3008347
  35.4850311   3.5253510  16.6807384  36.6904182   2.6519780  16.4064159
  20.3742428  57.7911568  38.4727707  21.0786018  57.9014664  39.1114769
  20.5023727  58.5058823  37.8490868  21.3621788   7.4005485  60.9435692
  21.6525497   6.8720064  61.6869125  21.5408134   6.8550978  60.1775360
  32.2877808  10.2296219  38.3043442  33.2056503   9.9831085  38.1904221
  32.3210144  11.0932245  38.7158279   8.9098673  55.2940292  49.8186378
   8.1020374  55.6084518  49.4127045   8.6323433  54.5607262  50.3677063
  10.6881895   5.5788765  27.3977585  10.1069746   6.2790732  27.6946526
  10.7699509   5.7192979  26.4544506  66.1607895  23.1195183  63.8107185
  66.0905685  22.4329472  63.1474533  65.5986938  23.8235016  63.4871712
  70.6660461  59.7229767  20.3360481  69.9714203  59.9067154  20.9684792
  70.2329254  59.7712288  19.4838104  63.0470009  32.1617546  58.1106987
  63.4287796  31.2900333  58.0078430  62.1016922  32.0141869  58.0815315
  28.7034016  71.2895508  43.9180984  29.0698032  72.1432953  43.6876640
  28.0600109  71.1119537  43.2319946  71.0436859  60.5098114  81.2120132
  70.8157883  60.5237312  82.1415787  71.9320984  60.1542892  81.1885071
  44.3710785  20.7373314  55.0491676  43.7332764  20.7868366  55.7612000
  45.1816139  20.4549313  55.4728546   7.6659265  63.0754128  26.0876255
   7.6606636  62.1327972  25.9212475   7.2044773  63.4533463  25.3389835
   8.7228308  63.7551918  41.2238579   8.2144632  64.1153107  40.4971428
   8.2884474  64.0891800  42.0087090  60.2916451  37.8019676  35.3831711
  61.2334595  37.9320793  35.4940109  60.1691208  37.7334251  34.4363213
  76.8895035  38.4615211  80.5103760  76.9333878  37.6412506  81.0017548
  76.1979599  38.3171158  79.8645096   7.2685113  46.2058220  44.1387367
   6.3166695  46.2278404  44.2374535   7.4899349  45.2748032  44.1590118
  52.8856430  31.1900177  77.4381180  53.7925682  31.0472736  77.1672974
  52.9429474  31.3858719  78.3733139  62.3038673  67.6040878  27.5696049
  61.4964371  67.3868866  28.0355530  62.4644127  68.5230179  27.7841339
  76.7170334   6.9287114  55.1837807  76.1293716   6.2722254  54.8097382
  76.1591797   7.4466825  55.7640686  64.5507202  20.9239273  62.6516457
  63.6641197  21.2016678  62.4213638  64.6049194  20.0183487  62.3463249
  53.5677376  19.2998924   3.7790349  53.4655113  19.2042923   2.8321230
  53.7102547  18.4079456   4.0958152  21.5388279  22.8776798  81.4223938
  21.3025837  23.7532387  81.1160965  22.2852859  22.6268749  80.8782196
  64.4020538  70.8411331  25.0589600  65.1357956  71.3479080  25.4068623
  63.6552238  71.0991440  25.5992451  69.9543457  22.7554722   6.4491878
  69.2709122  23.2290573   6.9233866  69.4784317  22.2214756   5.8131175
  83.1849670  56.1839371  11.0922174  82.8179169  56.3708458  10.2281723
  82.5801773  56.6022682  11.7049608  55.3435287  55.6879158  69.4954758
  54.7262383  55.2440338  68.9139633  54.9889030  56.5718040  69.5914688
  81.8583984  50.2454567  32.2106514  81.3747253  50.2290764  33.0364952
  82.6299057  50.7810173  32.3955154  50.3532562   9.7940636  86.9974899
  50.2465553   8.8599854  86.8176422  51.1658211   9.8498669  87.5003357
  60.8795662  66.2701569  56.4091644  61.2586746  67.0784683  56.0639915
  61.6352043  65.7425613  56.6677933  62.3972702  70.2418442  29.2855740
  63.0138741  70.6645432  29.8833675  61.5452538  70.6088562  29.5213814
  85.7946777  37.2564850  17.6699448  86.7230301  37.2350922  17.9021950
  85.6752090  36.5036316  17.0910053  29.5865936   7.5560784  73.1601105
  29.0168056   6.8278503  73.4076080  29.3325653   8.2688818  73.7462921
  36.1811562   6.8419223  12.9498806  35.7238083   7.4983120  13.4754429
  36.7095413   7.3522048  12.3361597  51.4170685  27.3715782  31.4006023
  50.5837975  27.8374844  31.4700336  51.3224831  26.8267746  30.6192741
  60.0515251   9.7433729  81.0817871  60.6118317  10.5181437  81.1267166
  59.3535881   9.9155560  81.7138214  84.0139465  16.3081532  73.3068237
  84.7950134  16.8517399  73.4101639  84.2729111  15.4503107  73.6433868
  22.1960163  53.0673332  59.2210922  21.6016903  53.3334465  58.5195274
  22.9571114  53.6389389  59.1199379  73.3358154  20.2238674  50.6036835
  72.9357529  21.0210323  50.2562561  74.1144485  20.5297737  51.0688553
  73.0886459  61.1648521  70.8475113  72.8181458  60.6487999  70.0880737
  72.5821686  60.8038445  71.5751038  66.9521942  44.7369347  79.7844772
  66.5998535  45.3638306  79.1527405  67.3650208  45.2799492  80.4560013
   4.8524108  16.0070610  49.9736404   4.7126980  15.7153826  49.0727310
   4.8328543  16.9626541  49.9217644  61.3865204  50.3092194  77.5188675
  61.5437050  50.0010567  78.4113693  62.0879745  49.9132690  77.0017395
  78.0342484  63.1376076  62.5483704  77.4969177  63.8765984  62.2630501
  77.6408310  62.3765144  62.1215286  74.9204330  27.2436695  12.8208990
  75.7902374  27.6326523  12.7295036  75.0280533  26.5718193  13.4941502
  61.3663254  15.8727303  58.9329643  60.6798553  15.5207996  58.3662758
  61.0870628  16.7691669  59.1191025  17.5285892   1.6045388   2.6519184
  17.0027351   2.1850922   2.1017663  17.9454117   2.1880367   3.2859702
  72.8791504  27.9899235  68.4901047  71.9648666  27.8625565  68.2369232
  72.9779205  27.4811802  69.2948761  48.7817116  34.1199226  76.3685455
  48.3658104  33.2587128  76.4082870  49.7184982  33.9311905  76.3134079
  59.4842110  67.8781967  14.3980894  60.0416489  68.4917068  14.8767290
  58.6324539  67.9412537  14.8302565  28.5294666  24.0470772  15.1875515
  28.0096226  23.6691017  15.8968658  28.4465637  23.4197884  14.4693127
  10.4468756  18.8738956   6.6590958  10.7936220  18.4087410   7.4204297
   9.6210394  19.2498932   6.9638138  51.3061867  39.2404518  14.6270866
  51.0420456  39.8967552  15.2718534  51.1216850  39.6481476  13.7809353
  15.7401905  48.0924911  71.4570236  16.5959129  47.8304634  71.7966003
  15.9343863  48.5219727  70.6239166  59.6279716  69.9971924  65.9557037
  60.3561020  69.4205399  66.1870728  59.1309586  70.0931473  66.7681046
  15.1461067  13.3308601   3.3955307  14.5193977  14.0353432   3.5603693
  14.7300043  12.5498800   3.7604423  21.2896881   1.4148642  74.8682938
  21.4298744   2.1582088  75.4548264  22.0168152   0.8212952  75.0558929
   9.2062550  47.8789978  38.0052147   8.6344481  47.1147385  37.9332619
   8.9348927  48.4496918  37.2862549   1.6615123  17.7734203  60.3343544
   1.8991220  18.4390621  60.9798737   1.2143809  17.0962582  60.8420486
  43.5148125  42.8491402  17.5074196  44.2775688  43.4265404  17.5397644
  43.8033180  42.1001854  16.9858265  72.9612656  20.1279392  34.5283661
  72.4024429  19.5446339  35.0418854  73.7888641  20.1510353  35.0087662
  23.1446533  46.3134270  56.5846291  23.7086926  46.0028229  55.8763809
  23.2913818  45.6919746  57.2977180  34.4877129  70.6951447  49.9936333
  33.9587021  69.9083099  50.1250229  34.3176689  71.2302856  50.7688370
  66.6233368  57.2351112  88.5287018  66.3893890  57.1039543  89.4475555
  67.0993423  58.0655060  88.5189209   5.1074424  58.1789017  59.1867905
   5.8917451  58.7064438  59.3377914   4.6547809  58.1758881  60.0301857
  26.7740383  35.5486755   5.3426161  26.0394001  35.9907188   5.7682176
  27.1913185  36.2304802   4.8160696   7.9306026  10.3062458  68.6686478
   7.7111802  11.2335291  68.7593765   8.8872147  10.2830029  68.6928329
  45.4457474  50.7466698  36.8470039  46.2945061  50.4923706  36.4848289
  44.8956032  49.9713936  36.7350998  64.8246460  38.9660645  30.3444576
  65.2660980  39.2814980  29.5558796  64.5824966  39.7619171  30.8179703
  71.4949265  36.5778503  34.3323250  72.3795624  36.6941490  34.6789169
  71.6266937  36.2168427  33.4556618  58.6855087  59.6537933  73.0931854
  58.2668877  59.5501137  73.9477310  58.5240364  58.8235245  72.6450653
  46.2297440  41.6038132  64.3068466  45.6403160  42.3394051  64.4733200
  45.6971779  40.8268776  64.4770660  52.2522316  64.8051376  83.0562744
  51.3341026  64.7589188  83.3229980  52.4775162  63.9062653  82.8164597
  40.5096054  40.8507156  86.5731506  40.8811493  41.3953896  85.8792343
  39.5629501  40.9587173  86.4814453  73.9770432  53.3513947  56.7127686
  73.1989212  52.9519081  56.3239594  73.6504593  54.1403046  57.1454315
  15.6402054   6.0482030  73.9661255  16.3953476   5.7484121  73.4600449
  15.0928240   6.5083156  73.3298035   5.4310007  61.8344917  10.9714403
   6.3259974  61.4960175  10.9459734   4.9540281  61.2982712  10.3380413
  13.3807383  36.4046974  79.1916199  14.2864485  36.1811867  78.9772263
  12.8543015  35.8163719  78.6503525  34.3286285  70.7778320  38.4666100
  34.2235603  70.5544510  37.5417900  34.6073036  71.6935501  38.4616623
  25.1115570  40.9710007  61.1995811  25.2154427  41.6625328  60.5459595
  24.6644039  40.2652016  60.7325325  56.5017052  31.5942440  71.0089035
  56.7376137  30.6665897  71.0147934  57.0734596  31.9825821  70.3466949
  84.0431366  23.2900715  16.6695843  84.9830322  23.3863201  16.5161114
  83.6525955  24.0586681  16.2536869  46.4690933   4.2367473  37.1480446
  45.7642822   3.8959055  36.5973167  47.2644157   4.0938320  36.6349449
   2.7777669  30.5272980  83.0202255   3.3059907  30.1013699  82.3451004
   2.4487770  29.8064232  83.5571899  84.3222198  23.2035465  81.2123260
  84.4350586  24.1485195  81.3149109  84.8236313  22.9863815  80.4264145
  69.3062057  48.8204575  23.2964783  68.9845886  49.6434860  23.6644688
  68.5174179  48.2970581  23.1546993  64.0022430  47.5596466   6.9189816
  64.8003540  47.9743805   7.2464576  63.9232674  47.8708572   6.0172367
  70.1807251  65.1747360  50.0130844  69.7223282  65.8791809  50.4711876
  69.5484085  64.4567108  49.9840508  71.7599335  12.8517256  43.7451553
  71.1192017  13.3422203  44.2600403  71.7504883  13.2737751  42.8860741
  40.5482140  23.3161736  76.3545914  39.6698036  23.6127205  76.5926819
  40.7001114  22.5494232  76.9070892  73.7555847  63.0569954  38.5324097
  73.2339783  62.2567444  38.5937080  73.1127701  63.7514191  38.3881607
  76.8632355  10.2384872  28.3163528  77.7520599  10.5397434  28.1280174
  76.3827896  11.0353470  28.5408955  54.6169548  36.2618599  59.0063515
  55.3816757  35.7823219  59.3249016  54.8999100  36.6372871  58.1725502
  80.3176880  55.3385239  29.9974670  80.2657623  55.8853874  30.7813511
  80.4587936  54.4529190  30.3321724  62.4174728  11.6070614  61.2928123
  62.6623878  12.5253820  61.4065514  62.4573288  11.2375278  62.1749077
  49.0196838  51.3501015  38.3473930  49.9764061  51.3350220  38.3211861
  48.7597046  50.4579468  38.1178360  45.8037109  49.3950691  30.5678482
  45.1283569  50.0732346  30.5826454  46.1406059  49.4120560  29.6720543
   5.3604636  49.9631767  25.6686745   5.9838195  49.5834503  26.2879238
   5.8912716  50.5364494  25.1156540  63.5879326  28.8040638  71.8150635
  63.4678841  29.6893597  71.4714432  63.1681709  28.2370701  71.1681061
  13.8130293  41.8992767  36.0576515  12.9561176  41.6783409  36.4225082
  13.7755432  41.5885162  35.1530762   4.5896482  38.6634674  53.9191933
   3.6381128  38.5617981  53.8973618   4.8248539  38.9092293  53.0244789
  76.1221924  57.1569939  58.2815323  76.2903214  57.9505043  57.7732925
  76.3130951  57.4067116  59.1856537  51.0191040  61.7838593  85.6666489
  50.6653175  62.3605118  84.9894943  51.5205879  62.3652191  86.2382889
  25.2136078  47.3540497  73.9524994  24.7667484  47.9903145  74.5108109
  24.6137466  47.2155952  73.2195435   6.9677482  51.7785683  74.4271469
   7.2456870  51.7290916  75.3417664   6.2810307  52.4453621  74.4212341
  56.6743622  66.3759232  74.6504059  55.8696289  66.6131058  74.1895599
  57.3576050  66.4290314  73.9821320   4.8899031   7.8855824   7.9015832
   4.3307133   8.6594267   7.9701676   5.5860233   8.0356569   8.5412130
  39.4162979   7.9143682  37.8818817  40.0222015   8.0801544  37.1596451
  39.5972977   8.6123657  38.5113792  83.9641876  36.6446495  49.2377815
  83.6007385  36.9190292  48.3958511  84.9106369  36.7424355  49.1333809
   2.5861735  47.7530594  64.1491165   2.3643541  48.6725311  64.0021439
   1.7558427  47.2874374  64.0492249  23.0834579  12.7339106  68.3291779
  22.1329918  12.6692295  68.4222412  23.3895111  11.8275337  68.3614883
  39.6148758   7.1822438  66.4867935  39.2788429   7.9785366  66.8981705
  39.5177498   7.3386202  65.5474625  61.0840454  16.3461361   2.6861241
  61.3660240  16.1452179   3.5785084  60.5598831  17.1422195   2.7740815
  76.1373825  64.7863998  33.1784821  76.7323685  65.2532120  33.7652550
  75.5134354  65.4526749  32.8903809  56.9308052  60.8931961  46.6537399
  57.7388573  60.6279144  46.2145233  57.1924934  61.0533295  47.5604401
  26.6725960  22.4599133  75.3936081  26.5297585  21.8495541  74.6702194
  25.9122295  22.3393383  75.9624100  52.5378189  26.3036156  51.1852684
  51.7436447  26.0963039  51.6777458  52.9999008  25.4684277  51.1133232
   1.0133960   2.3419647  13.6068859   0.5471890   2.5512011  12.7975016
   0.4660515   1.6838410  14.0352774  53.0101433  41.9836617  38.8305511
  52.8082962  42.8652496  38.5170364  52.1953125  41.4952965  38.7131577
   5.6778574   3.0609889  21.9547939   6.0610099   3.9140170  21.7504196
   6.2496986   2.4304793  21.5169735  49.7449036  58.0102844   0.6244337
  48.9556084  58.2119179   0.1218523  49.4511108  57.3928680   1.2942945
   4.8911142  22.8128967  28.5638714   5.5730801  22.1551533  28.4277534
   4.5982566  22.6715050  29.4641342   7.5693860  51.2740555  47.4951897
   6.6858349  51.4591980  47.8134537   7.5509205  50.3454323  47.2637825
  35.6494751  31.9544525  79.8383331  35.2250595  32.8004227  79.9812927
  35.2892876  31.3875027  80.5202866  18.6178265  53.8920364   6.2190809
  18.7754745  54.8330688   6.1426444  18.8593445  53.5384140   5.3630133
  17.6808872  59.8875008  19.8535423  18.3397179  60.5183220  20.1437740
  17.2198658  59.6371956  20.6541920  48.4235764   9.3324995  49.7038231
  47.5360184   9.6614494  49.8461838  48.7520065   9.1414881  50.5823898
  64.4078140  53.8454819  35.0323334  64.3668900  52.9249916  34.7730026
  63.7326164  54.2729912  34.5054817  85.5651932  23.0394955  49.9837952
  85.1294708  22.2227745  49.7401886  84.9926300  23.7270889  49.6437683
  70.6685715   4.0872231  15.4995794  70.3400803   4.4963059  14.6989698
  71.4345703   4.6091981  15.7383547  17.9124813  60.4690170  33.1400490
  18.5209045  60.5676308  32.4077034  17.6559258  61.3644485  33.3605309
  20.9026966  58.7676964  76.5848846  21.6976280  58.3774948  76.2214890
  20.4601269  59.1563263  75.8303452  49.5550575  54.9770012  31.1683464
  49.3498116  54.2754135  31.7863083  49.7816849  55.7246399  31.7214375
  79.8354492  17.1399841  19.4703236  80.6151199  16.9050617  19.9734669
  79.1028595  16.8614788  20.0198517  61.8745308  34.0936699   9.3383856
  61.2538109  33.9520531  10.0531464  61.4304581  33.7489090   8.5636797
  37.5284767  35.3528137   8.9551544  37.4973602  35.5634804   9.8883667
  36.6630783  35.5954781   8.6258545  86.5161972  43.3889580  73.2732773
  85.9994965  43.9814110  73.8194046  85.9977951  43.2854576  72.4752960
  75.5272446  48.3942795  18.8531837  75.4671860  47.4552040  19.0285568
  76.2454224  48.4752769  18.2255745  74.1284790   8.9836111   5.7494593
  73.9309464   8.9005013   6.6823606  74.2569122   8.0833445   5.4507022
  26.5799541   3.1308756  42.5840111  27.1257191   2.7296987  41.9076767
  27.0740299   3.9011214  42.8647957  58.0764961   3.1400042  44.9687996
  57.5754128   3.9160547  44.7180138  58.7554970   3.0662827  44.2981606
  83.3866882  15.7522230  52.7417297  83.3259583  15.0406837  52.1043510
  82.8784714  15.4452467  53.4925385  73.2487335  48.2459526  50.3743744
  73.4419250  48.2889366  49.4378624  72.2928391  48.2280807  50.4211655
  63.7729073  49.6798210  65.5300064  63.1944389  49.0949707  65.0405579
  63.2040634  50.3940468  65.8172836  57.7435188  48.8955956  56.3510818
  58.6431580  49.2224655  56.3567467  57.2040329  49.6769409  56.4722862
  23.7152328   5.3344402  32.3669281  23.8542919   6.2783270  32.2896461
  22.9780521   5.1524363  31.7841148  19.9241314  65.1105194  43.5641365
  19.7028084  64.1867371  43.6819420  19.3911591  65.5692062  44.2135811
  19.7982693  65.4618759  79.8867035  20.0181427  66.0728302  80.5899963
  20.1191349  64.6148453  80.1962280  85.1524734  41.4015121  22.7997189
  84.6418610  40.6950874  23.1952858  84.6794739  42.1997108  23.0350418
  73.6422806  12.5188408  78.0603485  73.2812653  12.9867172  77.3073654
  72.9243469  11.9631996  78.3637772   6.0302892  21.2423267  67.8329926
   5.9449644  22.1581993  67.5681763   5.4805083  20.7618275  67.2140427
  51.2989349  70.9985046  76.8543167  51.9178886  71.3937149  77.4682617
  51.4564285  70.0572281  76.9280396  54.9903259   6.3399477  47.5420380
  54.9001808   7.2738314  47.7316895  55.7303505   6.2887406  46.9370804
  22.0654850  70.0354080  46.9043732  21.8511868  70.2555466  47.8109322
  21.8752823  69.0999603  46.8336830  84.1314697  66.4689178  68.2227936
  84.2757339  65.6639938  68.7203064  83.2315750  66.3959351  67.9048309
  47.7703552  48.4714775  23.2904911  48.0053024  47.5483017  23.3841610
  48.5058403  48.8588409  22.8158932   5.6474538  57.6807022  56.4263000
   6.5906730  57.8207092  56.3428307   5.4794312  57.7360153  57.3670120
  10.1587105  61.4887009  75.9348755   9.5319538  61.1170616  76.5555954
  10.9541636  61.6241226  76.4497986  85.5195312  67.6230316  25.1767387
  85.9569778  67.3015747  24.3883648  86.0920868  68.3177490  25.5019703
  47.5416946   7.1620278  43.0777931  47.4718323   7.9417171  42.5269432
  48.2176857   7.3815360  43.7189560  66.5042267  26.8393459  63.0232277
  67.2391357  26.7338734  63.6273842  66.1877823  27.7283249  63.1838799
  67.9400787  55.1532669  55.3014641  68.4333191  55.9214096  55.0135345
  67.7647095  54.6657295  54.4966125  38.8741035  47.6781693  34.7795334
  38.0820274  47.9760742  35.2268524  39.2850800  48.4813614  34.4598198
  28.5845165  13.9516878  75.3899384  29.4312859  13.6217508  75.0893478
  28.6472149  13.9373674  76.3449707  10.6927605  69.4770279  72.2456284
  10.8141804  68.9761047  71.4390564  11.3589144  69.1355896  72.8422012
  55.2412415  63.8886414  53.9631081  55.0470695  62.9788170  53.7378349
  55.1616783  64.3625717  53.1352844  59.5259590  19.6286736  40.4868202
  59.3843994  19.5607014  41.4310493  58.6601944  19.8239555  40.1282806
  72.3589096   2.7765682   2.3373618  72.4979858   1.8314912   2.3983548
  72.7699127   3.1305327   3.1260436  69.3800430  46.5419273  41.9697495
  69.8689270  46.0564690  42.6342468  68.8336411  47.1482964  42.4697380
  17.9712791  60.6107635  37.6275711  18.7462406  60.3895531  38.1440277
  17.2417698  60.2263641  38.1136627  76.5640030  44.5821075   4.8906155
  76.8002396  45.1796722   5.6000805  77.3410263  44.0367050   4.7681179
   1.4885489  17.2791805  51.7970619   0.6249418  17.3511162  52.2035561
   2.0757494  17.7353134  52.3998642  42.5516472  51.7286339  54.8754463
  41.7140808  51.3322067  54.6355247  43.2082901  51.0964279  54.5832672
  80.4048309   3.3501258  59.7960968  79.5830688   3.8149428  59.9538612
  80.1520767   2.4285011  59.7417297  47.5349083  47.0900650  27.7928696
  46.8798370  46.4517670  27.5105858  48.3588486  46.6028786  27.7946167
  57.5656891   2.7683980   2.8011153  58.0602531   3.2898548   2.1688790
  57.9340706   3.0097709   3.6509776  23.7725945  49.7188530  11.7634497
  23.0826321  49.2747116  12.2563219  23.4203873  50.5922966  11.5923376
  53.8423653  29.4886017  69.9545059  54.1268463  28.5954037  69.7608490
  53.0338631  29.5963783  69.4535675  29.0977440  38.2397728  10.5402632
  28.7474728  38.5116310   9.6919508  29.1303673  37.2844048  10.4908800
  50.2715645  39.8906784  12.0191336  50.1139565  39.4022865  11.2111330
  49.4474106  40.3474541  12.1875362  42.9409866  31.0598946  84.3455429
  43.7509613  30.9800243  83.8417664  42.2456703  30.8935986  83.7090530
   4.3233995  10.8666306  41.3001823   4.7829552  11.6958723  41.1682777
   3.3967469  11.1060610  41.3150253  12.3542414  13.8086758  11.5376549
  11.4565163  13.9624434  11.2432442  12.5944681  14.6102066  12.0024891
  85.3646164  17.8040295  24.6812038  85.8671875  18.5968533  24.4938793
  84.9742203  17.5637932  23.8409042  14.2459536   0.2660153  74.5185089
  14.9821577   0.4594834  75.0988541  13.8443308   1.1181625  74.3488693
  36.7621498   6.9191132   6.4404559  37.6635895   7.2008324   6.5962491
  36.3401031   6.9819417   7.2972884  36.1736183  29.7244263  68.0872192
  37.1291122  29.6689072  68.0737839  35.9859924  30.6548004  67.9629974
  64.5551910  67.6438904   8.1087208  64.2507858  67.4591827   7.2202115
  64.8446350  66.7953339   8.4439898  77.6192093  65.7850189  51.0349464
  78.2620773  66.2819214  50.5289459  78.1282806  65.3800888  51.7371635
  31.3667812  36.3746948  63.6660690  30.4127884  36.3682404  63.5880547
  31.5393066  35.9927711  64.5266495  46.8227882   7.2931190   9.1231432
  46.2895355   7.5280838   9.8825254  47.0585136   6.3771267   9.2701931
  81.3717575  70.5699005  46.3480110  81.6444168  69.6550064  46.4177017
  81.3235168  70.7343750  45.4062805  36.0802841  45.0566788  68.5455780
  36.7156258  44.4103966  68.8536148  35.3175316  44.9305840  69.1099701
  12.7842712  40.4649582   6.4994569  13.6586313  40.5054626   6.8868656
  12.2448454  41.0148888   7.0676351  61.9555702  20.9066563  62.0906754
  61.9928093  20.0102062  62.4241791  61.9917831  20.8098812  61.1390686
  30.6532993  43.4596024  74.6306458  30.3355141  44.3375244  74.4197083
  31.4642448  43.6088066  75.1167984  84.8522720  17.2545452  62.6672630
  84.8054733  17.5500259  61.7580147  83.9708023  17.3984737  63.0115433
   5.2166734  53.1576805  45.9354210   5.8228045  53.8139000  46.2792397
   4.9196095  52.6776848  46.7084618  52.3770828  34.1553879   6.5842953
  52.1645737  35.0811882   6.7024579  52.2226715  33.7626534   7.4434509
  42.1951370  39.2921906  22.6133251  41.3725700  38.8336182  22.4420547
  41.9277496  40.1338539  22.9825611  75.2080917  65.6668091  53.4871674
  76.0126953  66.0291138  53.1162491  74.8243942  65.1562195  52.7742081
  54.7082787  68.2444229  11.2516527  55.4145737  67.7739182  11.6943722
  54.4233208  68.9014816  11.8867159  11.5826397   3.9730949  35.8579750
  10.8582087   3.3889999  35.6337776  11.8491583   4.3558826  35.0221100
  77.8669968  22.1345406   3.0753434  77.0098801  21.7736969   2.8486910
  77.6902771  23.0477562   3.3012598  81.1671295  14.9513168  54.2907028
  80.3128586  15.3728895  54.3841019  81.0472641  14.3222065  53.5793076
  14.5526104  21.9389172  69.0592957  14.0007772  21.1597881  69.1276321
  15.0330887  21.8209915  68.2398682  28.3191299  22.8242435  65.2882843
  28.9558544  23.2932606  64.7489929  27.4924622  23.2819424  65.1354370
  64.1127548  26.9333000  87.2582779  64.9607391  26.7531834  87.6641235
  63.8787193  26.1154594  86.8194199  22.1421375  29.2276192  67.1254501
  22.8460674  28.9758415  67.7232132  21.9570293  30.1408348  67.3445511
   8.4848766  18.1029873  35.2725716   8.9353905  17.5967598  34.5965500
   7.8136845  17.5092430  35.6090240  69.9868088  14.3730116  20.5203133
  70.7848358  14.1821022  20.0274220  69.6229935  13.5127411  20.7296104
  24.5583687  46.0177956  15.5373068  24.9773521  46.1716194  14.6905346
  24.8048630  45.1219254  15.7672796  34.5419312  10.7970867  73.7816086
  34.7895203  11.6164703  74.2100296  33.8607101  11.0490923  73.1581802
  33.0432739  45.4919586  27.7772865  33.0417023  45.7846718  28.6886311
  33.7307930  44.8269768  27.7404938  54.2614403  20.6249695  54.7584572
  54.0268211  19.7034855  54.6486778  54.0224152  21.0337257  53.9265823
  68.3601913  44.8642998  52.9239693  67.7375107  44.2826538  52.4878578
  68.6582413  44.3678894  53.6861839  66.7565002  62.2188301  32.5037956
  66.1952972  61.4925079  32.2322464  67.6475677  61.8974800  32.3660583
  25.9943199  56.6491737  41.4412651  26.0795364  56.1453629  42.2506714
  26.5761890  57.3992920  41.5636635  22.8327599  24.5690250   0.3711208
  22.0780277  25.0145206   0.7560165  23.5789795  25.1251106   0.5950812
  34.4813461   4.5538769  18.3739223  35.2680817   4.6551147  18.9096756
  33.8485031   4.1319308  18.9550419  74.7882385  40.4269333  78.4212570
  75.6679230  40.7660217  78.2556992  74.2042389  41.1406097  78.1646652
  20.3379631  22.5810623  58.7476578  20.7519836  21.7954025  59.1048126
  19.6244259  22.2491436  58.2027473  72.7060699  25.9665565  77.1874008
  73.1619568  25.4639702  77.8625412  72.6591644  25.3731823  76.4377823
  68.9121780   1.6188105  30.3031921  68.2239456   1.5085223  30.9592438
  69.4518127   0.8327547  30.3876972  47.2682114   1.1584692  28.7006283
  46.6223373   1.7256148  28.2794094  48.0655441   1.6870334  28.7340012
   1.7480799  53.0088844  59.9049683   1.3101662  52.3725891  60.4702950
   1.0968617  53.6972656  59.7697830   8.3304138  17.5569363  31.7439251
   8.7579565  17.1129360  32.4762497   8.7780542  17.2224884  30.9667549
  83.6761017   1.7007114  76.5885544  83.8302460   2.3020704  77.3171387
  82.8204575   1.3138796  76.7741852  53.0544434   1.7484252  68.3364944
  53.8341255   1.9828589  68.8398590  52.6471176   2.5874510  68.1212006
  11.6944828  59.6749725  67.4755630  11.4209032  58.9864311  66.8695145
  12.5630198  59.4023743  67.7714844  81.7730942   1.0197566  71.4605331
  82.6697693   0.8102677  71.1991577  81.8677368   1.7364768  72.0878983
  53.9690552  68.5636978   5.9351225  54.0617599  68.6696014   6.8819184
  53.3818474  67.8145294   5.8342733  14.0718975  37.0421791  22.8780231
  13.7969580  37.9294510  22.6469727  14.1819839  36.5988579  22.0368462
  86.1941147  34.4655457  55.5664864  86.0698090  33.8859177  54.8149490
  87.0425415  34.2098198  55.9284363  38.4195290  53.3980408  14.3784113
  38.9529266  53.8766594  15.0129538  37.6070976  53.2044449  14.8460712
  60.6132851  50.2334137  67.1768417  60.7700043  49.2896118  67.2069626
  61.0341873  50.5714417  67.9672928  74.5602722  58.7856827  41.1787491
  75.0985336  58.0988045  41.5720673  73.6594162  58.4956131  41.3221397
  53.4128456  30.2820530  52.9976196  53.3633728  30.0527802  52.0695992
  52.6883087  30.8928890  53.1323776  78.2644806  63.5029106  37.8763161
  77.8861237  63.1464272  38.6800537  79.1841431  63.6570702  38.0923729
  37.6713753   8.7733049  17.2177773  36.7840347   9.0488014  17.4479027
  37.8271866   7.9955063  17.7534847  69.7823639  10.9314680  46.9221992
  68.9883270  11.1340618  46.4275322  69.4812317  10.8219013  47.8241692
  48.2673607   0.4538046  54.5797043  49.0350609   0.0692422  55.0027695
  47.8694115   1.0006901  55.2570419  41.8128662  10.5240335  41.5243759
  42.2199974   9.7913246  41.0621910  42.5386429  11.1165075  41.7204781
  11.1589527  58.7060699  50.4654655  10.4920015  59.3501358  50.2275887
  11.9158220  59.2304611  50.7269897  49.8116760  63.2199631  15.3123827
  49.4778328  63.8179665  14.6436729  49.3709526  63.4910583  16.1176777
  28.2213840  70.2183914  23.8250217  29.0883904  70.3809128  23.4533787
  27.7112637  70.9937592  23.5909176   6.9743948  28.3303146  26.0930214
   6.1571560  28.0504513  26.5053673   7.3392005  27.5294533  25.7164974
  47.1813469  13.6071405  61.2151718  47.1601868  13.9674597  62.1017113
  47.9880295  13.0927753  61.1848755   8.1251993  60.4718513  81.6565857
   7.5444059  61.2074738  81.8509216   7.9665732  60.2790871  80.7325134
  31.2446766  57.4832764  63.1244698  30.9911518  57.3093262  62.2179947
  32.0567741  56.9910622  63.2447090  19.0812244  70.0948410  87.9093781
  19.0332260  69.2011337  88.2488174  18.1678829  70.3692703  87.8273544
   8.2309446  68.7221069  23.2648411   8.0087862  69.5509338  22.8406658
   7.3898525  68.3675995  23.5531502  49.0285225  35.3005142  60.1541824
  48.6050606  34.7288818  59.5137520  49.0929451  34.7666664  60.9460678
  17.2424469  41.2140923   4.0054631  16.9663258  42.0674858   4.3396873
  17.4182568  41.3659973   3.0768905  11.2144842  66.4797287  68.0644302
  10.3298225  66.8348999  68.1508102  11.5306683  66.4028549  68.9646301
  62.7780075  56.6768456  24.2161827  62.1183090  56.4442062  23.5628014
  63.3502274  57.2994270  23.7676430  55.6168480  65.8539352  35.1625977
  56.4644547  65.8063889  35.6047935  55.1335335  66.5262451  35.6428490
   6.0545568   8.3675709  68.3480453   6.5098195   7.6659679  68.8135757
   6.6822767   9.0899906  68.3304596   8.4923544  56.5507011  41.2920227
   8.7148933  57.4412117  41.5634956   7.7545304  56.3072014  41.8510895
  14.5971308  58.6767006  66.5951462  15.0243769  58.0268478  66.0371323
  14.1591406  59.2675629  65.9825516   8.5325804  52.5658455  56.1888771
   8.4433012  51.6142387  56.2409058   8.3467865  52.8727188  57.0763130
  54.6707268  66.0563431  61.7515030  55.0370789  66.1054230  62.6344604
  54.8294678  66.9231720  61.3778076  17.9121304   0.3383541  34.7859955
  18.3308544  -0.4281020  35.1777191  17.7146912   0.9091385  35.5285988
  80.7405777  53.3795280  78.2879562  81.0232773  52.4652367  78.2683182
  79.8143616  53.3490410  78.0483093   8.7993841  69.6493454  74.7932510
   8.9539957  68.7524414  74.4967957   8.0004444  69.5939484  75.3175201
  44.6378326  68.0703735   4.7234497  44.1901817  68.8731842   4.9905238
  45.5668602  68.3008118   4.7295194   2.0209334  40.0941200  88.1067429
   2.2118812  40.9790382  88.4177017   1.5969886  40.2245827  87.2585220
  67.4981918  49.2891579  80.7994385  66.6762543  49.5471115  80.3821716
  67.6158371  49.9216919  81.5081635  67.5694275   8.7852297   4.5984960
  67.2317276   8.1544485   5.2343459  67.5694199   8.3107071   3.7671957
  52.2836685   6.9405112  87.2792053  53.0753937   6.8877559  87.8145676
  52.5414619   7.4654903  86.5214615  29.0551815  42.2485771  24.2112217
  29.6825085  42.1834450  23.4911861  29.4652443  42.8503685  24.8324509
  49.1381264  71.7976608  68.6774216  48.7282448  70.9997406  69.0114136
  49.9083061  71.4894562  68.1998520  68.6284332  61.9850998  55.1785240
  68.2475510  61.1262398  55.3616180  69.4717712  61.7908478  54.7695198
  60.8158455  13.0439863  68.7245941  60.1697083  13.5810738  68.2660370
  61.3902779  13.6765413  69.1560211  33.7440224  69.1219482  25.7489929
  34.1963348  68.4826584  25.1985798  32.9803123  68.6519623  26.0838032
  70.0708313  47.9696007  69.0110397  70.1694260  47.0981369  68.6275558
  70.3445587  47.8627739  69.9220276   2.8953302   3.0909519  32.2672958
   2.2671731   3.7760720  32.0386887   3.1711643   3.3064904  33.1581879
  80.3075943  43.9995117  13.4325790  80.1890945  44.1144981  12.4897280
  79.9745331  43.1199036  13.6103201  82.9064255  62.2822952  17.0809536
  81.9655609  62.4581604  17.0722580  82.9753265  61.3397751  16.9288273
  78.4672699  17.2531395  27.4913712  79.1654739  16.9455109  28.0693989
  77.6601944  16.9554882  27.9112034  54.2210197  57.2229233  52.1759644
  53.7111397  57.7681694  51.5768318  55.0551567  57.0882416  51.7261772
   8.5745668  19.5520744  75.5687027   8.6763201  19.6512260  76.5152969
   8.7069139  18.6174164  75.4101791  24.5710583  59.6886253  38.8950195
  24.8329887  60.5967636  39.0463905  24.2467308  59.3882065  39.7440147
  62.8722229  18.3269558  22.2394276  62.3984337  17.6253242  22.6860447
  63.1784363  17.9283924  21.4248047  12.6724281  22.5975647  25.6947517
  12.1354818  23.3606453  25.4811440  12.5209837  21.9882946  24.9721947
  66.6361389   8.6678925  70.4965057  65.7156906   8.4700861  70.6693954
  66.8826294   9.2833643  71.1869125  51.8132057  36.4670334  58.5674477
  51.4212227  35.7635918  59.0848923  52.5776291  36.7401199  59.0747147
  14.7753296  64.4839859  68.4871292  14.9766331  65.0073090  67.7113419
  15.4900570  63.8494873  68.5401001  44.8775330  10.4720144  83.2343140
  44.4628716   9.6104164  83.2783279  44.8539352  10.7954636  84.1349030
  51.4243393  12.4636068  56.3136520  51.9288330  11.6816559  56.0894394
  51.3814011  12.4549189  57.2698479  34.1784401  34.9676590  82.8358841
  33.6678772  34.2528267  83.2161102  34.3414345  34.6921387  81.9337997
  77.6841507  42.0408745  13.0738802  77.0231934  42.7291603  13.1488867
  77.6161041  41.5530014  13.8946009  59.8973808  48.6756859  46.9198990
  60.1561584  48.5510330  47.8329849  58.9432220  48.6000061  46.9289017
  78.7089310  15.3272343  82.2146149  79.0921097  14.5918550  82.6927567
  78.5038147  15.9722214  82.8914795  19.2863808  29.9594059  64.2263641
  19.7668819  30.2126617  63.4381981  18.6106548  29.3586121  63.9122467
  81.4743576  66.3964920  85.9725342  80.9938431  67.0563812  86.4724197
  80.9522476  66.2688904  85.1804810  69.7051544  31.7088547  70.1713028
  70.1690750  32.2325058  70.8246078  69.3105698  30.9952316  70.6725769
  83.3735123  13.8935022  50.4400978  82.8012314  13.5248413  49.7671852
  84.1541519  13.3399353  50.4201736  23.3623848  13.7972641  83.8049850
  22.6192856  14.2280846  83.3825760  24.0693836  13.8543901  83.1622391
  63.6931801  27.5302563  53.1707840  64.2463074  26.8703136  52.7527390
  62.9890480  27.6861744  52.5414047  76.6677322  28.3515930  36.2704163
  77.4124451  28.0602856  35.7443199  75.9270477  27.8440304  35.9387589
  68.7701797  26.2775669  39.6660271  68.6100922  25.4685917  39.1800613
  68.2393417  26.9356117  39.2172241  65.2681885  52.8534660   3.8212988
  65.3819809  52.1395531   4.4486828  66.0059662  52.7622910   3.2183101
  13.0704145  26.4078922  71.9368057  12.4223490  26.6966190  72.5793610
  13.4696035  25.6323795  72.3310852   7.6223993  42.6053085  20.8441830
   8.3138580  42.4988976  20.1908875   7.1696110  41.7620201  20.8532295
  57.5919609  69.7161789  32.8530846  56.9883347  70.4075089  33.1249695
  58.0283852  70.0703354  32.0782661  68.1983643  41.3358612  55.9739761
  68.9924927  41.8104248  55.7282677  67.5620117  42.0219421  56.1754456
  50.9503136  14.6368570  20.9876385  50.4776421  14.3154097  21.7554169
  50.2984009  14.6346073  20.2867546   9.7127056  41.9579773  19.1563663
  10.3512421  42.0808525  19.8587933  10.2280188  42.0143051  18.3516865
  52.4676285  56.9277191  26.5560303  52.1574936  56.3732224  27.2719784
  51.6715927  57.1879387  26.0925198  56.0162773  15.6273155  56.4114571
  55.4649277  15.0447731  56.9338417  56.7219658  15.8849058  57.0046539
  65.9957657  60.6056175  63.6753922  65.9996490  59.8597183  64.2752686
  65.4334946  60.3283310  62.9520721  67.0873947  36.3273125  41.9744873
  67.2939529  37.2569466  42.0711899  67.4869537  36.0786285  41.1409721
  32.2646332  23.6476479  15.3715429  33.1186905  23.3492603  15.6842432
  32.4676361  24.3523026  14.7563334  76.9601440  35.9208260  44.0876617
  77.2482147  35.8627472  44.9986382  76.0043411  35.9286346  44.1387367
  86.2370377  42.9406052  25.1993885  86.3098450  43.7471924  24.6891422
  86.7915802  42.3130569  24.7358189  42.5754128   7.3249011  71.0668945
  43.1402893   7.7581501  70.4270172  43.0258980   7.4434009  71.9031067
  67.4416351  64.8423538  66.8177643  67.2306061  65.3714600  66.0485153
  68.3631516  64.6101151  66.7032547  54.0254288  15.7039728  22.8510666
  53.8260498  15.9424219  21.9457378  54.9197922  15.3644924  22.8179245
  39.8776703  22.6140823   2.9202681  40.4389305  21.9142666   3.2541523
  40.4785233  23.3365211   2.7378130  72.6649628  10.5199928  42.6624184
  72.4082947  11.2220078  43.2603531  72.4426270  10.8527403  41.7928925
  49.2042389  60.2613602  30.3920364  49.5524483  60.1047096  31.2697830
  49.8064003  59.7986145  29.8093719  74.3925629  27.7196617  31.5879707
  74.3085175  26.8132420  31.8838959  75.1136169  27.7003040  30.9587383
  11.3509331  53.7941017  57.5982399  10.4791727  53.5178604  57.8810043
  11.4218760  53.4781227  56.6974869   5.7976322  71.4561920  15.4962311
   4.9575620  71.9060745  15.5863457   5.7464423  70.7271805  16.1144104
  80.7472076   4.8749304  82.9542160  81.6648636   4.6272311  82.8411407
  80.6184082   5.6016059  82.3446350   0.5383579  40.5469322  85.8650513
  -0.0681850  41.2051163  85.5257492   0.1036770  39.7110023  85.6962204
  78.2361298  20.0815048  34.0033302  77.9855194  20.5556011  34.7962074
  77.7653122  20.5269909  33.2989845  57.9644699  10.5848789  44.7363701
  57.0608749  10.5762310  44.4206581  58.3328476  11.3959055  44.3859901
  26.3128929  27.3208542  80.1208878  25.6089172  27.8237209  80.5304871
  26.4817867  26.6036777  80.7319183   8.1403265  58.0532188  75.6711121
   7.6108403  57.5518532  76.2911987   9.0401144  57.9381714  75.9766922
  74.2271118  59.6898041  37.0187836  74.8255310  60.0107918  37.6933937
  74.5037613  60.1387215  36.2199326  31.6551647  70.4240265  55.6695709
  30.9977989  69.7340851  55.7594681  32.2488937  70.1022339  54.9912148
  58.0881004  12.9598303  27.7844601  58.3364220  13.4369249  26.9926586
  58.0850677  12.0402002  27.5189362  73.4809875   6.5750217  58.8253059
  73.4787674   6.0140285  58.0497322  73.3896713   7.4627233  58.4790688
  40.9569511  57.0844040  25.1057529  40.4027252  57.4625244  25.7884636
  41.2835312  57.8396873  24.6167488  81.5332184  26.8015614  24.8675919
  81.8427048  26.1471939  25.4938946  81.1575317  27.4942799  25.4109440
  63.8269577  36.4984932  68.9313736  63.8167877  37.4398155  68.7580490
  64.6302795  36.3557816  69.4319077  55.1006966  63.9177780  21.5128670
  54.7952461  63.4786949  20.7190552  56.0164871  64.1296387  21.3321037
  35.1084328   7.2198367  77.1707153  34.2698708   7.3644691  77.6090393
  34.9892502   7.5919180  76.2968826  21.2543373  43.1852951   0.5990531
  20.5008163  43.0553284   1.1748550  21.3288822  42.3640213   0.1130686
  53.9783783  67.4905701  80.0806732  54.2885361  66.7135773  80.5457687
  54.7719383  67.9946213  79.9006119  57.5872955  38.6894836  24.1248627
  57.2224655  39.2334671  24.8228722  58.5047493  38.5690308  24.3698139
  67.4196777  32.8892899   1.2863568  66.7144547  33.3360634   1.7546324
  67.5469131  33.4089165   0.4926125   5.0998321  60.6473846  24.9169140
   6.0508099  60.7063255  25.0085602   4.7718959  60.6505241  25.8161793
  55.6528816   1.0180628  52.2426529  55.5513306   1.9232017  52.5370026
  56.5953598   0.8564911  52.2857742  41.1689301  55.3496933  67.5692596
  40.8692818  54.5645294  67.1110382  41.7712708  55.7700157  66.9554596
   3.3190725  11.3944035  76.0570831   4.1908045  11.7411194  75.8670731
   3.3513780  10.4865818  75.7553406   5.8104315  15.6254177  54.8257713
   5.9835806  16.1407509  54.0379372   5.8728099  16.2561607  55.5430603
  53.0206223  13.3802862  14.1260834  52.8581276  13.0575972  15.0124798
  52.3153496  14.0074587  13.9664679  44.9899521   8.9498940  16.0592403
  45.6844711   9.2899084  15.4950905  45.3382683   8.1248398  16.3971672
  65.6310806  68.1220093   4.7391601  66.4621277  68.1148529   5.2140718
  65.3194199  67.2182999   4.7881789  12.6997023  45.1001625  13.6853437
  13.0444260  45.9867516  13.5787458  13.4393854  44.5290565  13.4781275
  15.8178215  37.3421249   1.2773865  15.1690664  36.6524506   1.1370362
  16.4747810  37.1950340   0.5969453   5.6435666  52.2963181  87.2473907
   5.3469343  51.5898933  87.8211594   6.5762534  52.1242218  87.1181259
  30.5779114   4.5629082  18.3333969  30.5116997   4.7762408  17.4026260
  29.6732807   4.5718770  18.6461182  40.2297287  37.9742813  70.5061874
  40.2521896  37.6714020  71.4139252  40.9612579  37.5229988  70.0849457
  74.9009171  47.4521980  78.7702560  74.7917404  48.0632133  79.4989319
  74.1506195  46.8617287  78.8383331  49.8610191  42.4546776  86.0321350
  50.5231819  42.5737686  85.3512573  50.2900620  41.9081306  86.6904984
  75.0967026  67.4267654  12.8885117  74.9632492  67.5560760  13.8275003
  75.9416733  67.8385544  12.7077303  28.7305508   7.7161179  18.6738930
  28.8813171   8.5113688  19.1848507  29.5426216   7.5890532  18.1833553
  12.5000887  25.1249866  14.0249767  13.1323338  24.5975685  14.5131655
  12.5282192  24.7707176  13.1361942  58.5173607  14.9595890  62.8153076
  58.5243797  14.0448742  63.0972252  58.2678642  14.9237080  61.8918915
  50.0814590  40.9602585  53.7169647  51.0014572  40.9320221  53.9797134
  50.1064415  40.9956894  52.7607460  80.7437820  44.1116905  31.4922981
  81.5450897  43.5932121  31.4193821  80.5366745  44.1023712  32.4267769
  21.0916843  16.9121075  78.5276184  20.9415131  16.0218716  78.8456802
  20.6142693  16.9541435  77.6990433  49.0788269  41.9691620  63.9393539
  49.5677185  41.8626404  64.7553635  48.1746864  42.1128387  64.2188492
  20.4540100  12.2090569  67.7740784  19.9835835  11.7040548  68.4373322
  19.9043751  12.9782686  67.6242523  28.2015629  24.6722164  75.7325134
  27.2980537  24.3647022  75.6594543  28.3598137  25.1466789  74.9163818
  61.8225250  43.9009094  81.7548523  61.1260452  44.4759598  81.4378967
  61.6018219  43.7406387  82.6723709  79.9261169  21.1333294  44.0286980
  79.5677719  20.3773479  43.5636063  79.3828430  21.2116718  44.8128815
  53.8875160  33.5308495  10.4784842  54.1855354  34.2434998   9.9131966
  53.2810516  33.9480858  11.0903234  68.1414719  21.5993977  61.4286385
  68.9060898  22.1494217  61.2581558  67.4195099  22.0506134  60.9911346
  86.4272614  24.6758575  62.3887177  86.8679428  25.4953480  62.1640663
  85.7869644  24.5485172  61.6886940  54.8595009  68.2432861  60.3292580
  54.3000336  68.4129105  59.5713272  55.3194084  69.0696259  60.4771919
  24.0732269  35.9002495  68.2213669  23.2050762  36.2871170  68.1078644
  24.4853230  35.9800224  67.3611069  45.0750694  39.9943085  76.3756638
  45.3703537  40.8415985  76.7090530  45.1821861  39.3955803  77.1147766
  66.5266571  17.1747093   5.4469666  66.2914276  17.7946758   4.7566476
  65.8067474  16.5439568   5.4579086  73.2942963   2.9857583  31.5703564
  73.5780640   3.1632047  32.4671402  72.4410095   3.4137528  31.5000210
  51.2049255  13.5049391  41.0132904  50.7006874  14.0720177  40.4298515
  50.8854790  12.6225500  40.8246689   2.1792140  49.8215256  59.3034134
   2.4011877  50.6345787  59.7571793   2.7164125  49.1544037  59.7307281
  77.2104950  45.7697487  16.5928841  77.8045349  45.2285156  17.1128960
  77.4919662  45.6331253  15.6882639  78.4674835  46.0406456  85.2727737
  78.9473953  45.7290611  86.0401306  77.9669495  45.2798080  84.9781113
  53.3880997  16.1014938  50.0450211  52.6483269  16.0257435  50.6477051
  53.7511520  16.9698353  50.2193947  74.0247192  60.5353661  19.0384121
  74.7880249  60.4521637  18.4668560  74.2346725  59.9932404  19.7988415
   3.6865842  38.8648148  86.5582581   4.5106444  38.8988304  87.0440598
   3.0292745  39.1785126  87.1793594  63.6606712  54.2412415  42.4567375
  64.5756836  54.4680367  42.6227036  63.4220963  54.7567253  41.6862907
  50.5275650  38.8523941  72.7051086  50.9416275  37.9902992  72.6654129
  50.9514923  39.3540001  72.0087585  85.0953598  16.3163834  31.4411469
  85.9461288  16.7331066  31.5781670  84.6959686  16.8158016  30.7288971
  53.9993134  62.1867867  31.3258991  53.6404648  63.0716248  31.3931160
  53.3263168  61.6254997  31.7109547  65.6673660   7.0478086   3.0997236
  65.4503403   7.9793510   3.0628257  66.0648651   6.8606219   2.2493181
  31.2822647  58.9304695  40.8079948  31.6311455  59.2766838  39.9866219
  32.0463943  58.5750198  41.2618561  80.9803162   2.9408567   0.8377281
  80.7914658   3.8366051   1.1173754  81.3165436   2.5103981   1.6237855
  45.4650536  52.9328804  38.5746613  45.7665901  52.1140099  38.1812706
  45.2372131  52.6969414  39.4739151  72.2932129   4.3695445  72.6154251
  72.5462036   5.1722279  73.0714111  72.2113419   3.7154567  73.3094711
  64.7693329  63.7591400  38.8650475  64.0871811  64.2472839  39.3261528
  64.9318390  64.2672958  38.0703087  25.8178596  67.0022812  37.2515106
  25.2695656  67.7868805  37.2532425  26.6941338  67.3219604  37.4664001
  82.1422272  13.0774031  22.4024067  82.0603714  12.2235031  22.8271255
  81.3636322  13.1456833  21.8498211  61.4158020  43.0757332  86.8753357
  61.5470428  42.1284485  86.8346252  61.0303192  43.2272682  87.7382736
  80.5834961  52.2453804  50.2108459  80.6766052  51.3981056  50.6463776
  81.1285553  52.1730957  49.4273148  21.0665913  15.1823664  82.7437363
  21.3812218  15.6906338  81.9961319  20.3641300  15.7148991  83.1168137
  82.9117126  29.9108295  42.4104424  82.0426712  30.0273876  42.0265007
  82.9256287  28.9982738  42.6990280  70.4873123  61.8042068  57.6404724
  70.2084961  61.6351776  56.7405167  71.4435730  61.7853699  57.6024933
  33.0784149  40.2461662  81.3204727  33.4567642  40.2058754  82.1987991
  32.9605942  39.3303566  81.0681992  37.2126656  60.8169632  66.9713516
  37.8381195  60.7074852  66.2550735  37.7576637  60.9459114  67.7476120
  49.0679512  10.3732691  52.6472549  50.0157661  10.2399006  52.6569214
  48.7089882   9.5682812  53.0205803  21.3652821  28.8677425  10.1418333
  21.5290565  29.0890427   9.2250805  22.2205200  28.9481964  10.5641193
  75.0106506  51.4715996  60.4428062  74.5215759  51.2950363  59.6391525
  74.5005188  52.1467514  60.8901978  55.8169937  10.9590311  71.7180939
  55.1696930  10.2557211  71.6672363  56.2955742  10.9043560  70.8909302
  77.3974991  67.8093262  29.7860050  77.0812225  68.5952759  30.2315216
  78.2924423  67.6962662  30.1062031  72.4732513  41.7662010   3.5517187
  73.3786545  41.9262772   3.8179102  72.2509842  42.5138474   2.9968717
  25.6031628  71.6408997  60.7320251  25.2943153  71.6072235  61.6374054
  24.8038464  71.6265793  60.2056046  26.3772469  63.3604774  36.6653481
  25.8828621  63.0525322  37.4249420  25.9775200  62.9106178  35.9209862
  56.7873344   3.1856360  83.4390182  57.0532875   3.8525929  84.0720062
  56.0594978   3.5846064  82.9622498   0.7300690  45.7997360  57.7850647
  -0.2187211  45.8471031  57.6676559   0.8659210  45.0218620  58.3260727
  19.6389408   2.0564191  51.9411964  20.5386333   2.2632151  51.6881714
  19.2334175   1.7294927  51.1381378  42.7789803   2.7383404  69.7704773
  42.9487686   2.7623334  70.7121964  42.3295555   3.5633240  69.5870361
   4.7991047   8.2193975  60.0504189   5.4502316   8.7728024  59.6191292
   4.7687521   8.5426035  60.9508896  13.4008732   8.6524601  58.7359657
  13.8374062   8.1359024  58.0585899  14.1132898   9.1010485  59.1914482
  11.4850540  71.1083221  19.9464588  10.6368904  71.0225372  20.3817654
  12.0746813  70.5559998  20.4597931  34.2615776  50.6287498   8.3526487
  35.1498566  50.3643303   8.1133251  34.0463486  51.3296661   7.7373228
  28.8111019   6.6469884  85.6261520  28.0484467   6.3670616  86.1323471
  28.6605301   7.5777488  85.4610977  74.1967468  35.0307426  45.1470833
  73.3011322  35.2838745  44.9233856  74.0942154  34.3501320  45.8122826
  82.1343460  48.6562309  72.2624130  82.8760223  48.0656319  72.1307144
  81.3756714  48.0765381  72.3302612  85.6262970   0.6060888  14.4604559
  85.7920074  -0.2846169  14.7693491  84.6860809   0.6267237  14.2821560
  52.7025032  54.1542664  75.0802307  52.8274651  54.4165916  75.9922562
  52.9404106  54.9303932  74.5730209  23.4987621  68.8325424  36.8338432
  23.6474361  69.7572861  37.0312614  22.9046230  68.5332184  37.5220566
  71.3471603   1.0550082  81.1504974  72.2523956   0.7785830  81.2931900
  70.9054871   0.8652743  81.9782486   2.3287654  49.4878883  32.4873352
   2.0647166  49.8994827  33.3101921   1.5043103  49.2503242  32.0629883
  77.4309769  27.6586227  75.3011246  77.8519897  28.1900692  75.9768066
  76.6908569  28.1889648  75.0058517  49.4561348  50.9991379  71.9634323
  50.3465309  50.7696838  71.6973877  49.4959030  51.9373055  72.1491470
   6.3916430  35.3582649  64.1822205   5.8436484  35.2117920  64.9532471
   7.2636127  35.5307693  64.5373917  15.3057451  71.2015305   8.5533199
  14.7934790  70.8268738   7.8367686  15.5543251  70.4484406   9.0893221
   9.8138962  22.9906845  87.1725159   9.4527435  23.4275723  87.9438324
  10.7601271  22.9930592  87.3169937  61.1780548  54.1966171  37.5097466
  60.2515602  54.0322533  37.3341866  61.4115562  54.9098587  36.9156113
  80.3562622  34.5214844  18.6736317  80.9246292  33.8621254  19.0716724
  80.3668442  34.3142090  17.7392025  59.5647659  39.7394447  13.8292789
  58.6813583  39.9155426  13.5055380  59.5818672  38.7937698  13.9763813
  68.4720993  39.7483673  32.3663597  69.1175385  39.4182510  32.9913864
  67.9362717  38.9853134  32.1498718   4.1343904  54.2777939  39.2249527
   4.1345258  54.7184219  38.3751984   3.3256898  54.5694656  39.6458588
  52.5466309   3.9745145  81.9500885  52.2126007   3.7287889  81.0873718
  52.1020622   4.7974253  82.1535721   0.9976948  42.8374138  82.4779129
   1.3877813  43.4688416  81.8734589   1.6973817  42.2074852  82.6507034
  71.1266098  47.8954353  71.8808289  71.7320480  48.5230179  72.2755661
  70.4750824  47.7300377  72.5622940  33.2603760  53.2043953  73.0292511
  32.4191170  53.3527908  72.5973969  33.8985481  53.6454506  72.4685059
   3.9541936  29.1748734  49.5736885   3.6004734  29.1770782  48.6842422
   3.6285372  29.9864426  49.9629631  29.2111874  56.4055977  18.9174500
  29.2355042  55.5996323  19.4332619  28.4117622  56.3322906  18.3961277
  44.7840271  59.2344627  80.1283188  45.2049599  59.5775414  80.9165726
  44.0103493  59.7856636  80.0107193  84.3834229   0.8248206  71.4908066
  85.1052017   0.2440110  71.2501297  84.6625137   1.6902547  71.1918716
  28.4083004  50.8823090  41.4233246  28.1229401  50.7903938  40.5142860
  27.6076260  51.0873528  41.9061356  33.2852974  50.5666885  58.3428154
  32.4818344  50.9742966  58.0194969  33.9400978  50.7636490  57.6729851
  19.0146847  30.6273785  66.9771652  18.0910053  30.8687534  66.9079819
  19.1843128  30.1024837  66.1948929   5.4968319   2.5918527   8.7043486
   6.1625991   2.5315859   8.0192547   4.6646147   2.5749309   8.2317390
  43.9212952  49.5114899  42.1779251  43.8785248  48.5646019  42.0444908
  43.8619881  49.6225777  43.1268044  26.3437767  41.7079468  75.9529648
  26.8546181  41.4276085  75.1935654  26.3001842  42.6608658  75.8737564
  55.2998390  57.4921608  61.0288353  55.1237831  57.6251907  61.9602547
  54.4578743  57.6485748  60.6012077  72.4699707  41.7989769  74.0721893
  71.7149506  41.2149010  74.0013046  73.1151886  41.4306793  73.4686279
  54.8191185  45.5517807  54.0163498  55.0608864  46.4773407  53.9829407
  53.8740883  45.5454483  53.8643303  14.7574778   9.7877760   2.0901911
  14.2441692   9.6249828   1.2988353  14.9393187  10.7272987   2.0686746
  59.5110435  18.2110882  23.4005566  58.7857704  18.4745235  23.9669609
  60.2923546  18.5463467  23.8403168  50.3189316  62.7558861  65.4853668
  50.5328407  61.9166222  65.0777969  49.6027679  62.5540924  66.0875397
  56.0580826  11.6967039  85.0247269  55.3156967  11.1243887  85.2184906
  56.4732704  11.8463020  85.8741226   4.6728187  65.8179016  63.4335861
   4.0124588  65.2122955  63.7703323   5.0641470  65.3570938  62.6914597
   0.9346570  61.2655830  23.5860443   0.9020961  61.9760590  22.9454231
   1.6075815  60.6724777  23.2519341  38.2781105  68.5338058  68.3440094
  38.5730972  69.2656479  68.8858795  37.8936996  68.9476624  67.5712357
  45.7128754  36.3322601  78.8308334  44.7694359  36.4925346  78.8091431
  45.8824234  35.7951012  78.0569229  82.7246399  56.2238197  87.8312302
  82.9919357  57.0052567  88.3151169  83.4144592  55.5844383  88.0089493
  85.2732773  60.9658813  61.6806946  84.5760880  61.2987213  61.1155586
  84.8199081  60.4241753  62.3266335   9.2752018  22.9350071   1.8098410
   9.1816149  22.0651875   2.1982830   9.9610615  23.3561687   2.3279636
  37.8491707  11.0114603  15.7633896  37.9343185  10.1569242  16.1861782
  38.2984467  11.6165066  16.3535633  83.7588730  48.4426117  37.8067856
  82.9135056  48.8320656  38.0301895  84.4050980  49.0566940  38.1553993
  83.4017868  24.6817188  11.1439142  82.9850540  23.9278851  10.7264223
  83.3597717  24.4901905  12.0808163  83.2341156  26.1339016  62.6363258
  83.2388535  26.9510460  62.1378403  83.4954300  25.4654598  62.0029755
  19.6901588  27.0045567  55.4696274  19.6219368  26.6933060  54.5670204
  19.9349136  26.2280025  55.9729080  37.1004372  69.8926926  71.7442627
  37.5154457  70.2772369  70.9721756  37.6130638  69.1046219  71.9242401
  42.4302025  24.5204506  83.2289124  41.8392944  24.1683884  82.5632477
  42.5092316  23.8182278  83.8745651  62.7648430   6.9952502  50.2103424
  63.2562790   6.5378966  49.5280304  63.3874893   7.0902743  50.9311180
  68.8848038  61.5912132  70.3177948  68.1112213  61.9133873  69.8551865
  69.1107559  62.2951469  70.9257812  44.2660103  69.1582565  65.8010178
  43.7325172  69.2773666  66.5867844  44.3822021  70.0427628  65.4540558
  65.5704346  56.2218437  25.9210281  66.4076080  55.8372574  25.6612701
  65.4898376  57.0076485  25.3804283  10.6793785  10.2804155  69.2138977
  10.7892122   9.8623486  70.0679398  11.5690966  10.3598347  68.8699112
  20.3893967  68.0808487  67.0531082  20.1600590  68.8576431  67.5632248
  19.5671539  67.8120346  66.6433640  44.7895393  41.5704079  26.3001652
  45.5490189  41.9261360  26.7615547  44.9603043  41.7583656  25.3772659
  24.4138985  34.7174644   7.6802030  25.1656799  34.1252251   7.6977553
  24.7991982  35.5936928   7.6810937  23.5465603  27.8470650  57.2408333
  22.6234245  28.0741901  57.3525009  24.0187092  28.5071583  57.7483597
  41.5488205  51.3772507  50.7666817  41.7039528  51.2055092  49.8378792
  41.9758034  50.6499062  51.2193260  28.7888222  28.5560246  63.5351982
  29.5623856  28.0607281  63.2659149  28.8284912  28.5608940  64.4915619
  82.9439163  23.4140301   3.0480015  83.5723267  22.9856243   2.4668019
  82.9918137  22.9140205   3.8628185   1.9786263  50.0916634  28.1070080
   2.2587106  50.0950127  27.1917076   1.0239761  50.1478500  28.0655632
  86.6435623  31.7474518  75.6035461  86.4916763  30.8961716  76.0140152
  85.7710724  32.1322021  75.5201111   7.3135791  21.8864632  26.2775974
   7.6089835  21.0118790  26.5307178   7.7908487  22.4781513  26.8592758
  66.6161041  65.4656982  16.4546852  67.4736099  65.0718536  16.2940464
  66.2701569  65.6507034  15.5815744  20.7533340  48.8596268  27.0653687
  20.3739967  47.9845963  27.1469631  21.2173672  48.8424149  26.2283440
  39.0518188  48.5274620  38.4194450  38.3938141  48.8487511  37.8029747
  38.5521851  48.0241776  39.0623322   1.1198698  38.6375809  69.3268814
   0.2631016  38.4145851  68.9629440   1.2888348  37.9555893  69.9769363
   8.8822947  53.3372917  79.5294571   7.9356384  53.2147789  79.6006165
   9.1587706  53.5847740  80.4118042  76.4022827  44.6870384  53.2228241
  77.3279266  44.7847252  52.9994812  75.9933929  45.4928741  52.9071312
  41.1500740   4.0551529  63.7627258  40.7440033   3.2313671  63.4930725
  41.8497849   3.7927475  64.3608780  27.6340160  67.4482651  70.6765747
  26.8324261  67.2654114  71.1667252  28.2794094  66.8405075  71.0375900
  13.5917168  36.2078133  20.2783737  13.9241447  36.1476974  19.3827686
  12.6490288  36.0647697  20.1940556  50.7612038   6.2531891  58.4573326
  50.0879097   5.8835444  59.0285301  51.5493774   6.2763257  58.9999886
  57.0767441  17.0069866  85.1860428  57.7102089  17.7184467  85.0923538
  56.2819557  17.3372402  84.7671432  32.2035522  53.4952240  77.1970444
  31.8460159  53.6741600  78.0667419  32.9283218  52.8904648  77.3558121
  17.5208626  46.5852318  68.7381821  17.4009666  45.9117622  69.4077301
  18.4703045  46.6746140  68.6556931  11.9882183   7.5299211  63.8542290
  11.9174767   6.6259794  63.5474472  12.7802582   7.8643651  63.4334564
  38.2200241  54.5146294  11.0207815  38.5552940  54.8329811  11.8589201
  37.5806847  55.1744957  10.7523527  55.9878731  24.0038109  16.0433788
  55.0598679  24.1566467  16.2213669  56.3762512  24.8785629  16.0291367
  75.7172012  30.9327316  20.3094006  75.2540207  30.8607101  21.1439724
  75.5414047  31.8261547  20.0142326   8.1857195  62.7110519  65.1028366
   8.5247869  61.8301544  64.9438171   8.3750238  63.1898384  64.2958908
  68.0006027   1.1371609  22.1274834  67.9775238   1.4900706  21.2380161
  68.8817215   1.3388849  22.4424038  57.8727760   5.6775188  41.0636024
  57.6569977   4.8856859  40.5709877  57.2801743   6.3443727  40.7166710
  70.3056335  65.5436249  32.4131165  69.5094757  65.8589096  32.8408585
  69.9907303  64.9797516  31.7066383  40.9807396  55.5205154   5.9362741
  41.4203682  56.3320999   6.1898279  41.6597557  55.0068741   5.4988480
  54.2057266  38.6424637   4.6952600  54.2175522  37.6857948   4.6656103
  54.2635727  38.9112396   3.7783933  48.1695137   7.4065351  12.2842159
  48.1882019   8.2716856  12.6933575  47.4298248   7.4442749  11.6778574
  38.2312469  66.5250320  54.3540573  37.5324020  66.2552109  54.9499092
  38.8460884  65.7914200  54.3582115   6.0680170  14.2241182  14.3623810
   6.0078425  15.1608887  14.5496578   6.3388915  13.8309288  15.1919956
  77.5641022  69.3248138  10.0677376  76.8256989  68.8130798   9.7374029
  78.2614059  68.6822433  10.1984901  56.1902237  49.9099770  40.4710579
  57.0363235  50.1423950  40.0885277  56.3945808  49.2219353  41.1043587
  20.8889141   7.6995292  27.0672913  21.0274734   7.0486760  26.3792324
  20.7912922   7.1843858  27.8681202   2.1680880  32.1348457  66.2683640
   2.1576583  32.5300980  67.1400833   1.5306803  32.6434708  65.7671204
  63.0340767  25.1433811  36.5137253  63.2440453  25.8578262  37.1151543
  62.2885666  25.4671783  36.0081596  55.2611237  59.1545410  71.8096313
  56.1112938  59.3792725  72.1877060  54.6576424  59.8008690  72.1761093
  62.0129890  57.0431747  68.4558716  62.0953293  57.8596039  68.9487228
  62.4958267  56.4001884  68.9751663   4.4293923  19.2561874  50.9092979
   4.9432578  19.1229286  50.1127930   4.0529642  18.3965988  51.0980873
  34.0621109  48.1877708  63.3116875  34.0602303  47.2414246  63.1679688
  34.1606636  48.5627403  62.4365196  75.3034592  52.2797623  50.2507057
  74.8925705  51.9061279  51.0303192  76.1571808  52.5882339  50.5544205
  31.6270218  50.7696228  28.0544281  30.7715416  51.1706657  27.9009724
  31.4277420  49.9357033  28.4799881  86.5387268   7.3790660  19.3905029
  86.1361847   8.2293110  19.2136536  86.3245926   7.1984220  20.3057861
  27.1623459  70.1008835  41.6551476  26.7521648  70.5440979  40.9124870
  26.7611790  69.2318802  41.6668053  18.9037170  30.2396126  16.9535027
  18.4867897  30.1736984  16.0944004  18.2359562  30.6346207  17.5141239
  55.6805916  11.2906952  27.0226116  55.7162590  10.9540901  26.1272583
  54.7721519  11.5694981  27.1376629  18.1561050  44.0592880  79.7272415
  17.3026581  43.7185516  79.9951172  18.1618500  43.9686203  78.7743683
  74.9974442  44.7802505  59.8541985  74.9903870  45.2040367  60.7124481
  75.7895660  45.1106949  59.4304199   8.4273109  70.4968796  49.0019150
   8.7392130  71.3225250  48.6314316   7.9542527  70.7531509  49.7936020
  78.7356415  47.2329712  48.2298737  79.6345367  47.5615349  48.2137375
  78.5037079  47.2153358  49.1583786  43.7152557  25.7296009  40.2604179
  44.3004112  25.3514252  39.6040573  43.7439651  25.1119900  40.9911461
  81.7950516   5.4093409  80.1390381  81.8495255   6.3645568  80.1102753
  82.4673920   5.1499586  80.7690430  39.4240837  47.4306755  52.9178848
  39.6638184  48.3060303  53.2220497  39.4581718  47.4911613  51.9632034
   9.4361887  19.5634518  20.8528423  10.0499029  19.6447945  21.5828896
   8.6445513  20.0089264  21.1546612  82.2798843  21.2258682  55.7438545
  82.1539688  21.7366886  56.5435066  83.1260376  20.7952194  55.8654976
  65.8334961  32.7117081  14.0829210  66.7391281  32.9665108  14.2593803
  65.5855179  33.2255859  13.3143740  40.3057404   1.7603211  74.2942047
  39.4616127   1.3195010  74.3909531  40.7843475   1.2249991  73.6612778
  33.7455406   6.8305397  24.7450218  34.1540451   6.2999711  25.4290199
  32.8206749   6.5853295  24.7719955  67.5892258  59.5619354  56.0362549
  67.5471649  59.1698914  56.9084740  66.7018051  59.8822212  55.8745842
  49.4783745  28.1233292  24.2401524  49.3310280  27.7957935  25.1274185
  50.3413658  28.5357552  24.2773228  83.4697800  52.2516441  17.9817829
  82.7857208  52.7781219  17.5681248  83.7367554  52.7631493  18.7455349
  51.2277222  52.7120590  13.3846388  51.3546524  51.7784119  13.5532131
  51.5739365  53.1455231  14.1646881  26.3983498  53.6864357  23.9332638
  26.0404110  54.1881866  24.6656265  27.1967335  54.1548386  23.6895161
  12.3297138  66.4454269  10.2215786  12.8816891  66.8874969  10.8666582
  12.5638742  65.5205994  10.2996006  26.1082325  55.2604713  43.8447838
  25.2051105  55.0068283  44.0352249  26.6358109  54.7419319  44.4522476
  42.2842293   8.8203316   2.1892011  41.3831444   8.7288465   1.8795062
  42.8158035   8.4203205   1.5009789  44.6044426   1.8972447  17.7041569
  43.8715401   1.2816120  17.7134151  44.6480103   2.2312479  18.6001339
  46.1449471  65.7465286  78.6660233  45.7804718  64.9817886  79.1116257
  46.0240707  66.4654007  79.2863846   2.2994597  63.4827194   0.8678178
   1.7136807  64.2390900   0.8993412   2.4772525  63.3561478  -0.0641702
  76.2877045  16.6793480  41.3218384  75.8317337  15.8407059  41.2511482
  76.8734436  16.5710926  42.0711250  67.0740509  20.3473854  28.2095737
  67.5552368  19.5654430  27.9389057  67.7392197  21.0342102  28.2549152
  30.1536942  56.0875778  16.2367039  30.5048752  56.7246971  15.6146250
  29.4092388  56.5330162  16.6411839  81.0453110  15.7988405  45.8026581
  80.4526825  16.2816391  46.3787880  81.0373611  16.2926655  44.9827156
  60.9370041  11.9783792  83.2295609  60.8784027  11.7419014  84.1552353
  60.6679192  12.8964825  83.1994019  49.4273415  57.6789970  49.7505417
  49.1743279  58.5787277  49.9571762  48.6038361  57.2428474  49.5318069
  46.0154152  70.0336456  62.9072151  45.6284409  69.1931076  63.1521034
  46.9597855  69.8803024  62.9369774  19.8269329  21.4227257  14.6254282
  19.5716343  20.5289555  14.8539610  20.7817574  21.4237289  14.6928263
  71.6968536  31.1036415  74.7308884  70.9502563  30.6051788  74.3987045
  71.4354019  31.3672295  75.6131592  51.7504463  12.7594233  85.7529373
  51.0463066  13.3507500  86.0189285  51.7701073  12.0882616  86.4351273
  59.7687912  26.7016907  57.9318008  60.1317902  27.5385780  58.2217712
  58.8275452  26.8605938  57.8608437  15.4175301  44.1744919  88.5216904
  15.5215054  44.4974365  87.6266327  16.3090420  44.1380920  88.8682632
   6.6727819  18.5126286  10.7269239   6.0902610  18.5034161  11.4864082
   6.0860248  18.6034260   9.9761219  68.7370224  41.4891243  22.1437225
  68.5922165  42.3774452  22.4695301  67.8739243  41.0768738  22.1804562
   1.6193192  40.2857933  20.2896709   1.1863554  41.0715027  20.6234894
   2.2553606  40.6144371  19.6543140  81.9845200  60.9617081  57.3467979
  82.3624725  60.6367989  56.5295982  81.3287048  60.3062859  57.5846176
  64.1021881  71.2986984  56.4860039  63.3320351  71.5621338  55.9823189
  64.7142105  70.9642181  55.8304291  65.4036789  12.9678650  29.5467339
  64.8839111  12.7653732  30.3245983  64.7556381  13.1611500  28.8692989
  50.3146439  40.1259117  75.5900269  51.2043076  40.3120308  75.2898865
  49.9711609  39.5030365  74.9495010  48.5891953  52.0344658  28.7289009
  48.0129967  51.2960052  28.5316677  48.3382149  52.3048515  29.6121521
  24.7457352  18.2680492  12.5906839  25.2143078  18.0521069  11.7844334
  23.8242893  18.1172256  12.3799143   3.9691374  41.7320442  51.6398582
   4.3975668  40.9892654  51.2144699   3.0518715  41.4688454  51.7145615
  58.6859436  46.9439354  28.1465778  59.5856056  47.0777092  27.8483429
  58.1490517  47.4066505  27.5032501  32.7199364  31.5314331  11.5224419
  32.0075684  31.7552433  12.1213331  32.2951965  31.0440540  10.8165474
  37.3369942   4.0478983  46.7086487  36.6178093   3.6912868  47.2300224
  38.0372238   4.2047825  47.3421249  44.0997429  68.9793701  53.3761063
  44.5810890  69.7869873  53.5557938  44.3638229  68.7354813  52.4889679
  86.6038971  32.3715630  43.4497108  86.7551880  33.3159103  43.4890594
  86.9979706  32.1002007  42.6206741   4.7401128  23.3815422  55.4739380
   4.3497686  22.5179291  55.6082306   4.1295390  23.9881248  55.8928528
  54.3462296  55.0289726  27.9360409  54.3756866  55.5987167  28.7046471
  54.0711250  55.6040535  27.2220154  47.8550682   6.9551702  35.4783859
  47.9569778   6.0354981  35.2333374  48.2468338   7.4412107  34.7527733
  84.3310852  12.3161545  43.2841949  83.9870758  12.3193455  42.3909569
  83.7558060  12.9115896  43.7645454  35.8634071   5.4355679   1.7837564
  36.3694649   4.6550336   1.5581435  36.4204483   5.9126630   2.3988304
  64.8055649  32.3119583  43.1556969  63.8841133  32.1392059  43.3488541
  64.8365250  33.2468491  42.9525909  79.1806030  39.3249435  58.5110970
  79.6712875  38.5356712  58.7402420  78.5941010  39.4665337  59.2542000
  74.3019333  53.7019501  66.3805695  73.6287918  53.0404930  66.2206039
  74.5279541  53.5950890  67.3045425  79.6703720  38.6692772  55.7301598
  79.2031708  38.7277031  56.5635529  78.9854965  38.7453880  55.0657883
  51.9605179  59.2205086  63.8505402  52.7108498  58.7183418  63.5326385
  52.3086929  60.0983353  64.0068359  40.6439095  53.5595512  51.9868279
  41.2441063  52.8323364  51.8220291  41.0213890  54.0159492  52.7387886
  76.3768845   3.2990768  26.8102436  77.2753067   3.0051529  26.6596394
  75.9896927   2.6154113  27.3569698  52.0112915  31.0976105  66.0717010
  51.8418579  30.6122990  65.2642365  51.7552643  30.4960899  66.7708817
  83.8590088  43.8677673  28.8259258  83.8996048  44.0743141  27.8921585
  84.7304382  43.5313606  29.0349197  37.5486603  49.0285225  23.7127056
  38.4991837  48.9213028  23.6774006  37.3433418  49.0387306  24.6475697
  25.9963493  16.0783863  88.3399429  26.2075176  16.7351475  87.6763916
  26.0582542  15.2424488  87.8777695  18.9004974  47.0618782   4.3784423
  18.5004120  47.5150452   5.1206036  19.5849285  46.5191498   4.7698898
  56.8684845   3.6529360  35.1507530  56.6127739   3.7644367  36.0663986
  56.1290779   3.9999084  34.6516304  24.7634945  55.4345856  82.7699585
  24.5936794  56.1634560  82.1731796  24.7949123  54.6636009  82.2035446
  50.5547523  61.5492516  62.0438766  51.0688248  61.4074860  62.8387756
  50.4704666  62.5005684  61.9796333   4.7059646  31.0870838  37.1764526
   5.2963109  30.5277023  37.6812439   5.2818809  31.5693569  36.5831871
  81.4891663   8.5370684  85.8704071  82.0727844   8.2934914  85.1518707
  80.8426743   9.1168976  85.4678192  15.8795156  10.6588583   9.0860100
  15.4708958  11.5036011   9.2748823  16.2624016  10.7673149   8.2154551
  50.6818352  24.4093037  80.7581787  49.7471352  24.3614407  80.9588699
  50.8338776  25.3296299  80.5434418  81.1514282  49.5654526  75.2904358
  81.1189117  50.0346184  74.4567337  80.2710266  49.2052193  75.3970413
  64.7534180   6.6321378  52.0166893  64.8698807   5.7672906  52.4100151
  65.6001816   6.8291011  51.6161613  38.5568047  39.7182465  15.8835182
  39.4978333  39.8815231  15.8199663  38.3590126  39.8165855  16.8148823
  59.5399628   2.0708797  23.9262562  59.4437599   2.9885790  23.6716862
  59.1348038   1.5802246  23.2111797  43.4142876   8.3450022  29.8465042
  42.5050812   8.6433277  29.8705597  43.4194489   7.6448760  29.1937962
   5.7656507  37.3970833   6.9272728   5.2961569  37.7455177   6.1693811
   5.9570899  36.4888000   6.6936016  42.3376541  58.2085037  82.5784149
  42.5072441  59.1485023  82.5161667  42.4412346  57.8866234  81.6829300
  85.8524399  41.3462143  67.5091629  85.1827011  40.7925186  67.1077881
  86.3445816  40.7533226  68.0770569  80.3958588  58.5902710  54.8156967
  80.6582870  57.7041283  54.5664673  80.4300003  58.5900536  55.7722893
  72.0681381  60.8284760  49.0200615  71.9511261  59.8913040  49.1757889
  71.2568283  61.1034355  48.5929832   7.6737394  54.0756683  11.8560944
   7.8370428  55.0180702  11.8940315   7.3999581  53.9161987  10.9528532
  34.6484032  52.0148735  12.9570446  34.4616623  51.3425369  12.3018188
  34.4281654  52.8394203  12.5236282  78.9263458   4.3735723  46.3079529
  79.6263809   4.9202032  46.6648560  78.6142273   3.8651495  47.0564957
  81.6987534  41.1172180  27.2932739  81.3107452  41.7135315  26.6528854
  82.6117249  41.3972359  27.3588657   9.4236221  55.1966820   5.6953564
   9.5245714  54.6185379   4.9391904   8.9020119  55.9296913   5.3684692
  73.5416489  70.6774063   6.1072764  74.2637177  70.9036560   6.6934958
  73.3266830  71.4981918   5.6641855  45.3977509  57.2282753   7.4902701
  44.7887383  56.5386124   7.7542758  46.2598038  56.8945847   7.7387629
  14.3997936  62.6749458  85.8565445  13.6263342  62.1115265  85.8330002
  14.0754652  63.5133591  86.1853409  37.7257004  23.1473198   1.3123564
  37.4564629  24.0426617   1.5175593  38.3932838  22.9419975   1.9668843
  37.7451859  54.6188431  21.2877388  37.3200455  53.7759285  21.1296787
  38.4678001  54.6439819  20.6604977  57.9322395  48.1039505  85.6462250
  57.3794785  47.8098030  84.9222336  58.7321663  47.5848885  85.5630341
  71.6996689   8.0078726   0.2896327  72.4672165   7.8267465   0.8321260
  72.0454865   8.0728760  -0.6005460  64.5697937  70.8699341   1.1283530
  63.9414291  70.1491776   1.0848750  65.0577850  70.7138138   1.9368823
  73.9602203  15.1443892  43.3333969  73.5945129  14.2626629  43.2623177
  74.0787201  15.4283218  42.4269905  84.4386292  10.5556803  33.9860001
  84.9948120   9.9807949  34.5117378  84.9207993  11.3814402  33.9427910
  18.3398037   5.6979418  73.2245941  18.7014484   4.8283839  73.0533829
  18.3501835   6.1337047  72.3724060   3.6146996   2.9766383  34.9818954
   3.8547299   2.6421509  35.8460312   2.9323924   2.3795598  34.6749954
  24.7633076  11.3617001  37.6499519  23.8543034  11.3385601  37.9489632
  25.1719818  12.0470486  38.1786461  48.9642830  22.7160988  26.7891083
  49.8188286  22.9964771  26.4614296  48.4787560  23.5306454  26.9195290
  25.9801636   2.3545651  74.6382446  25.7257309   2.3625588  73.7155151
  25.2502041   2.7762594  75.0916367   3.1317422  21.1470680   4.4413028
   3.6496949  21.4166431   3.6828270   2.2365484  21.4079571   4.2249770
  48.8890038   6.6247721  72.6343994  48.9085808   5.9321890  73.2948380
  49.7098656   7.1003871  72.7617035  83.8067398  23.2369595  42.0081215
  83.8794708  23.5370026  42.9141655  83.5979767  22.3055954  42.0802727
  18.5287991  10.1859550   1.0330967  19.2171955  10.7065449   1.4470154
  17.7621365  10.7590704   1.0334580  35.9755287   0.8164475  22.7697258
  36.6605797   1.4556121  22.5737495  36.3946114  -0.0332475  22.6332607
  20.7511444  42.0582695  62.8152885  20.5703392  41.7702026  61.9205475
  21.7059765  42.1052704  62.8634377  11.0031290  47.2026939  31.3411007
  10.8511801  46.8805580  32.2295647  10.1261606  47.3293495  30.9789982
   9.8783474  44.6008835  89.2588120   9.9401293  44.0283890  88.4941711
  10.7818956  44.8627853  89.4355545  18.5985756  67.3226166  45.1274338
  18.3360100  67.5326996  46.0236244  18.0638161  66.5642090  44.8927269
  50.0704765  57.4440651  17.8985062  50.4025917  58.1549034  18.4468136
  50.1609077  57.7699966  17.0030613  63.7698975  53.9119110  19.6470280
  63.3283997  53.7616348  20.4829273  63.6870728  54.8538589  19.4983521
  12.9457827  11.3921595  82.2902222  13.7928686  11.2947750  82.7251892
  12.3027630  11.2807293  82.9904709  42.9395828  59.4800949  73.3594208
  42.0567398  59.3348579  73.6996155  43.0854301  58.7533798  72.7537460
   2.3037577  65.8977737   9.2942038   1.5861032  66.1824036   9.8600559
   2.7516897  65.2187500   9.7987013  58.3881912  45.8545418  47.8021011
  57.5559158  45.5292435  48.1452179  59.0260582  45.6478577  48.4852104
  20.7375126   4.9830666  25.8962765  21.6221828   4.8695121  26.2436886
  20.7160759   4.4349933  25.1118107  70.0702896  23.8356590  73.6381302
  70.5732269  23.5262375  74.3914871  69.5750732  23.0690346  73.3495407
  15.7385521  43.6475983  21.4180107  15.0529699  44.0639763  21.9403496
  15.4581881  43.7727127  20.5113831   9.4444418  66.8177719   6.5157866
  10.3906822  66.8388519   6.3729033   9.3419285  66.9405212   7.4595323
  53.6950073  47.7807236  75.5438614  53.0642815  48.5007286  75.5467606
  53.3035812  47.1217270  74.9705048  81.0968475  19.3972950  15.0316954
  81.5928040  19.6237850  15.8184366  81.3812637  20.0353527  14.3773088
  78.4095078  32.9942513  33.8198738  78.2312469  33.2051239  32.9033661
  77.7344971  33.4642525  34.3094521  61.2640572  17.8029003  30.5981522
  61.5564957  18.1917686  29.7738380  60.5468674  17.2207489  30.3472137
  71.9286270   3.8957000  12.1980600  72.4294205   4.6926169  12.0238237
  72.4435425   3.4282312  12.8557577  71.6717606  39.2734413   3.1049333
  70.7356186  39.2832794   3.3043432  71.8966904  40.1933746   2.9657862
  61.4364204  33.2283669  19.6686573  61.6016045  33.6181030  18.8101387
  62.0952072  33.6216507  20.2409897  32.8338051  51.6899643  82.9159393
  32.6746178  51.2523422  82.0796509  32.9569740  52.6106491  82.6848450
  25.4300690  46.5865173   7.2539921  25.3468952  45.8711815   7.8845510
  24.6374569  47.1086121   7.3781481  71.7050323  37.5267601  76.6273727
  71.6884613  37.5072632  77.5842361  71.7586975  36.6063843  76.3699493
  39.5828667  43.8294334  72.5263748  38.8360443  44.3389778  72.2119598
  39.4803505  43.8164330  73.4779816  56.3028641  66.2924423  82.6541214
  57.1473541  65.8419952  82.6410904  55.7555885  65.7929001  82.0481644
   6.1573243  12.9514046   9.5278120   5.8424125  13.2296057  10.3878508
   6.9177914  12.4018955   9.7174473  54.2560692  22.8544254  12.7358904
  54.1183624  23.7855034  12.9101439  54.2706947  22.4481735  13.6024799
  49.5411301   1.7932491  48.7148056  49.2896156   2.4326694  48.0483894
  48.7239609   1.3490961  48.9410744   5.3119755  65.9095078  51.2048759
   5.7571573  66.6934204  51.5266304   4.5377884  66.2428818  50.7513008
  63.4365959  60.5705986  41.9744186  63.2024155  59.8819237  42.5966072
  63.0407944  60.2920074  41.1486092  21.4608421  38.3326073  22.1690674
  21.2121220  38.7698135  22.9834518  20.8685913  38.6967888  21.5111618
  42.1044197  64.1980972  13.3978739  41.7688065  64.9401321  12.8949041
  42.9976196  64.0752335  13.0764179  61.6042252  60.0337372  10.7134514
  62.2958183  60.1984329  11.3543949  61.1908112  60.8870773  10.5825729
  30.8344021  51.0442085  12.3227921  30.3297482  50.8878059  11.5246105
  31.7481613  50.9921036  12.0425024  71.5111160  58.0531807  17.0865650
  71.0544052  58.8591347  17.3275738  72.3751144  58.3452263  16.7959518
  74.7468262  17.8284798  44.4159775  74.6317596  16.9153404  44.1529846
  75.6374359  17.8668976  44.7646446  67.5421219  25.4329185  81.6475220
  67.4843445  24.9964046  80.7976074  68.1129913  26.1853523  81.4920120
   0.5098763  21.4810143  16.8157501   0.3094168  20.5670128  17.0173702
   0.7827349  21.4696274  15.8983345  16.7525120  68.6054840  41.1364250
  17.1702671  68.7251129  41.9893036  17.3846283  68.9559174  40.5088425
  83.0653076   8.8080292  65.6576157  83.8785858   8.8391886  66.1614304
  83.3080750   9.1329231  64.7905884  49.1703796  39.7601395  84.5863800
  48.2392006  39.9299431  84.4438858  49.5715256  40.6289253  84.6091537
  41.0883217  69.0748291  76.3408890  41.6581192  69.8256912  76.5075226
  40.3786163  69.4272385  75.8039017  61.4638786  15.8379450  63.0088921
  61.6572380  16.7417297  63.2579231  60.5130844  15.7648354  63.0918617
  76.7829590  50.8217697  54.2393379  77.0696411  50.0249519  54.6855736
  76.3955612  51.3576813  54.9314041  18.6218987   1.2918434  20.9193153
  18.6739979   2.1178274  21.4002190  18.4131203   1.5501306  20.0215778
  34.6344986  61.9002953  80.0267181  35.4735107  62.0516586  79.5915451
  34.6946945  61.0042496  80.3579407  28.6303158  32.5581284  11.3734207
  28.0499878  31.7973671  11.3997383  29.1844749  32.4102516  10.6070843
  19.8598595  69.4761734  17.7347412  19.4408817  69.3749924  18.5894051
  19.1703300  69.8248291  17.1697483  37.1570778  61.4586182  25.4433613
  37.8700066  60.8228569  25.5047951  36.3604050  60.9325371  25.5124760
  70.1412659  50.1891212  41.4830093  69.3538132  50.6893616  41.6972771
  70.8498993  50.6571541  41.9246216  46.4730453  35.2081184  25.4037590
  45.6904678  35.6690063  25.7060604  46.1459122  34.5731888  24.7665157
   2.9812081  66.1411209  28.0823650   3.7389095  66.6810837  28.3072224
   3.1749682  65.2853470  28.4649010  41.0039902  36.4711380  64.6148071
  41.1992226  36.0892220  65.4705276  40.0740128  36.6935692  64.6583405
  52.5708275  22.7152710   4.5152264  51.8103981  22.1658173   4.3252740
  52.9570923  22.8943253   3.6579216  34.2862663  54.9177513  86.4879990
  33.8388596  55.0459976  85.6515732  35.0309181  55.5183296  86.4558640
  11.2255783  63.9721756   7.3195796  10.9155502  63.1912308   6.8610620
  10.4864817  64.2379227   7.8667059  79.7684402  61.3251228  15.4219170
  78.8982468  61.4964561  15.0618629  79.6264801  61.2488136  16.3654499
  77.7094498  30.1315002  71.7613297  76.8864670  29.8315182  71.3753967
  78.3886337  29.7182331  71.2282715   0.1943702  40.5713196  48.7426567
   0.0182691  41.3313103  49.2973022   0.5763373  40.9395905  47.9459686
  67.5356674  33.8255806   9.6206951  68.2467194  33.8422928   8.9801044
  66.7622528  34.0986137   9.1272202  45.3326912  61.5937157   6.3548346
  44.5077667  62.0404701   6.5449467  45.3767624  60.8875771   6.9995470
  47.3320007   7.7203498  80.1976852  46.8698120   6.9024844  80.3812866
  47.9911346   7.7833476  80.8889236  47.8382187  65.6235886  84.6054611
  47.2203407  65.2025070  84.0078430  47.4806862  65.4553299  85.4772949
  62.7299271  26.3503571   9.4343061  63.1183662  27.2237682   9.4842787
  63.4294128  25.7606735   9.7157774  46.7005272   9.8770323  87.1454086
  45.8474236  10.1354084  86.7965775  47.3031654   9.9863844  86.4098129
  12.6257076  59.0943336   0.8126778  12.7905102  58.7382202  -0.0603955
  13.4777670  59.0654831   1.2478715  21.5601692  38.4459610  81.3573151
  21.5442047  39.3937798  81.4900360  20.7031345  38.2420654  80.9829483
  26.8462048  44.2971420  80.0051422  27.7528629  44.1480598  79.7368546
  26.5130215  43.4254417  80.2181015  31.0429249  46.0480537  42.1417656
  30.4551506  46.4203949  42.7991219  31.2492619  45.1738815  42.4726524
  56.3600006  53.1799889  48.1706505  55.6873283  52.8409805  47.5800438
  55.9118462  53.2829285  49.0101700  31.9995537  11.3116159  80.1055832
  32.4284821  12.0190554  80.5870132  31.2568455  11.7325096  79.6726074
  21.2430210   4.1204567  79.1086731  21.8886108   4.8257813  79.0643768
  21.1506367   3.9387023  80.0439072  40.4261894  13.1020641  65.1039047
  39.5398064  13.4358797  65.2421951  40.3464584  12.1553249  65.2203598
  27.4872894  17.9967899   3.8654122  26.9166336  18.0169888   3.0971837
  28.0826187  18.7359447   3.7410524  67.6214600  33.0307236  87.4250031
  68.5486450  32.9656219  87.1962814  67.4297028  33.9675941  87.3833542
   0.5439866  13.9803562  66.1376114   1.0858651  13.9870796  65.3485870
   1.1645583  13.8422632  66.8531876  22.1787987  66.1966629  50.3464661
  23.0383930  66.1468582  49.9283142  21.5750828  65.8370590  49.6965065
  27.5938492  67.5318069  24.0798225  27.6916943  68.4755402  23.9532452
  28.2526417  67.1433716  23.5042019  68.2265472  60.8312111  77.0370178
  68.2046661  61.7147713  77.4045410  68.5812836  60.2878304  77.7406769
  66.0955200  46.4890709  53.1440926  66.7643890  45.8635139  53.4225311
  66.1404343  46.4780312  52.1880112  62.9867516  23.2519455  11.7718678
  62.6860237  23.9488354  12.3550835  62.9750481  22.4636345  12.3146944
  74.3600540  24.0946941  20.6249428  73.7576141  23.4421577  20.2678776
  74.8581543  23.6214809  21.2914257  56.1582909  21.7377701  83.5484390
  56.7325630  21.2410793  84.1313171  56.7378044  22.0583515  82.8573380
  51.6931419   3.7701731  87.7502594  52.2302704   3.6399753  88.5317764
  52.0009766   4.5989585  87.3834000  40.1713982  63.3118706   7.5118814
  39.6558151  63.8740540   8.0901175  39.6990204  63.3269997   6.6794968
  74.5879288  59.2293930  16.1060009  73.8882294  59.8788834  16.0366364
  75.1333237  59.3815422  15.3342304   1.8648798  14.7768221  17.5683479
   2.3594248  14.5068359  16.7945499   2.4649510  14.6297522  18.2994556
  68.7102585  22.8102474  14.1431217  68.7286987  23.5433502  14.7583065
  67.7859039  22.7126408  13.9144745  35.2146797  59.6793480  59.7812881
  34.9324112  60.1749916  60.5499840  34.4340706  59.1982918  59.5065765
  42.7572746  25.8457813   8.7136250  42.0428581  25.5775642   9.2914705
  43.1198921  25.0236950   8.3836040  39.0725021  37.5861549  40.3102875
  39.4794159  36.8714066  40.7999687  38.4615173  37.1514626  39.7153320
  54.8097000   6.7469063  19.2230778  54.1960754   6.8889046  19.9438629
  55.5194664   7.3678942  19.3869133  30.7098923  62.7771721  51.1327782
  30.8488674  62.4380226  50.2485313  31.1845474  63.6082611  51.1478882
   0.6141217   7.0549216  50.8435860   0.2724417   6.1901426  50.6163330
   1.1663307   6.9004378  51.6100273  15.5848017   9.9993076  17.2811928
  14.7082911   9.7897882  16.9586067  15.4864035  10.0405998  18.2324276
   1.3458301  31.5509014  58.0047188   1.8792597  32.2308655  57.5932198
   1.9774803  30.8903179  58.2891121  71.6927948  42.4742050  17.9919510
  71.1184464  42.8008232  18.6845417  72.5736618  42.5389328  18.3608856
  51.4153137  63.5701599  39.7329140  51.6981926  64.3961029  39.3404465
  52.1881409  63.0070877  39.6891174  78.4419632  27.2308903  65.3518753
  77.8840485  26.4725475  65.5247192  78.1675491  27.5381737  64.4878769
  84.8081284  69.6143188   3.8465722  85.5771713  69.0444031   3.8472652
  84.1843414  69.1755447   4.4250169  61.2486572  38.2653046  70.1515198
  61.0970306  37.3266525  70.0411835  61.1731987  38.4108810  71.0945740
  26.9112873   0.4589132   4.4525828  27.3369751   1.2763014   4.1939363
  26.7061958   0.0234397   3.6252182  77.3519897  10.6274586  84.2808838
  78.0373383  11.2915154  84.2063904  77.6504898   9.9112644  83.7203522
  40.3583794  44.1661568  56.6569061  41.1862259  44.1562576  57.1373253
  40.2720757  43.2781715  56.3101120  78.8758698  62.8117104  50.1420403
  77.9821091  62.4881668  50.0291901  79.0891571  63.2232285  49.3045464
  63.0739365   1.4738649  16.4436474  63.9313087   1.8211430  16.6897068
  63.2238464   1.0380152  15.6047230   9.6962194   0.2510346  52.6292381
   8.7578812   0.2376471  52.8178482   9.8708534   1.1486099  52.3462296
  16.0997677  58.9298134  22.2880669  15.7611799  58.1072807  22.6416645
  15.3904524  59.5583229  22.4225216   8.0938559  60.7219353  77.7340012
   8.2434750  59.8469429  78.0921021   8.4565277  61.3151932  78.3918381
  49.7521667   5.7951555  18.1519203  49.8275909   5.0488873  17.5572548
  49.5343475   5.4055958  18.9986954  43.2319374  54.2678223   5.1431861
  43.8920822  54.9551506   5.2327418  43.7353897  53.4541397   5.1169772
  64.1412811  55.3407478  79.3682251  63.6416893  56.1500092  79.4765625
  64.4398499  55.3634872  78.4590683  25.6043758  11.6619654  70.9801559
  26.1082077  10.8546534  71.0832748  25.9266739  12.0427408  70.1632309
   4.5869508  45.5583229   8.1771612   4.3625193  44.6816025   8.4889774
   5.5439844  45.5700531   8.1637335   1.1694701  55.8891563   2.5675404
   1.9184208  56.1674728   3.0946496   0.5660430  55.4955940   3.1977923
   3.6393213  19.0545120  58.0003471   2.8622060  19.5213470  57.6931152
   3.3819678  18.6932392  58.8485680  65.5318909  59.9329453  30.8601074
  64.9449539  59.1769829  30.8759708  66.4074020  59.5585098  30.9576817
  66.3152695  18.7576580  21.5739727  66.2651367  18.4223232  22.4691086
  65.6081772  19.4004955  21.5190735  40.0862350  10.5746689  65.6991196
  39.1899452  10.5161867  66.0299835  40.0811119  10.0487309  64.8993683
  62.4087029  39.4660339  75.4927444  62.3948021  38.7056694  76.0740280
  63.2760086  39.8500443  75.6213989  12.1017294  46.9711723  38.6458092
  11.4124126  46.7859879  38.0080147  11.6619616  46.9227333  39.4946251
  48.3274956  33.4813843  16.8307152  47.7657433  34.2532616  16.9005566
  47.8178444  32.7771950  17.2314739  76.2969894  71.7949524  37.0934181
  75.9975433  71.3158188  36.3207703  75.6196899  71.6364136  37.7509575
  32.5445671  38.2040482  66.3268967  33.4277229  37.9202805  66.5629883
  32.6713295  38.7778473  65.5713120  58.7702293  15.6666775  19.2621193
  59.5949059  15.5935078  18.7817173  59.0235596  15.6072559  20.1832733
  21.6098003  58.9266968  46.1905861  21.3519974  59.7756233  45.8312912
  21.1157246  58.8521347  47.0070152   3.3810906  42.0401268  79.3389359
   2.6777437  41.4181442  79.5251465   4.1856809  41.5445061  79.4913406
  52.6752510  69.7162170  24.4205379  52.7581062  69.7554626  23.4677391
  52.4739685  70.6151276  24.6806793  29.3422318  45.6739464  21.9587059
  28.9043274  46.3290520  21.4152813  29.5753708  46.1439514  22.7593136
  51.2544327   7.4773593  73.8562241  51.8487053   6.7373466  73.9805298
  51.8304863   8.2179079  73.6665344  53.0362701   0.6497977  25.8857346
  52.6259613   1.5005684  25.7305965  53.9399643   0.8592003  26.1217899
  58.4136543  38.8169785  66.9806442  59.1066742  38.1834259  66.7947159
  58.8772087  39.5948601  67.2908936  54.9665680  38.4259186  68.5980988
  54.3126526  38.5920563  67.9191132  54.5604630  37.7717972  69.1668167
  25.9652328  51.4425087   0.8844141  26.2544308  50.8190842   0.2181268
  26.7746010  51.8315163   1.2158213  35.4292221  61.4191360  44.3676949
  35.8723412  61.7730598  45.1388054  36.1244965  61.3168297  43.7178001
   3.8396235  31.3053761   2.3663416   3.6617308  30.7932262   1.5774893
   4.0574613  30.6525860   3.0316567  84.4616470  41.7625618  63.0299301
  85.3722534  41.5930214  63.2713547  84.0378189  40.9056053  63.0771255
   4.1763144   5.2813373   1.5701443   4.3448253   5.2485166   2.5118229
   4.8718681   5.8390036   1.2216539   1.5790039  24.5960255  37.2430000
   2.1198025  24.0306740  37.7944946   1.1834580  25.2184429  37.8532257
  43.9162560  63.4811211   9.4801731  44.4509773  62.7886162   9.0919189
  43.4602470  63.8765793   8.7372732  57.1211052  59.7626305  38.1639709
  57.3336716  60.6910591  38.2591858  56.9032249  59.4746666  39.0504456
  36.9859428  19.0593719  12.7771397  37.4757423  18.2418251  12.6879978
  36.4013214  18.9085579  13.5199080  41.4607010  -0.0445715   8.6563587
  40.5467911   0.2006232   8.5118465  41.9482918   0.7713867   8.5436716
  41.2195282  21.2225037  78.4403610  40.9507942  20.6778603  77.7005081
  40.4782524  21.1878872  79.0449600  78.3749542  25.0064297  75.3963928
  78.1962051  25.9446507  75.4598007  77.7156525  24.6777630  74.7852249
  37.8415108  14.8590517  83.4732819  37.8305130  15.7129326  83.0408478
  38.4989128  14.3557558  82.9929199  84.9391785  58.3940620  35.6738358
  84.0301666  58.5140572  35.3990135  85.4561462  58.7790565  34.9661942
  78.5413055   2.9299521  48.9304047  78.1639557   3.7638426  49.2105217
  78.7891235   2.4933956  49.7454109  62.6208725  52.4481354  88.6739273
  63.3520851  52.9416656  88.3024673  62.6199074  52.6833801  89.6017685
  16.9833698  31.1048870   4.1273465  17.4054508  31.3580265   3.3063717
  16.8708401  30.1569710   4.0564661  69.6586304  61.8178749  31.6345367
  69.6184692  60.8615685  31.6446190  70.4243927  62.0197830  31.0968857
   4.5434303  71.3047333  74.3243179   4.0105720  70.9662857  73.6047668
   4.2327981  70.8309250  75.0958328  47.2144623   4.5426850  32.2590828
  46.5317230   3.8957860  32.4368973  46.8343010   5.1151524  31.5927563
  45.5824318  11.3373575  76.6129456  45.1771889  11.4942570  77.4658203
  44.8597870  11.0537996  76.0529404   1.6805918  40.4691010  51.5978279
   1.2674456  40.3835182  50.7386322   1.5302461  39.6238594  52.0211487
  29.8261013  43.8275299  13.7293882  30.0968819  43.1822662  14.3824921
  30.2456760  43.5386543  12.9189930  41.9848976   0.0909816  54.6870079
  42.6038742   0.8193030  54.6355362  42.2474289  -0.4969650  53.9787483
  44.2594490  43.2475967  63.6432457  44.0901070  44.1884995  63.6907921
  43.4679604  42.8435135  63.9989128  13.5889416   8.8345423  50.2229805
  14.1041355   8.0306196  50.1557846  13.4918833   8.9788456  51.1642494
  29.9188461  11.9332409  78.0733719  29.4637623  11.1520824  77.7588501
  29.3336315  12.3010502  78.7355423  22.0196686  49.4150810  69.8833389
  21.2678280  49.7821655  69.4183502  22.7812061  49.7917557  69.4424210
  44.7417183  59.6675720   8.3651943  44.0561218  59.5043755   9.0129271
  45.0315933  58.7952385   8.0982866  69.0464478  18.8640900  52.3251190
  69.1337280  18.8989182  53.2776947  69.6320648  18.1561203  52.0566711
  50.1766930   7.6109357  16.0807076  50.0579185   7.0074220  16.8141212
  51.0606346   7.9590521  16.1977253  62.2662773  46.5129585  10.8616829
  63.2224884  46.4741478  10.8813229  61.9849205  45.6828880  11.2464581
  15.0785484   0.8931081  28.2406826  14.4101810   0.2414340  28.4524345
  15.6931686   0.8526230  28.9733734  69.5941010  41.1126556  30.1221657
  69.2350616  40.6474152  30.8777275  70.5267868  41.2029533  30.3175430
  75.0553360  69.0267334  67.3613358  74.8854675  68.6720428  68.2340164
  74.1874008  69.1265259  66.9702377  31.1274662  63.9140244  36.7795753
  31.4534264  64.8137131  36.7562332  30.2839661  63.9531136  36.3287811
  28.8995838   0.8908694  78.5882874  28.2816486   0.7361072  77.8738403
  29.6760406   1.2508712  78.1596375  22.3867111   2.4221587  87.4847031
  22.1687202   2.7267566  88.3655701  21.9783478   1.5587164  87.4219437
  59.4332848   4.7558050  81.8489685  59.8288498   4.0610838  81.3225479
  59.4027977   5.5122733  81.2632599  20.6553555  29.5906029  30.3315372
  20.2068348  30.4046326  30.5604820  21.3656330  29.8636379  29.7508564
  62.1910133  31.4994106  26.5539970  61.2339020  31.5047207  26.5418739
  62.4194565  30.7472763  27.1002007  76.4732056   0.2219837  13.5332584
  77.2192535  -0.3726391  13.4553280  76.2751083   0.4770851  12.6321974
  36.5108414  27.5650444  86.8384552  37.3709068  27.8797951  86.5601425
  36.2078171  28.2203712  87.4669037  81.2142410  24.1713829  63.2256889
  80.9729156  25.0091228  62.8304863  80.6667480  24.1092415  64.0083923
  46.1675186  44.3714371  59.7253647  46.1953239  44.6441994  58.8082695
  45.2622261  44.5274773  59.9943123  66.2122955  39.3415947  42.1224556
  66.4342575  39.1679001  43.0372238  66.0453415  40.2836037  42.0912094
  66.9906616  52.8434525  64.9174881  66.8271637  51.9005699  64.9392319
  67.8322525  52.9508858  65.3606720  55.8954773  34.8292236   9.0185804
  56.5720329  34.3501511   8.5400429  56.1971664  35.7376289   9.0147705
  69.9006729   0.9885517  63.3758049  69.8630829   1.7603084  63.9407921
  70.8298798   0.7611740  63.3424377  31.0083771   6.7734685  69.2016983
  31.8245773   6.3730621  68.9021530  30.5875053   6.0940485  69.7284622
  28.7193222  54.2354240   7.3643055  29.5809116  53.8236427   7.4301338
  28.8698101  55.1470337   7.6144133  72.3307114  22.3141270  74.5617828
  72.1866379  21.5212326  75.0783081  72.6274948  21.9943295  73.7098007
  81.2748566  52.9301147  37.3633003  81.3802948  53.2653580  38.2536507
  81.0493927  53.7008133  36.8423157  64.4922409  54.5860939  70.7672958
  65.2413330  54.6163216  71.3624268  64.2023773  55.4959145  70.7007065
   8.0111618  47.7141495   6.4929690   8.4470406  46.8620338   6.5046649
   8.2519894  48.0947952   5.6483722  13.7328529  56.0843582  34.8013840
  14.4175081  55.5368881  35.1857681  12.9153280  55.6444473  35.0345421
  57.6480980  41.5922470  28.6746101  56.9835815  41.4951515  27.9925346
  57.1939201  42.0377312  29.3897991  29.9316254  49.1330719  84.7896652
  30.7141037  49.1169968  85.3407593  29.6027927  50.0287094  84.8666840
  84.2224579  30.2463531  64.7238693  84.7873917  29.5821762  64.3289642
  83.8058853  30.6800156  63.9791260  70.9118652  39.9724159  66.9626236
  70.7605591  40.7322464  66.4004898  70.2005310  40.0023766  67.6024246
  79.9361420  23.8343544  20.2235985  79.0811691  23.8810673  19.7957325
  79.9952240  22.9339695  20.5430508  20.2587872  12.8443623  70.6151352
  20.0904198  13.6786680  70.1771698  19.4591923  12.3363066  70.4781723
  76.6363449  61.2497101  28.1731567  77.3331680  61.8904800  28.3148823
  76.2948914  61.4557076  27.3029804  26.6778603  47.8788185  49.6234741
  27.4787865  47.6620674  50.1007233  26.0756187  47.1637764  49.8290329
  53.4307823   8.0562458  50.2095375  53.8222656   7.2104931  50.4278908
  54.0117683   8.7006254  50.6138458  32.7279129  22.1564770  67.5335464
  32.7129860  21.7615070  66.6617584  31.9689732  21.7807693  67.9797363
  85.5136948   9.9557095  18.6170788  85.7150192  10.4050026  17.7962036
  85.2441254  10.6547241  19.2128487  47.7672501  39.3429260  26.0742683
  47.3598137  39.3344765  25.2081528  47.0458717  39.1727448  26.6799793
  85.7906113  55.3909340  10.5534134  84.9221802  55.7933578  10.5640888
  85.9452286  55.1308060  11.4615202  27.0406132   9.5632982   7.8582139
  26.8957748  10.2333555   7.1901741  27.0192909  10.0424252   8.6865950
  66.7109833  60.0945473  19.0285053  67.0390854  59.2630959  19.3709488
  65.9768829  59.8487396  18.4655666  65.5305862  70.9414291  37.3929787
  64.7787933  70.4038315  37.6420403  65.1523972  71.7900391  37.1626282
  73.0213623  34.3053894  70.8236771  72.2253265  33.9068413  71.1754074
  73.7351990  33.8264427  71.2447357  46.9198074  66.2735748   3.2235951
  46.8325272  65.3694229   3.5254464  46.5072289  66.2786179   2.3598912
  -0.1500802  45.4556274  24.5223141  -0.4132893  46.2355156  24.0337181
   0.7896871  45.3763084  24.3586750  53.7211685  45.1213074  50.6118431
  53.3812103  45.3542671  51.4757843  54.0315056  44.2212906  50.7112808
  44.0432320  52.5547104   8.5745878  43.4451447  51.8667755   8.8665876
  43.9097366  52.6022186   7.6279340  54.3821449  61.1592445  22.7975883
  53.4431572  61.1952248  22.9799004  54.7015114  62.0357628  23.0119572
  27.4114227  40.7580986   4.6827636  26.6093464  40.8452721   4.1676826
  27.2901421  41.3584862   5.4183273  11.6586533  63.3785667  30.8593025
  12.5647268  63.5496788  30.6024303  11.5654078  63.8086014  31.7093639
  47.3200035  36.0509834  17.7525501  47.1334457  36.3059959  18.6560974
  48.2622490  36.1881752  17.6546440  10.6346550  55.2799034  10.8191204
  10.7174749  56.0412369  10.2448845  10.5479946  54.5373383  10.2213593
  38.9073143  63.9931984  56.4679108  38.3851662  64.1719818  57.2499809
  38.3325348  63.4680443  55.9110641  85.2121201  16.7768383  55.7036018
  84.9130096  15.8677082  55.7192497  85.9097900  16.8107395  56.3580742
  76.9477005  69.0532837  64.7230148  77.5863800  68.4638062  65.1240463
  76.1530762  68.9353485  65.2434998   8.1042128  55.2668991  -0.0662479
   8.9129877  55.4825592   0.3980857   7.6559000  54.6468315   0.5088710
  60.6651421  11.3032026  85.9319077  60.1007614  12.0315580  86.1911545
  60.9533043  10.9172993  86.7591171  77.8899612  27.3129578  82.6137619
  78.8217850  27.1081181  82.6909866  77.4453201  26.5000763  82.8540802
  77.9217758  55.5913734  76.5567780  77.6167526  56.3206520  77.0965424
  77.8798447  55.9232559  75.6599350  62.7172852  42.5788231  54.6059036
  63.6334381  42.4381027  54.3669701  62.2721443  42.7266960  53.7715073
  41.7719078   7.6023960  86.8863678  41.9748611   6.7630610  86.4733810
  42.4517250   7.7128439  87.5511093   7.2896686  30.4780216  63.7607574
   6.7220869  30.4388943  64.5305328   7.8049197  31.2753391  63.8833694
  26.0646954  54.4832077  14.4359350  26.5202961  55.2157784  14.0212078
  25.4572392  54.8956871  15.0500116  18.9775066  56.6590462  13.5648022
  18.0736256  56.9497833  13.4435539  18.9582787  56.1482048  14.3740644
  65.1635742  52.4645767  28.0547695  65.2081146  52.6059494  29.0004234
  64.7938995  51.5866394  27.9609909   4.2367072  55.7090759  42.5095596
   3.9164960  56.4719505  42.0281868   3.7136097  54.9794579  42.1775017
  35.9189758  49.2207985  65.0901642  36.7818069  49.3736191  64.7049408
  35.3767242  48.9319382  64.3561630  68.7501831  69.6080093  25.0523338
  67.9537582  69.7104797  25.5733395  68.9785614  68.6829224  25.1433449
  29.8279877  49.9308815  22.0524235  29.7881279  49.2450981  22.7190132
  30.7215042  49.8828392  21.7124939  32.3133621  14.5011892   9.2813148
  32.3908691  15.4190731   9.5415316  33.2158508  14.2153397   9.1397743
  84.1122665  21.0998440  58.2556877  84.8010635  21.3249073  58.8810997
  83.5139236  21.8466053  58.2793694  62.3144417  18.3033390  63.5696449
  62.4010925  18.6088352  64.4726410  63.2039413  18.0606289  63.3125114
  55.5540314  45.9640884  70.3481369  55.6000290  46.5343437  69.5807266
  54.7251053  46.1939392  70.7679977  55.2169724  38.5975456  74.3497543
  55.9610825  39.1989365  74.3203278  55.1125526  38.3909683  75.2785416
  19.5633736  69.4858551  40.2396660  19.7703094  68.9562759  41.0097008
  19.4627380  68.8497543  39.5315132  84.4233856  14.1255369  47.0351448
  85.2725220  14.1589823  46.5946121  84.2108765  15.0412645  47.2154655
  40.6169167  35.4238930  76.6503220  41.0815620  36.2501144  76.5173187
  40.3365479  35.1628761  75.7731094  64.8884125   9.8759460  88.2866821
  64.2095108   9.3276539  87.8933640  65.1531830  10.4700260  87.5844040
  34.9610558  64.8555374  53.9102936  34.0829315  65.0883789  54.2118111
  35.3154716  65.6698761  53.5532532   2.3075843  68.1427536  73.7977982
   2.4538422  68.8401260  73.1586533   2.5968773  68.5162888  74.6302719
  26.6431503  67.4501114  40.7285995  25.7451458  67.3307648  41.0377541
  26.9211407  66.5754089  40.4568481  28.0480576   0.3594532  13.1148367
  28.2640095   0.7220320  12.2556906  28.7324944  -0.2889908  13.2800636
  75.6096954  63.3312759  24.0340176  75.4246292  64.2580338  24.1859970
  75.6282806  63.2438965  23.0809937  31.2020779  70.7690430  86.5479736
  31.2286320  71.6685791  86.2218399  30.3539124  70.4338303  86.2573166
  68.9507141  31.0599499  76.2634964  68.8351212  31.7640591  76.9015427
  68.5124283  30.3055725  76.6572571  75.0871658  44.5911293  75.7232819
  74.1464157  44.4284821  75.7922668  75.3780365  44.0176086  75.0142670
   0.8798485  39.6818771  31.6991787   1.0865434  39.1628952  32.4764633
   0.1053788  39.2592239  31.3279743  55.7245216  53.1018753  44.4117432
  55.0574303  52.9810982  43.7359962  55.2299690  53.3338127  45.1977806
  38.7260590  59.3500977  85.9110413  39.5730019  58.9506035  86.1093445
  38.8026962  60.2474251  86.2353363  16.4672775   4.5761871  29.4227962
  17.1815853   4.4579110  28.7966938  16.8665543   5.0443006  30.1560631
  39.6915169   1.2080160  34.2022247  38.9350929   0.6215917  34.2149696
  40.1672478   0.9680352  33.4070396  47.1614380   2.7547400   5.3733602
  47.5511932   2.0187008   5.8451328  46.8861084   2.3832357   4.5352602
  58.8979263  12.5916634  20.1299248  59.4240685  12.9380922  20.8506145
  58.1477280  13.1836195  20.0749474  20.4981632  38.1391373   1.8918948
  19.6450615  37.8316269   1.5854886  20.9113998  37.3624649   2.2690525
  66.7494583  35.6214790  87.6149902  66.8635178  36.3321686  88.2459793
  67.0438690  35.9908218  86.7824402  80.8710251  46.1733093  38.5575142
  80.7939911  46.3176727  37.6144028  80.1493759  46.6752129  38.9363785
  37.2611122  69.4348068  85.4454193  38.2111092  69.4682312  85.3330688
  37.0911369  69.9826279  86.2117233  70.1389542   8.5550222  67.4014511
  69.4183273   8.4575176  66.7790298  69.7097397   8.6523170  68.2514801
  67.6008911  64.8108521  11.4203529  68.4077530  65.2499084  11.6895065
  67.4964981  64.0957565  12.0480289  71.5277405  37.9355850   6.4924312
  70.8998795  38.0053520   5.7733002  71.0751953  37.4146538   7.1558061
  77.9415054  30.4742622  78.5918121  78.0653992  30.4042988  77.6452408
  77.7459259  29.5808983  78.8744431  48.7062836   0.0821582   8.8746462
  49.3690987   0.7423877   9.0771456  47.8743095   0.5047436   9.0878878
  27.4174099  10.1212740  78.3218231  27.0877094   9.2815552  78.0018158
  26.7748260  10.7623749  78.0179977  48.2488594  16.9094830  58.6585808
  48.4610519  17.7818661  58.3266869  48.1790428  16.3652668  57.8742447
  38.1922913  51.8542290  86.1417923  38.3712654  51.2004890  85.4659042
  39.0429916  52.2564240  86.3172379  29.0110111  17.4498577  14.9429426
  28.8866539  18.2245750  14.3946915  29.9019527  17.5368195  15.2819014
  54.7901306  22.8573418  70.8097916  54.4106674  23.1437130  69.9789886
  55.5446396  22.3250198  70.5576324  55.0326805   2.0590472  70.3031158
  55.8368492   2.2813969  70.7722626  54.7309074   1.2495874  70.7153473
   1.1933994   5.0396490  42.0651627   1.5423967   4.4360685  41.4093246
   0.4386856   5.4460173  41.6391296  78.7150040  38.6081123  87.8358765
  78.2444229  39.4288445  87.6903305  78.2128372  37.9545326  87.3491592
  46.9114799  42.4889374  35.1319237  47.4234848  41.7767143  35.5150948
  46.0272217  42.1315269  35.0508308  83.6035767  17.5087719  66.4377365
  84.4150314  17.0012112  66.4501190  82.9129257  16.8595390  66.5708847
  50.5902100  56.0281601  38.4595413  50.4019127  55.0935860  38.5452385
  49.7293205  56.4402618  38.3869057  52.9251709  58.6789780  88.1686325
  53.6585999  59.2368698  87.9096603  52.9490051  57.9493217  87.5495529
  73.1818314  18.0354309  48.9602280  74.0566711  17.6933327  48.7762299
  73.3254852  18.7234936  49.6099701  40.3618279  67.6733856  72.3094406
  40.5925179  67.9665604  71.4279251  39.4196205  67.5096741  72.2684937
  52.4249496   4.8417878  20.2519112  52.3694801   5.7894011  20.1286888
  52.9984245   4.5417223  19.5467014  75.9130096   2.5588090  68.9471588
  76.3856125   2.0373049  69.5959396  75.0679016   2.7427588  69.3572693
  56.5373077  28.5087929   2.8143866  57.4245567  28.2274742   3.0377190
  56.1774940  28.8416386   3.6365666  81.6419220  68.3409805  57.8382072
  81.2494736  67.4816437  57.6840935  82.3271179  68.1785812  58.4865608
  72.0163269  45.0223083  34.9241867  71.6154327  44.1696205  35.0928383
  71.4431000  45.4326057  34.2766533  41.1107178  26.8304672  83.2382812
  41.3397331  27.1990433  84.0914764  41.7031364  26.0861588  83.1320953
  47.1058006   3.6810584  86.0000305  47.0573502   4.5747228  85.6605530
  48.0309334   3.4466829  85.9263458  79.6274719  47.2657127  82.1269302
  79.5989838  47.4622841  81.1905670  79.7144699  46.3134155  82.1692123
  19.7182541   8.4679203   8.7089443  19.3126659   8.2826700   7.8619423
  19.4276600   7.7529335   9.2751446  83.9501953  39.6882858   4.4836469
  83.6725922  40.2137260   5.2340341  83.6543045  38.8015633   4.6895652
  53.3537750  60.7690315  79.9600906  54.2516594  60.6610527  79.6464386
  52.9907036  61.4648399  79.4121323   0.9427047  63.7612000  26.4592953
   0.2207963  64.3328476  26.7206383   0.5606071  62.8836708  26.4460449
  67.4569321  14.6560917  18.3253860  67.7013931  15.1794538  17.5621281
  67.3453751  15.2957773  19.0286560  77.7851944   1.9241631  70.9417343
  78.0273285   2.8412082  71.0706863  78.4683151   1.5742176  70.3697968
  85.7499161  35.4344711  73.0631714  86.3386765  36.1873627  73.1155777
  85.9494781  35.0327682  72.2175674  79.7367859  15.4287977   1.6535672
  79.9149399  15.8834515   2.4768419  80.5763779  15.4279280   1.1938829
  73.9432755  24.0575657  45.3636055  73.4853363  24.6383438  44.7559700
  73.9613342  23.2106857  44.9178505  19.3857918  34.5668411  79.2934723
  19.9722404  34.6534920  78.5419388  18.5788631  34.2050400  78.9271393
  35.3017464  66.0363312  72.8884735  34.5177879  65.5936737  72.5633698
  35.9835167  65.8119507  72.2551651  51.7474442  59.2411613   9.3456516
  51.2667961  59.2809258   8.5188332  52.6557159  59.4219780   9.1036291
  29.3015842   1.7074096  10.9628334  30.0284100   2.3273060  11.0235415
  28.7312469   2.0725408  10.2863522   5.3469858   5.0626259  68.9074478
   6.1613445   4.7319694  68.5283432   4.7758613   5.2130218  68.1541672
  50.3884392  10.8187675  71.8015747  50.3480682  10.0595579  71.2200241
  51.0968781  11.3553877  71.4460678   9.9509115  50.5017319  88.2392197
   9.5450926  49.8159294  88.7695160  10.7316971  50.0887680  87.8703461
  27.1030846  48.6912689  82.3713150  28.0565624  48.7152367  82.4521790
  26.8687000  47.7844238  82.5686188  72.5220566  25.1532707  74.2799911
  71.8396149  25.1024933  73.6107254  72.6710434  24.2440758  74.5396118
  17.1598396  18.6438046  84.5112228  16.3098774  18.2520256  84.7119827
  17.4016762  19.1133804  85.3094940  32.1540146  24.8176804  75.2536163
  31.5778599  24.3860512  74.6227646  31.5799694  25.4158649  75.7320328
   0.2386392  48.9089050  30.7332325   0.2229653  49.6588745  30.1386490
  -0.1745654  48.2017784  30.2377853   2.0444806  65.9822235  86.1773605
   2.2808313  66.7468796  86.7024078   2.8692620  65.6979218  85.7834854
  76.5359802  54.8946075  65.4559631  76.2372513  55.2483559  64.6181946
  75.7526245  54.5052490  65.8445358  43.1586075  10.8359737  74.7779922
  43.1373024  11.7169294  74.4042358  42.4410362  10.8271265  75.4114304
   5.3013763  39.6721573  50.8194580   4.9900007  38.8958130  50.3540916
   6.1852789  39.4415474  51.1054039  81.5903854  35.0869293  33.5816383
  82.3343811  34.5182037  33.3834991  81.1090775  34.6219749  34.2660255
  38.3860703  19.1240768  69.7944794  39.3186073  18.9083748  69.8034134
  38.2622833  19.6835117  70.5612564  17.1055603  52.7076530  20.8360252
  17.8227386  52.8417511  20.2164249  17.3698940  51.9421844  21.3463364
  16.4636211  18.2618065   3.8700688  17.2200756  18.3023891   4.4551864
  15.8987246  18.9785557   4.1588511  24.9915619  40.3389091   0.9592280
  24.3215961  40.2693367   0.2791271  25.7294464  39.8313675   0.6213591
  23.1828938  67.7308197  55.9023247  23.6880856  67.5043335  56.6831665
  22.9677105  68.6565094  56.0164337  68.6255798  68.5211105   0.6974134
  68.1004715  68.6505203  -0.0923651  68.0118408  68.6605530   1.4186045
  52.6848030   9.6853409  15.3010015  52.8374062   9.9586325  14.3964262
  53.3348656   9.0003080  15.4571505  13.7372847   2.2372894  12.3048429
  13.1937103   2.9301155  12.6800108  14.5867281   2.6529608  12.1568737
  19.9552956   7.9255028  53.1600723  20.5184212   8.4210443  52.5654640
  19.5271568   8.5928526  53.6963310  15.9930239   7.7363720   9.7588978
  15.0841904   7.6926508  10.0561218  16.1987000   8.6712008   9.7539749
   5.2340865  47.6029472   1.6224104   4.6819124  47.0667763   1.0533276
   4.6216578  48.0129967   2.2331648  69.3074188   8.4537687  69.9812012
  69.7287521   7.5948000  70.0109100  68.3886490   8.2769947  70.1833115
  47.0357971   0.5440609  49.6506958  47.0703316   0.0645412  48.8229866
  46.3869171   1.2318926  49.5021210  70.8080673  47.0257454   9.1853514
  71.1559906  47.9073067   9.3196383  71.0420532  46.5517807   9.9833736
   6.2802520  27.2391968  57.0123940   7.1065950  26.9260521  56.6445198
   5.6213756  26.6353951  56.6695518  41.7077026  50.0949020  77.1071014
  41.6467819  50.7641945  76.4255066  42.3715019  50.4278336  77.7110519
  47.7778625  39.5705109  17.0531521  47.2988167  38.7787857  16.8083763
  48.1806145  39.3562279  17.8946438  21.2521381  55.6842461   6.5207782
  21.4573879  54.8170280   6.1714392  20.5680408  55.5247650   7.1710148
  12.1526299  45.6205940   1.2234042  11.8529263  45.6965904   2.1292932
  13.0818844  45.4027786   1.2960316  55.5401649  60.5815201  19.5564613
  54.6933327  60.3995857  19.9638996  55.3321953  60.7526169  18.6379261
  79.7222214  49.7368164  42.0853004  79.8155365  50.6654167  41.8726387
  79.5108185  49.3198776  41.2500153  78.8862228  38.3146057  77.4754868
  78.1602936  37.8510513  77.8930740  78.5965729  38.4499969  76.5732651
  12.3961678  62.7067947  12.9414921  12.6672955  61.8125114  12.7341824
  12.5465975  63.1962395  12.1327620  20.8563099  51.6743584  38.3102379
  21.4134026  51.6650124  37.5319099  20.0201836  52.0239220  38.0021324
  74.9227448  63.3546448  88.3852692  74.7365799  63.9853363  89.0808334
  74.8723907  62.5012932  88.8159561  58.8263817   3.6226079   4.9332581
  59.5491104   3.0129650   4.7841558  58.2519951   3.1671846   5.5488057
  10.7527542  16.2748451  76.8965225  10.9130230  16.8077984  77.6753082
  11.3101330  16.6627941  76.2219467  52.9961815  29.1246395  88.4303589
  53.2568016  29.2823620  89.3377914  52.7041168  28.2131443  88.4200287
  41.8845177  55.7544861  83.7167511  42.4983635  55.6680107  84.4460983
  41.8758163  56.6913795  83.5208282  27.6567688  38.8475266  71.8756180
  27.5364742  39.7879257  72.0075455  26.8066139  38.4646187  72.0920639
  53.5711403  39.9970551  28.6514969  53.2076035  39.8123131  29.5174904
  53.8740768  40.9033394  28.7072678  20.4569225  54.8336143   1.2877702
  19.6392975  54.6188889   1.7367855  21.0205326  55.1905670   1.9741793
  62.4564438   5.8790660  76.3009415  61.9139977   5.6405525  75.5492172
  63.0424347   5.1316557  76.4202118  46.1910973   1.0852227   9.4008398
  45.7213249   1.0162542  10.2319794  46.0299492   1.9822828   9.1083574
  68.6242676  27.0065422  26.8880177  68.2096405  27.2995358  26.0765533
  69.4357758  27.5116653  26.9382801  51.4949112  64.7900848  58.2754555
  52.3795166  65.1092377  58.0970154  50.9204750  65.4886475  57.9619751
  15.3977909  67.5573730  51.8135910  15.0858908  66.7733231  52.2654953
  14.6039495  68.0596237  51.6297646  16.4180813  11.0653372  62.9623642
  16.9652462  10.8692236  62.2018471  16.3381367  10.2294474  63.4218521
  44.4798164  46.3975716   8.8863621  45.0954285  46.8370705   9.4729586
  43.9512520  45.8462372   9.4633207  73.2179413  32.5054550  60.6594238
  73.3435440  33.3382950  60.2046356  72.7566833  31.9544411  60.0270844
  15.8570232   2.8114247  86.3064117  16.6873398   2.3927853  86.5334549
  15.2648754   2.5710859  87.0190353  73.5682220  61.6206474  84.8020172
  73.6314240  61.7113228  83.8512192  73.8478699  62.4703102  85.1427612
  80.0025253  16.7125473  40.9273720  79.0707703  16.5303154  41.0492706
  80.2196655  16.3008595  40.0909576  60.8843803  55.2530823  41.2926025
  60.0695076  54.8380013  41.5753059  60.7738228  55.3807449  40.3504143
  55.4313011  61.6336098  12.6931019  56.0568848  62.1471214  13.2041645
  54.7237587  61.4378090  13.3073330  73.0247726  62.4511986  76.1019745
  72.5921097  61.9089355  76.7615128  72.7675171  63.3465919  76.3217850
  50.8517113   9.7309093   8.6340599  49.9968376  10.1426992   8.7599783
  50.7046242   8.8069620   8.8363428   0.5285815  35.9610786  20.9479313
   0.8843311  35.7200584  20.0926056   1.2905598  35.9824829  21.5268650
  59.3143196  42.1399193  10.8558760  59.4153786  42.6016006  11.6882648
  58.4265137  41.7833748  10.8859911   7.4898419  34.5684509  85.6770020
   7.3468256  34.0697289  86.4813995   8.4415426  34.5961151  85.5783539
  35.8422546  12.8130121  75.3324127  35.8832359  13.5790176  75.9049377
  36.2744141  12.1187658  75.8298950   3.0550346  60.0392075  59.2444878
   3.6945739  59.3794861  58.9761772   2.3858073  60.0161400  58.5605011
  80.4363022  44.1177788  49.3539925  81.1768723  44.6156540  49.7002602
  80.7874832  43.6703758  48.5841026  62.4930344  45.7561226  77.0369110
  63.2692528  45.5281372  76.5253143  62.8390427  46.1914558  77.8160095
  57.8295822  36.7413826  17.6303902  58.0486145  37.3852577  18.3039513
  56.9316444  36.4788780  17.8329468   6.5565891  64.8171844  75.8594513
   6.3190999  63.9145660  76.0718460   7.3179488  64.7356949  75.2850647
  36.4937859  60.3778763   8.9742775  36.2840881  60.0698357   8.0925903
  37.3031349  59.9202080   9.2017069  78.2373276  19.0897770   6.1504765
  77.9909515  18.8666325   5.2528462  77.7270279  19.8744221   6.3508844
  43.5274925   2.1888461  30.8612957  43.3965759   1.3575004  30.4052734
  44.3822365   2.0988767  31.2826672  27.6041546  21.8186073  87.8019257
  28.0179195  21.6263409  86.9604645  26.8105030  21.2835102  87.8063965
  18.7625256  66.4489975  74.0022583  18.5472183  67.3684616  73.8458481
  18.6374168  66.0258636  73.1528320  52.1506958  17.9715691  31.4228268
  52.2812500  17.0268230  31.5043221  53.0337944  18.3392429  31.4572449
  50.6801109  40.2531548   0.4709439  50.3813324  41.1050339   0.7891591
  50.0312386  40.0020065  -0.1864181  17.9037380  18.2616081  77.6279831
  17.5357513  19.0718975  77.2754974  18.0706482  18.4557018  78.5503235
  29.5311069  58.2598839  33.7417412  29.9718857  57.7879105  33.0352097
  30.2317810  58.7410583  34.1819229  65.0043640   3.1901293  16.9569206
  65.3043900   3.9080925  16.3994732  65.3575974   3.3953211  17.8225765
  60.8176842  56.1830368  77.6886292  59.8976440  56.1994743  77.9522324
  60.7981567  56.3235741  76.7420044  48.3020782  13.2977161  28.0368843
  48.1299515  14.2074690  28.2796898  48.4816170  12.8578968  28.8678818
  67.0029984  16.9150925  86.6704178  67.7802124  16.4317513  86.3901367
  66.7547379  16.5087185  87.5007553  84.4687576  43.2772713  11.5849791
  85.0662384  43.9725838  11.8602819  83.9639206  43.0699844  12.3713684
  69.6563187  -0.0084208  36.9100418  69.2664795   0.8465531  37.0924683
  68.9418640  -0.5218904  36.5330353  79.9451370  48.1986618  53.6701698
  79.4691238  47.6394196  54.2840805  79.2809601  48.7955475  53.3254662
  84.5648041  35.1949425  38.2912178  85.2523575  35.0651970  38.9444160
  83.9551315  34.4718323  38.4383507  30.0160484  59.6854210  36.9813042
  29.4278889  60.3959236  36.7254028  29.4683456  59.0961647  37.4999847
  12.9979887  46.8313560  81.3110580  13.7817450  46.6129265  80.8068314
  12.2846441  46.7919159  80.6740265  80.4841690  31.8195820  35.2362366
  79.8056564  31.4181232  35.7790756  80.0138702  32.4537277  34.6950302
  48.1704865  12.0461550   3.8976874  48.4359169  12.3477354   3.0288785
  48.6250648  11.2113972   4.0106840  26.2143936  59.6816940  62.0600204
  26.9569874  60.1600342  62.4287720  26.5272522  58.7809067  61.9767494
   5.0394144  62.8276176  64.6728516   4.4453564  63.1805763  64.0104675
   5.9118280  62.9356079  64.2940826  34.0129128  40.5408745  83.9145966
  34.7308578  41.1579704  84.0559540  34.4457855  39.7016869  83.7576904
  19.6725578  62.4609680  34.6657410  18.9563732  63.0002937  34.3304214
  20.3018074  62.4236145  33.9454079  27.8335171  51.0468826  38.6740685
  28.0027657  51.8685074  38.2130737  27.0366993  50.7046394  38.2688751
  17.9147739  13.3070135  61.6536179  18.7415180  13.2188120  61.1793327
  18.1605263  13.2460241  62.5767212  17.5437660  12.4738646  84.8249969
  17.7549019  11.8505774  85.5200958  18.0365047  13.2623310  85.0525055
  68.2362061  22.4483948  19.9901505  67.7062683  22.4151173  20.7865734
  67.6433563  22.1609402  19.2957935  22.8468876   9.2450638  15.9299660
  22.1734734   8.6060781  15.6966372  22.6987686   9.9781103  15.3325243
  73.4775696  45.4527893  83.2782822  74.2269211  45.9171562  82.9053650
  72.9612503  45.1824875  82.5189514  48.4679146  37.1176186  87.8613510
  48.9222755  36.3502350  88.2090759  47.5390625  36.8954353  87.9254074
  69.4851303  62.2733612  13.7817116  68.5472946  62.3658180  13.6139631
  69.9026413  62.5467682  12.9649076  76.2702408  55.4578972  47.4480095
  75.5843735  54.8056335  47.3052826  76.9252319  55.2675934  46.7764473
  60.3964233  62.3723564  41.9582748  60.8691063  62.6933746  41.1903229
  60.9620476  62.5945282  42.6978264  77.1942978  51.4266624   6.6919761
  76.4597092  51.9780045   6.9614697  77.9398727  51.7602806   7.1910315
  30.4188843  52.5766220  54.7691650  30.9288216  51.8325500  54.4489288
  29.5168839  52.2570343  54.7913132  72.4539337  67.8342819  56.7662811
  72.9750061  67.0678406  56.5269508  72.9352646  68.5754623  56.3985710
   8.8987217  35.6250877  37.8751984   8.6057053  35.0846825  38.6089134
   8.3564243  35.3431854  37.1385307  73.8249054  33.0064812  53.4096718
  74.7399979  32.9517326  53.6850624  73.3376770  32.5721931  54.1098404
  32.0006027  63.9231300  10.7404137  31.7729454  64.6213837  10.1265335
  32.6059647  63.3640175  10.2534189  17.5397949  26.7089386  67.6334457
  18.1869030  27.2836628  67.2245789  17.3238926  27.1410332  68.4598312
  68.5055237   4.0924811  76.6817474  68.2785645   3.1635990  76.7253113
  67.6798935   4.5314307  76.4770737  69.8623505  26.0772514  48.4789963
  70.5077362  25.3839893  48.3408051  69.2604141  25.7176933  49.1306267
  80.4629669   5.8259525  62.9540634  81.0558014   5.3836145  63.5616150
  81.0422363   6.2746687  62.3381691  10.3054943   0.8707451  15.4330139
  10.8715496   0.7576664  14.6694517   9.4705553   1.1668128  15.0704498
  55.0296135  18.0292473  29.5017529  54.3841782  17.3226929  29.4810772
  55.8317146  17.6308956  29.1638451   7.3974390  24.4845028  60.4848709
   7.1197109  25.3944550  60.3795815   7.1738954  24.0680180  59.6525269
  13.3289442   2.7974339  61.6438942  14.2309618   3.0576601  61.4571342
  13.2040424   1.9906869  61.1441002  67.8426056  18.5682716  35.4117622
  67.1616745  19.2278919  35.2796288  67.7915268  18.0122375  34.6343002
  42.6954803  65.5593033  69.7241974  42.8037872  64.6152344  69.8392868
  43.5506325  65.9273682  69.9466171  49.1086121  61.9471588  40.8515816
  49.6848106  62.6819267  40.6410141  49.1597176  61.8680420  41.8041382
  30.5397434  55.7683372  84.0163727  30.0153732  56.4833527  83.6557846
  30.3155670  55.7525215  84.9468155  17.6890659  31.2494602  19.4327660
  16.8249340  31.6491127  19.3338375  18.3037472  31.9549694  19.2311306
  87.1496887  52.8945999  73.8242416  86.7639999  53.4972801  74.4600449
  86.5704117  52.9455757  73.0639343  74.5809402  11.2066565  88.7521744
  74.9314575  11.8784466  88.1673050  75.1900406  10.4732180  88.6667557
  33.7155266  53.3865013  32.8129234  33.7283974  53.0711327  31.9092617
  33.8795891  52.6055336  33.3415108   1.0776572  58.2340393   6.2814512
   0.7648706  58.7239609   5.5209417   0.2823469  57.8914757   6.6893282
   0.5945280  27.2794724  26.7436790   1.2317364  27.7229271  26.1837273
   0.8126290  26.3507137  26.6657677  79.9478760   3.9608936  69.9965210
  80.9020081   3.8846107  70.0031815  79.7071686   3.8750300  69.0740738
  48.8943634   4.4143181  89.3351593  49.1418419   5.3317661  89.4503784
  49.4300728   4.1120248  88.6017685   3.5470052  32.1757507  33.7082214
   3.6511798  32.6247406  32.8693008   2.6265857  32.3055878  33.9366951
   2.4672439  70.9674149  43.9575958   1.9651734  70.1876755  43.7206230
   1.9120206  71.4276581  44.5869904  67.6819153  34.4771843  73.7708511
  67.2303925  34.4475212  74.6143417  67.5979843  33.5894241  73.4229050
  60.8417015   3.7643013  27.5889931  60.2609901   4.0890856  28.2771225
  61.7224655   3.8736050  27.9475155  43.4596558  61.3100929  77.0690994
  42.5524559  61.5246964  76.8519211  43.5998650  60.4449806  76.6841888
  51.3067474  32.8544350   8.9379520  51.2900047  32.5954704   9.8593035
  50.3966904  33.0687943   8.7328310   9.4853926  60.2082367  64.6437531
   9.0969152  59.5620689  64.0540161  10.0890884  59.7030640  65.1883469
  13.3666382  54.5846214  63.9852905  12.8431311  54.7918015  63.2111816
  12.7217970  54.4095573  64.6706848  20.4915943  64.6038437  16.9683418
  20.1223660  64.2213058  16.1723709  21.2736797  64.0809555  17.1448765
  72.1920319   2.3303025  74.6289062  72.9187012   1.7621094  74.3732758
  72.1045074   2.1972258  75.5727615   2.1321096  10.0906773  64.3040771
   1.4067223   9.8308935  63.7361336   2.8826742   9.5958004  63.9754677
  13.8130903  59.8071823  36.4463196  13.0146732  59.8367996  35.9191704
  13.6082840  59.1999054  37.1573067  31.8684101  49.2309189  24.6278229
  32.1774788  48.5948334  25.2728844  32.1002083  48.8465919  23.7823696
  86.1648636  28.2814064  63.7821541  86.9152603  27.9067097  64.2433853
  85.9013748  27.6018257  63.1616859  56.7739677  70.5245972  59.1352158
  56.7390518  70.0724792  58.2922401  57.2943726  69.9481506  59.6947899
  63.4611855  41.2226105   8.9620438  62.9541206  41.0628700   8.1660538
  62.9737473  40.7712212   9.6511602  50.8433990  60.9256897  11.2103252
  51.3613701  60.4717789  10.5455666  50.7100792  61.8032608  10.8520975
  55.9581184  55.6051407  49.9229431  55.7801056  55.6311646  48.9827995
  55.6489449  54.7431335  50.2014771  49.4960938  26.8346176  48.9917641
  49.7072792  27.7672043  48.9479980  49.8967323  26.4612179  48.2067223
  31.3761330  67.7424927  23.0991879  32.3172264  67.7732925  22.9270649
  31.1187572  68.6601410  23.1881351  10.3581972  47.4447632  59.1315041
   9.6263523  47.4779854  59.7475624  10.4772978  48.3524361  58.8518982
  19.7762718  69.0953979  56.9103851  19.9033604  68.9463120  57.8473244
  20.4351120  69.7506561  56.6805916  33.6408958  56.4365959  84.3380127
  32.7714996  56.1457520  84.0627060  33.5404625  57.3752632  84.4962845
  34.6260948  14.8616238   7.3694453  34.9561119  15.7483454   7.5145216
  35.4103699  14.3129673   7.3585634  25.3054409  66.3086548  80.5015411
  24.3532219  66.4061661  80.4999619  25.4570103  65.4318848  80.1486588
  14.7375708  41.0255890  55.0898285  15.4399939  41.6758385  55.0874443
  14.0210562  41.4487534  55.5628700   9.0940619  34.4906120  57.2057037
   8.1816416  34.7799301  57.2097969   9.5472126  35.1349907  56.6619530
  10.6462069  38.7245522   7.8241577  11.4891148  38.3712349   7.5397229
  10.7253046  38.7963676   8.7753773  76.7214432  41.0818253  56.8884430
  77.6562729  41.1373787  56.6903801  76.2924194  41.4866409  56.1345863
  46.0217133  52.7566795  84.7065964  46.6420097  52.0590057  84.4951248
  45.3056564  52.3113556  85.1595612  37.8665314  50.8924103   1.6049269
  38.3258781  51.1086311   2.4163954  37.8163872  49.9365273   1.6054883
  13.8609943  27.6530552  26.0143223  14.6049423  27.3301411  25.5058937
  14.0076532  28.5966301  26.0805531  62.0476456  16.1376400  27.2758255
  61.2206001  16.6124954  27.1937466  62.3792419  16.0775166  26.3799133
  42.0986710  34.8450584  67.0088272  42.4132080  34.1665611  66.4113846
  42.7272720  35.5602951  66.9112244  64.4957886  11.4812307  19.1131783
  63.9584694  11.0372200  19.7692108  63.8908882  12.0775146  18.6718483
  80.0060272  31.0579224  64.8501511  80.0342026  31.7788715  65.4791718
  80.2011261  31.4676304  64.0073547   7.2613544  11.0958519  13.9868517
   7.1809168  12.0446787  13.8894367   6.7370448  10.8892145  14.7605648
  44.7048302  68.0913544  15.0442877  45.5696335  68.4686356  15.2055645
  44.4314117  68.4679718  14.2078476  70.0461960  61.0631790   5.5390429
  70.6426697  60.3146935   5.5535011  69.6315231  61.0223770   4.6772895
  13.0532637  46.7335815  11.1390219  12.3175678  47.1984138  11.5376654
  13.8301315  47.1688385  11.4901085  11.6669216  66.7405243  71.1404114
  10.8690243  66.2362976  70.9811859  12.2079449  66.1675034  71.6837082
   7.6948657  30.5539112  19.5547619   7.0844812  29.9416847  19.9656620
   7.1383195  31.2531815  19.2119617  59.0734062  42.2136307  51.4103584
  59.0362549  41.3318176  51.0398788  59.5219460  42.1025314  52.2486343
  55.1006699   5.6014786  30.0505409  55.7551575   5.9209604  30.6716785
  55.1458473   6.2157946  29.3178692  71.1865997  57.9611053   0.5880039
  70.7925720  58.8265610   0.4786139  71.0435486  57.5249100  -0.2519365
  74.2021942  46.4824295  66.3669434  74.4882355  46.7226028  67.2482605
  74.8127213  45.7970238  66.0954361  56.0108604  34.9722862  70.1340027
  56.5319443  34.2514038  70.4876022  56.5263710  35.3018837  69.3979034
  54.4892883  31.2376480   5.2518549  55.0787086  30.4875164   5.1736565
  54.8277626  31.8748112   4.6228185  73.1155548  29.1935635   7.5627551
  73.8975372  28.9628983   8.0642891  72.4765854  29.4592419   8.2240906
  68.6396561   1.1316119  78.7741089  69.5024109   1.5403230  78.7045288
  68.0341797   1.8660293  78.8754272  52.1026001   1.7090205  71.8771286
  52.8385887   1.1443582  72.1131516  52.4224586   2.5974715  72.0338974
  27.6688957  58.7240715  42.1109047  28.2290916  59.4123459  41.7521629
  27.1176453  59.1735344  42.7514839  16.6815434  28.6606045  19.7187748
  15.7779121  28.7300491  20.0267696  16.9420986  29.5632095  19.5353413
  49.9644394   7.2941160   9.1699533  49.5917091   7.3774595  10.0476542
  49.4104309   6.6459322   8.7350264   0.5066638   2.6080668  34.3452492
   0.4114732   3.3351815  33.7300453   0.1725262   2.9504778  35.1743050
  62.1759300  18.5943108  11.4137793  61.3035431  18.8852863  11.6793032
  62.3508835  19.0712490  10.6025124  13.7001219  30.8333549   5.7218690
  14.1118259  30.0749359   6.1360354  14.2817001  31.5647221   5.9294763
  -0.2437013  63.9552689  72.2315140   0.2264999  63.1602173  71.9804382
   0.3675258  64.4262466  72.7979202  42.3651314  40.1423111  75.4749298
  43.1681671  40.1787376  75.9945755  42.4191666  40.9033585  74.8968964
  76.0644913   6.6161122   6.7199678  76.0363998   5.6608739   6.6655378
  76.9536438   6.8453712   6.4496217  51.9157524   6.0998402  46.5212212
  51.7553673   5.2781382  46.0572014  52.7752724   6.3857760  46.2118645
   8.3211260  67.6141205  32.7148819   7.9623919  66.9270935  32.1531601
   9.2681198  67.4780273  32.6846924  56.5133057   7.1699777  45.2526779
  56.0467110   7.9894986  45.0886459  57.4240036   7.4346762  45.3822975
  78.4035187  67.8074570  70.3506775  78.4443512  68.1962051  69.4769287
  79.3191986  67.6989441  70.6075745  33.7238770  -0.2612065  12.3631964
  33.9649048   0.6222095  12.0844259  32.9377480  -0.1383266  12.8952990
  37.4403343  25.3976917  10.7329941  37.1047592  25.3188515  11.6259699
  37.1650429  26.2696095  10.4497852  44.5431671  37.9388542  10.1976509
  44.6554565  38.0881691   9.2588596  44.1139145  38.7326622  10.5167732
  14.5245247  67.0578079  75.0142899  14.5729837  66.2610703  75.5425720
  15.4146423  67.1810532  74.6845398  63.0875778  39.9002724  36.6918106
  62.7775612  38.9953079  36.6576958  62.3453064  40.3947945  37.0392456
  58.7426262  39.9667702  57.0436897  57.7978325  40.0255394  56.9017677
  58.9846573  40.8209267  57.4015541  18.4309502   5.9420795  23.8004742
  17.5432205   6.2846165  23.9045715  18.3870850   5.0525155  24.1511631
  21.0518856  11.8548927  11.4661636  21.9315872  11.4913979  11.3650217
  21.1854782  12.6782770  11.9356575  52.4702415  64.3929291  14.8263159
  52.7075386  64.9043503  15.5998650  51.6672401  63.9367180  15.0778875
  42.2030373  28.5664024  80.2787018  41.5267372  27.8960648  80.1812668
  42.9821625  28.1805534  79.8783035  82.4666138  27.3880272  70.1933212
  83.1520996  26.8073883  70.5237732  82.3391113  27.1152439  69.2847137
  26.9157562  61.5988693   6.8360267  26.0410843  61.5887871   6.4473381
  27.3992004  60.9269371   6.3553801  48.1746216  46.4404945  79.6879501
  48.3490219  45.8801880  78.9317245  47.8900032  47.2722321  79.3092194
  66.4935150  30.3565865  50.9169731  65.7026672  30.1182289  50.4332657
  66.1820984  30.9292049  51.6179390  84.5725555  40.7583160  83.0420456
  84.8461380  39.9323997  82.6429901  84.2898254  41.2986984  82.3042908
  10.6067944  64.6440430  17.3739853  10.7451963  64.6520157  16.4268780
  10.0675268  65.4164429  17.5437450   4.7416658  70.6294403   1.0973337
   4.1595292  70.8959732   0.3857809   5.5611444  70.3955231   0.6614774
  85.7174988  60.7914848  34.2359657  86.2270889  61.3049355  34.8627968
  85.7136307  61.3217163  33.4390488  29.6084175  35.4497490   7.4519267
  28.8011360  35.3804932   7.9615679  29.8461933  36.3754539   7.5045166
  58.6244774  11.9253960  33.9084511  57.7675438  12.3277378  34.0499153
  59.1771355  12.6421843  33.5969772  71.2893295  21.4597530  58.2066689
  71.7483978  20.7832146  58.7044487  70.9058838  22.0292110  58.8736877
  72.4574280  40.8178024  64.1965408  72.1567535  39.9096603  64.2296982
  71.6908112  41.3332291  64.4472580  80.6870575  11.9349155   8.9302063
  79.9608383  12.5574360   8.8941164  81.2410583  12.1697664   8.1857862
  64.9655609  36.3250504  38.2448235  65.3057327  36.5934982  37.3913307
  65.3290634  36.9629669  38.8589592  59.9579353  47.1794777  19.8165226
  60.6985817  46.6695900  20.1446877  60.3159485  47.6751747  19.0800838
  45.3903465  24.5803967  12.7317657  44.6022034  24.2969112  12.2684116
  45.7757187  23.7706451  13.0664625  15.0395021  49.6446152  44.8449898
  15.0958128  48.6916199  44.9146881  15.8231220  49.9641953  45.2922516
  79.5423431  30.8561211  80.8713684  79.8438644  31.7644291  80.8542938
  78.9183960  30.7972393  80.1478729  73.0082245  57.6337929  86.1661301
  73.2778854  57.8234787  85.2675018  72.1355362  58.0198746  86.2408752
  43.8665199  48.5784340  35.8939819  42.9928894  48.5113449  36.2793350
  44.0523643  47.6981773  35.5671196  16.8210812  26.0596409  71.4871750
  17.7358780  25.8372688  71.6601791  16.3276539  25.2984619  71.7927399
  69.0186462  23.1944199  82.7961731  68.3058472  23.8195992  82.6646652
  68.6388550  22.3463593  82.5664215  36.8416672  43.9107628  77.2477493
  37.0438156  43.1858673  76.6562271  37.1588440  43.6182480  78.1021881
  10.2090883  28.5093842  12.5979872  11.1001930  28.2102947  12.7788420
   9.8820267  28.8134270  13.4446392  31.8773003  62.6884689  88.3425980
  31.6010628  62.9786530  87.4732742  32.5492706  62.0283661  88.1724548
  59.8146744  71.3170471  72.7357712  59.7456818  70.3861084  72.9475174
  60.1428032  71.3345108  71.8367386   4.1354818  50.7059212  78.4553757
   3.3662870  50.4429321  78.9607544   4.1822309  50.0696602  77.7417831
  66.5076065  27.6782722  53.3933372  66.4012527  27.5026665  54.3282623
  65.9719925  28.4552402  53.2331276  29.5051231   2.0734801  30.4153156
  29.0000706   2.5168924  29.7337456  29.1844349   1.1716880  30.4026394
  63.4768333  67.4946747  47.2081795  62.5513878  67.4787827  46.9641876
  63.8859711  66.8433838  46.6383934  27.3401070  61.8625183  84.4326630
  27.6254768  62.7513008  84.2208405  26.7408085  61.9729195  85.1708221
  58.0559540  30.2407570  29.2541389  57.6999512  30.4608097  30.1149940
  58.9855118  30.4605770  29.3160439  69.0405960  44.0043793  47.9761810
  69.7539673  43.4036865  47.7605476  68.4478836  43.9512787  47.2264442
  65.9862900  10.6583605  77.7650604  66.4725723  11.4202662  77.4499969
  65.9106827  10.0890493  76.9992905  19.7268887  26.1956177  63.7895241
  20.3231716  26.5908298  63.1535339  19.0315571  25.8085976  63.2575836
  28.9178123  64.1144180  41.3652306  28.6807880  63.9820595  42.2831268
  29.5195732  64.8586960  41.3781776  70.6964340  49.5594254  86.6843643
  71.4183884  48.9338989  86.7453842  70.8133545  50.1346359  87.4404678
  14.9516087  37.4060707  60.4962463  14.4989882  37.7768440  59.7386856
  14.4243040  37.6784554  61.2472382  55.5064850  48.6127548   9.2792082
  56.2184105  48.2837105   8.7304583  55.7393303  49.5249634   9.4520979
  53.8544998  57.6691055  80.9101028  53.2111397  56.9605560  80.9267273
  54.4002190  57.4792480  80.1469650   0.5230405  39.2923813  12.8537064
   1.3629253  38.9218102  12.5825911   0.4746473  40.1336098  12.3995886
   0.5421045  70.3418732  74.5900345   0.7735859  69.5585861  74.0909271
  -0.3488963  70.1752701  74.8975983  69.2099380  35.6534729  27.2533188
  69.5015259  35.4877968  26.3567905  69.1623840  36.6073456  27.3172989
  50.9186363  54.9923706  59.4979515  50.4947624  55.5587654  58.8531609
  51.3332558  54.3047333  58.9769173  71.5553970  61.3179474  54.4306755
  72.4185486  60.9082298  54.4884567  71.3400497  61.2923508  53.4983673
  81.3576202  57.5445480  12.4843655  80.5382843  57.6176262  11.9948978
  81.4583206  58.3953590  12.9112234   7.7532253  49.8519516  19.2508984
   8.1501732  50.6106148  19.6787891   7.2500424  49.4227562  19.9428749
   5.2793078  51.8962402  48.4975243   4.5359483  51.3630714  48.7792702
   5.3611779  52.5691910  49.1732941  68.4080963  17.2273102  45.8603706
  68.6204300  16.7495956  46.6622009  68.4595032  18.1498318  46.1104546
   9.6497078  35.8363762  12.5091219  10.2686815  36.2834625  13.0863705
  10.1591854  35.1292648  12.1133232  57.5709229  46.1924896  72.2251740
  58.0296440  46.9425354  71.8467102  56.7883606  46.0919685  71.6832123
  64.6293564   1.5296715  51.5888062  65.3645020   1.9001789  52.0771866
  64.1119308   2.2894330  51.3218613  22.6559849   3.7373240   7.6058211
  22.4259872   4.6571579   7.4745297  21.9114609   3.3699117   8.0821848
   1.7070881  26.6383286  70.1325607   2.2949255  27.1133881  70.7199249
   1.3241113  25.9528255  70.6799622  78.1758957  23.9768257  11.4504433
  77.5090408  24.5508804  11.8272676  77.8248367  23.7315884  10.5943775
  76.7698364  23.3935528  63.4349403  77.2450638  22.5711098  63.5531731
  77.0466919  23.7085857  62.5745125  43.1766434   7.2939520  79.2081223
  44.0859222   6.9956870  79.1863022  42.7143135   6.6170011  79.7023087
  44.3356857  42.2076874  39.2391510  44.6635399  41.5105858  38.6710014
  44.8583641  42.9742508  39.0037422   6.3443975   0.7629901  84.7199020
   6.0485048   1.0899336  83.8703232   5.7700653   1.1913537  85.3546295
  25.5230122  22.2570744  57.8831711  24.6818180  21.8041897  57.9425201
  25.3439465  23.1387329  58.2100410  62.8434639  44.1112328  73.8838348
  62.5705223  43.2860298  74.2847977  63.5942459  44.3943329  74.4057617
  35.0746231   9.4051676  24.7088337  35.4878502   9.6814098  25.5268593
  34.6538277   8.5723629  24.9223709  66.5728912  39.9656754  18.8571854
  66.2375717  39.8128700  17.9737587  67.4323807  40.3645363  18.7214699
  85.9288712  56.1894188  27.4331341  86.0066071  56.5238876  26.5396461
  86.8027039  55.8593521  27.6421909  62.1083221  64.6631622  17.4656506
  61.7048683  64.1481934  18.1644077  62.8875656  65.0454559  17.8692188
  20.3666420  59.3622398  28.1462994  20.8228416  58.8983879  27.4441929
  20.9093323  59.2171211  28.9213219  29.4371414  10.6975145  68.9755402
  29.5352097   9.9653740  68.3667831  28.4927235  10.8468132  69.0204468
  28.1410160  27.2790794  73.1299362  29.0808811  27.2117634  73.2983170
  28.0793304  27.4975014  72.2000275  51.2429695  54.7064438   3.8291626
  52.1951752  54.7331467   3.7352259  51.0630379  55.2458420   4.5991673
  47.1740417  65.9213409  48.2116547  47.8381958  66.3196716  48.7742081
  47.0988503  65.0217285  48.5298843  73.3630829  65.9440536  83.1466064
  72.4592590  65.6818237  83.3214722  73.3617783  66.2095642  82.2269669
  49.1538506  27.7372437  13.2106457  49.4894753  27.2566109  12.4539557
  48.2306709  27.8886147  13.0080070  71.2204361  35.1405487  19.9190121
  70.2956085  34.9111900  19.8278465  71.5847626  34.4506569  20.4735832
  15.2564840   6.2811470  76.6908646  14.6109600   6.9875612  76.7134323
  15.5544338   6.2579284  75.7815094  50.9400330  70.2048111  65.5043335
  50.4046745  69.6434097  66.0650940  51.7100754  70.4089203  66.0350037
  47.3866653  52.0348244  81.4023666  47.2085190  51.3060188  81.9967957
  46.5584145  52.1784325  80.9445343  33.6100464  59.1626472  15.2845926
  32.6529427  59.1685486  15.2723589  33.8626862  59.5640411  14.4531536
  79.9364777  19.0241756  76.0595932  80.1784058  19.9445953  76.1622238
  80.5591660  18.6830082  75.4176407  39.4394493  54.9393578  26.0770550
  39.9638939  54.2716446  25.6350708  39.8177757  55.7702484  25.7894363
   9.6916733  66.9087219   9.2547598  10.5599070  66.5591354   9.4552498
   9.6810541  67.7734604   9.6650457  65.5808945  51.8303909  36.4642067
  65.9834824  51.4366074  37.2382164  64.6938934  52.0562706  36.7442818
  15.9320869  25.0975113  88.4994431  16.5555763  25.8232784  88.5269165
  16.3593216  24.3959923  88.9909439   4.6631479  28.9443626  31.6161156
   5.3888302  28.4321136  31.2594395   5.0559039  29.7852840  31.8502655
  57.2255363  64.4562454  69.8966217  57.1173553  63.5265923  69.6959534
  58.1199074  64.5267487  70.2303238  40.3230858  35.1437492   1.0882504
  40.8964233  35.6356010   1.6761242  40.3845978  35.6054268   0.2520072
  27.6702309  37.5154762  58.3071251  28.1584473  37.0862885  59.0097427
  27.2631302  36.7961655  57.8243217  36.7266846  71.8542709  79.9471436
  37.4269676  71.2192078  79.7970428  36.0935555  71.6818314  79.2502594
  29.8579750  58.1051865  27.2031002  29.0424099  58.6036530  27.1519337
  29.6532707  57.3695755  27.7803402  74.4906311  45.3717651  62.5533371
  74.8982697  45.2611847  63.4123116  73.8402405  44.6711426  62.5048943
  56.5443954  43.3154182  61.0521317  56.7737541  43.1890144  60.1314507
  57.3355370  43.6808853  61.4480553   4.8380113   7.4424162  76.7595978
   4.4428186   8.0972538  76.1840668   5.5042143   7.0187159  76.2184143
  69.4916916   3.4592965  11.2821999  69.4043427   2.5457811  11.5543985
  70.3999710   3.6836770  11.4844465   4.4059839  52.8679657  76.5444870
   3.6955721  52.2518883  76.3656082   4.7305446  52.6149139  77.4086914
  21.7022896  38.0513992   9.0521927  21.2301865  37.3463745   8.6091461
  21.6818409  38.7800980   8.4318609  62.8758354  45.7354660  16.4449711
  62.0279617  45.9628258  16.0633373  63.4139061  46.5164680  16.3155613
  86.5574646  50.5221329  16.9834156  87.5069046  50.4201736  16.9170227
  86.4152145  51.4680977  16.9495544  14.3021984  44.2103539  49.8714409
  13.4161940  44.4604950  49.6094131  14.2775049  44.2087097  50.8283195
  46.1076279  15.0423880  35.9995804  46.2297554  14.5970364  35.1611404
  46.6681862  14.5627289  36.6094475  14.4844656  31.5341740  88.3614273
  14.6785145  31.5926266  89.2969284  15.2755089  31.1576462  87.9758072
   9.4718027  24.1008816  83.5222321   8.6735191  24.0944653  82.9940872
  10.1308985  24.5013084  82.9552383  55.9899063  22.9873123  54.7187805
  55.8586617  22.1265907  55.1164818  56.7562103  23.3442764  55.1677628
  68.9490585  41.8135300  37.9565010  68.2711639  41.1674004  37.7584991
  69.7729416  41.3452263  37.8218269  75.5362244  67.7075272  48.7040558
  74.6541901  67.9817963  48.9550819  75.4799347  66.7545395  48.6341896
  83.5123367  48.1484489  45.6289291  83.0594864  48.9719048  45.8107986
  83.7522583  48.2062416  44.7040901  54.2311172  22.3984070  19.5457325
  54.9965858  21.8574467  19.3516903  54.5894699  23.2709866  19.7082653
  86.5401688  48.7845917  58.8271790  87.4448547  48.9984474  59.0553055
  86.2079849  48.3069839  59.5872955  58.9349022  19.3269749  64.1324997
  59.5487938  19.0290337  64.8037720  59.1106796  20.2639198  64.0460739
  31.7304897   6.6167531  87.7091064  31.3215179   7.4594502  87.9061737
  32.6103210   6.6849875  88.0798798  61.6420403   6.3505726   6.2692575
  62.4662895   6.0860620   5.8607459  61.8202934   6.3210397   7.2092495
  51.8860588  28.6031094  55.9197464  52.6049500  28.9222164  55.3742180
  51.6030045  27.7940273  55.4937210  82.2021866  37.6067162  77.4679108
  81.6323242  38.1377335  76.9115753  83.0888367  37.8804855  77.2331009
  11.6698170  49.1316185  19.1224174  11.5418549  49.9994049  18.7392712
  11.2886400  48.5291939  18.4836521  24.2265930  51.4538918   5.2654734
  24.6412773  50.8031006   4.6991363  24.8957500  52.1276283   5.3860512
  17.8609905  21.6578712  12.6572390  18.0719433  22.3437157  12.0237179
  18.6464691  21.5824852  13.1990623  30.8395042  25.9644547  14.2024994
  30.4753895  25.0910454  14.3467569  31.2137489  25.9255543  13.3223524
  62.7796707  65.5609436  78.9974670  62.2809181  65.7839661  78.2115021
  63.5758171  66.0884933  78.9336472   4.1262794  42.8691788  74.1822815
   4.0950937  43.1853218  75.0852280   3.2485819  42.5239220  74.0189438
  24.6602135  17.4073410   5.3536010  25.3865166  16.7915134   5.4509220
  24.8626957  18.1151123   5.9653955  12.8212519  19.6002636  69.6782532
  13.0120287  19.2821465  70.5606613  11.9476881  19.2601814  69.4847031
  49.5741539   4.1233621  20.4050808  50.5031929   4.3343539  20.3123226
  49.4434090   4.0271983  21.3484211  36.9620018   4.5351357  61.0189857
  36.0577965   4.7843719  60.8278618  36.9002380   3.9957561  61.8073311
  67.6158981  15.8310299  15.9238110  67.4795456  16.5127373  15.2658463
  66.8584213  15.2532883  15.8306313  72.3342743  54.2233315  70.4748688
  71.8732224  54.3066940  69.6401749  71.6583023  54.3667297  71.1372375
  54.1575890   4.2694626  65.3149033  53.8299103   4.8207498  64.6043091
  53.5677605   4.4473104  66.0475006   8.8056097  65.3169022  58.1373062
   8.9497423  64.5177460  57.6305466   9.1629658  65.1192627  59.0030251
  53.8517838   8.1299219  28.2960110  54.1810837   8.8446083  28.8410034
  53.2080383   7.6852436  28.8474522  20.0132675  67.6482162  42.1844940
  20.2126904  66.7341614  42.3868942  20.4390812  68.1464157  42.8821411
  47.0386658   6.3818645  85.3419266  47.4913177   6.5012527  84.5070114
  46.1099625   6.3655386  85.1106796  23.3413582   9.0187120  27.5568733
  22.5616779   8.5233812  27.3059177  23.6051674   8.6411772  28.3959808
  24.5235653  54.1321411  78.4622498  25.2786274  53.7192078  78.0431976
  23.7954273  53.9624825  77.8645325  78.4871597  65.0765381  56.6352463
  78.7868652  65.9810486  56.5443459  79.0819702  64.5703659  56.0818787
  32.8343582   7.3136292  33.6963120  31.9033775   7.4234133  33.5027885
  32.9169998   7.5532146  34.6193504   1.3383534  40.9853783  70.6349945
   1.6070951  40.0951538  70.4080429   2.1268179  41.5131721  70.5085373
  83.0138931  71.6175537  13.5908766  82.6759644  71.2402573  12.7786674
  82.2313690  71.8500977  14.0906944  49.7183952  66.7311325  37.5392761
  50.4948425  66.4694977  38.0341568  49.3089714  67.4091110  38.0768166
  15.9763861  17.4095592   1.2126111  15.8797026  17.7826157   2.0888038
  15.1353350  16.9872284   1.0379655  63.5175095  36.2110596   0.0919467
  64.3676453  35.9182930   0.4202459  63.0957375  35.4128036  -0.2260567
  62.3952293   6.8170686  70.2395554  62.7613297   6.3325024  70.9794235
  62.5699310   7.7355413  70.4447861  80.1991653   1.1357909  34.3645401
  79.6303406   0.3958454  34.1520576  80.9186783   1.0728900  33.7363815
  34.2974243   4.1151943  30.6043892  33.8660011   4.5134826  29.8484306
  33.6362686   3.5325010  30.9779797  40.9997139  46.1873283  54.8034172
  40.3264122  46.6755409  54.3295555  40.5242310  45.4719772  55.2258186
  20.1180439  50.3774681  21.1703663  19.7974606  50.7320328  20.3410645
  19.5433292  49.6336060  21.3509483  53.4367905  21.9441147  84.5611496
  53.3864708  21.2601013  85.2288513  54.3739471  22.1090126  84.4573364
  37.5903473  30.0062675  76.8949432  38.0943527  29.2909431  77.2829132
  36.9134674  29.5694580  76.3779678  77.0662842  65.2608795  87.9131470
  76.2543030  64.7545624  87.8893280  77.3671417  65.1885757  88.8189545
  62.2975578   2.5454135  65.2963562  62.1585121   3.4470844  65.5859909
  61.6952896   2.4345870  64.5606842   6.3625345   8.4160614  23.5986443
   5.9782038   9.1957722  23.9993610   7.3058267   8.5249405  23.7193832
  16.6441593  55.6093330  20.4332218  16.8168125  54.6780014  20.5712242
  17.3025379  56.0563660  20.9651337   7.2172832  60.5252762  18.9884262
   7.5478544  61.1686668  18.3615265   8.0040627  60.1501350  19.3839970
  77.0749359   9.7031155  17.0573463  77.5498962   9.7865314  17.8842010
  77.6967850   9.9999189  16.3929348  47.4532089  50.2504692  35.2815170
  48.2761383  50.6182251  34.9593697  47.1748352  49.6467323  34.5928650
   8.3697681  14.3537989  71.6433105   8.2488661  13.8185873  72.4276352
   8.4128046  13.7213736  70.9260788  40.5369492  24.5143585  10.1289825
  39.7559853  25.0310898  10.3272676  40.2463455  23.8846321   9.4692659
  83.3252487  70.3381119  16.6709461  84.0223236  70.0440063  16.0845814
  83.2355652  69.6310883  17.3099365  75.3509903  34.6030426  80.8564758
  75.1976700  33.7083817  80.5526657  74.7235947  34.7248268  81.5690689
  40.6046333  55.8217926   3.1262095  41.0106354  55.0426483   2.7463055
  40.7529182  55.7342033   4.0677886  86.3385773  56.0839081  52.7507210
  85.7212372  55.3702278  52.5901680  86.9225159  56.0706291  51.9923897
  58.4030037  35.0652351  56.2636147  58.8548431  34.5818787  55.5719185
  59.1068840  35.4460411  56.7887535  84.5441132  69.7450638  78.6601028
  84.7996140  70.5575562  79.0969238  84.9544449  69.0542068  79.1802597
   1.3608493  51.4638290   6.5590687   0.9621770  51.2899704   7.4117498
   2.1874764  51.9000092   6.7656240  45.5673714   9.1656504   4.0903869
  44.6381607   8.9628019   4.1983285  45.9702759   8.8880043   4.9130731
  67.9183807  13.5721579   6.6359963  67.9845123  12.9507904   5.9109025
  68.3195190  14.3742590   6.3014011  69.0023346  62.7164078  35.6769485
  69.8279343  62.5107193  36.1154861  68.8881226  63.6573372  35.8105125
  81.2867432  48.6893959  48.3863716  81.4841385  49.3505783  47.7229652
  81.9676208  48.0261497  48.2735329   9.7110806  57.5807381  15.8148155
   9.9700603  58.4981079  15.7276659   9.9462090  57.1847343  14.9756937
  56.3516960   9.3199110  50.5993805  56.6441841   8.6509657  51.2184067
  56.9437904  10.0575151  50.7463493  11.2320337  21.8292179  13.5969992
  10.7171917  22.0719471  12.8274202  10.8450174  22.3332806  14.3127995
   1.7552007  66.3921432  89.2937775   2.6767421  66.2733688  89.5237427
   1.7737072  66.9188690  88.4947433  26.6331253  60.9396210  16.4874668
  26.2876854  60.9998894  15.5968084  27.1114693  60.1106644  16.5032520
  58.3879280  51.7223053  30.0820732  57.6673813  52.0927124  30.5918198
  58.0710411  51.7298813  29.1788807  74.3774567  68.9343872  62.1494331
  74.2703781  68.3455963  62.8964958  75.0937576  68.5511627  61.6431885
  68.9910583  17.1293659  39.4337921  68.4866562  17.6272125  40.0771866
  68.8352127  16.2134285  39.6640167  57.4872322  10.0618877  29.0875797
  57.0820541  10.5574713  29.7992401  56.9234390  10.2243652  28.3312931
   9.8766632  54.1598129  31.7634315  10.5513153  53.7205429  32.2812309
   9.0924749  53.6255074  31.8891315  64.7380524  61.3932838  85.2899246
  64.9978333  60.8097916  86.0028687  63.8596039  61.6882401  85.5298462
  20.8597889  14.8988619   9.6433096  20.9634132  13.9511642   9.7291155
  20.2450447  15.1364107  10.3374939  21.9007664   9.4546299  80.4271851
  22.6928692   9.0014973  80.7161026  21.1830921   8.9506454  80.8108215
  84.3553238  44.9160957  26.3739986  85.2279510  44.9466972  25.9817963
  84.1179047  45.8345108  26.5019588  70.5662689   1.5518813  22.8722858
  71.3684311   1.3559285  22.3881607  70.6629868   1.0775819  23.6980686
   4.2267804  26.8950615  59.0199776   5.1368957  27.1501675  59.1711197
   3.8601105  26.7847443  59.8972549  24.9732819   1.1586580  30.3288937
  25.8139210   0.9838074  29.9058247  24.3250351   1.0274718  29.6369400
  40.4627037  56.2047043  57.3874092  40.2650528  55.6090088  56.6646996
  39.6103477  56.4000664  57.7767143  12.4822712  37.8930779  55.9983444
  12.2614889  38.7351341  55.6003113  11.7917862  37.2998810  55.7024002
  77.6783524  10.4558659  68.6020966  77.0581284  10.8958378  69.1834564
  77.7018814   9.5521708  68.9167633  28.3175297  67.4273834   9.1620712
  27.5960655  67.8180923   9.6550846  28.9799805  68.1170273   9.1199217
  58.4649162  25.4081783  60.8243980  58.9367332  24.5896416  60.9780922
  57.9827271  25.2576599  60.0113373  25.1670723  14.8230639  81.8649368
  25.6386127  15.6393852  82.0307693  24.8596611  14.9032211  80.9619980
  73.8516769  33.6285973  65.6205063  72.9607620  33.6146812  65.9702454
  73.9815903  32.7510376  65.2610092   0.7436598  46.8616524  54.6579514
  -0.1199116  47.0601082  55.0200157   1.3204883  46.8245049  55.4209213
  66.8567886  56.6492958   3.0596530  66.8466034  56.2380638   3.9239538
  66.1647568  56.2013931   2.5731304  70.5566406  39.2842789  86.5352402
  71.0742035  39.0223045  85.7738342  69.7240906  38.8241158  86.4287491
   4.5650959  15.8572655  31.0598011   4.7871742  14.9509411  30.8465214
   3.6135609  15.8526192  31.1636829   2.9669683  71.1055298  88.3824310
   2.2156639  70.9896317  88.9641037   2.8740571  71.9967804  88.0458679
  39.4472961   1.4527860  46.3764725  39.4822693   1.0917826  45.4906464
  38.5550041   1.7881852  46.4633675  70.7546616   5.8811741  27.3468056
  70.0552216   6.4880924  27.5890141  71.0226746   6.1615295  26.4717026
  28.5473843  61.9497757  13.9733200  27.7510319  62.4750710  13.8950920
  29.0921707  62.2296906  13.2377338  40.1663818  50.8435555   8.0626822
  39.6072845  51.6195145   8.0235395  40.4837151  50.8222923   8.9654999
   4.5418525  52.0020332  63.4373589   5.1758385  52.6878090  63.6471367
   5.0708957  51.2116623  63.3293915  79.8638306  12.2397757  59.8701401
  79.5717087  12.8817844  60.5172272  79.0593185  11.8115902  59.5774841
  51.8318634  56.9541893  14.4676695  52.2038918  57.4549637  13.7416887
  52.5354004  56.3634186  14.7364826  39.7369957  44.2004013  66.5505066
  38.8347168  43.9548111  66.3460312  39.7288246  45.1575356  66.5581818
  50.5643387  24.8592052   2.3191199  50.1586189  24.6474876   3.1598332
  49.8284149  25.0689392   1.7440903   6.3369050  12.4772711  87.3411636
   5.4260397  12.5353394  87.0527420   6.7120275  11.7748985  86.8099442
  11.1888485  69.5467453  66.0653076  11.9603186  68.9807739  66.0380020
  10.9727964  69.7016830  65.1457672  71.2050323  19.5119419  25.1537113
  70.6209030  20.2568550  25.2956066  71.9549408  19.8810749  24.6872253
  59.3026047  43.1785545  57.1647644  59.9375114  43.3691254  57.8552818
  58.4597588  43.1443214  57.6171684  84.8408661   3.7655637  47.3363914
  85.2464371   4.6139860  47.1577110  85.5650330   3.2098491  47.6244850
  10.3309040  55.1238747  77.5431061  10.9906034  55.0308495  78.2304077
   9.5454817  54.7164574  77.9082794  48.9846573  35.3161507  24.8415070
  48.9041138  35.7234879  23.9790554  48.0815659  35.1992035  25.1364346
  44.2546806  48.9563103   7.3410659  45.0217018  49.5214119   7.4336572
  44.6057243  48.0669022   7.3851752  81.6433411   5.0815444  52.1639366
  81.8696365   4.1930656  52.4389458  82.3966599   5.6118674  52.4237480
  37.3761330  54.5953445  81.9695816  37.2158966  55.3091698  81.3523254
  36.7163200  53.9371872  81.7511597  57.2851868  28.1088371  76.2251816
  57.0312462  28.7131176  75.5276184  56.4794998  27.9633217  76.7210922
  85.8543167  54.8662949  36.7634430  85.5628738  55.2775307  37.5771866
  85.0958099  54.9214478  36.1821785  69.0872269  20.9058456  11.2288465
  69.3711014  21.6500206  10.6979485  68.2020721  21.1365604  11.5107880
  69.0857849  70.2249451   7.2088628  68.2047195  70.2486420   7.5822129
  69.6348648  70.6569748   7.8631554  36.4780197  38.2031631  76.1983261
  36.6452599  37.5735588  76.8996582  35.9699516  37.7126198  75.5522156
  19.9099979  40.7210197  83.9727554  19.6135387  41.6309814  83.9903793
  20.6420689  40.7195206  83.3560715  30.7254848  54.3822021  33.4111214
  31.3359318  53.7612991  33.0135498  31.1769295  55.2249832  33.3647270
  13.6939631  16.2969723  89.2344818  13.7667637  16.7580986  88.3988419
  12.8229332  16.5254555  89.5590286   8.1857042  14.9684525  80.1700439
   8.9206114  14.6418390  79.6509399   8.4798031  15.8205967  80.4918976
  77.5503082  32.0794868  38.9631691  77.1884537  32.1678810  39.8449173
  76.8967056  31.5680733  38.4862061  80.7147064  38.7975006  74.9048309
  81.4140396  39.4509583  74.8921280  80.1569061  39.0578728  75.6378403
  73.4047852  41.4924583  46.6625404  73.4219513  42.3609581  47.0645905
  74.3267670  41.2498779  46.5769615  62.5904350  29.3586617  87.1105270
  62.9740829  28.4830112  87.0627975  63.0069656  29.8418694  86.3969116
  30.5174160  46.7979012  63.4165955  30.7975674  47.0158272  64.3055573
  29.5875206  46.5880737  63.5031853  30.1030159  46.3571892  46.7087746
  30.0333233  45.8721962  47.5310631  29.8192444  45.7350426  46.0389709
  26.1202316  38.3567657  64.0304489  25.8343582  38.0228386  64.8807449
  26.1368847  39.3075523  64.1398163  54.5729218   8.1955881  88.6139679
  54.9712410   7.9512553  87.7785797  55.3064957   8.2309122  89.2278519
  79.4024734  51.3466721   8.6300602  80.2509460  51.0157013   8.3354588
  79.3996658  51.1914406   9.5745850  44.1978951  70.7145538  89.2366562
  44.3441238  70.3794250  88.3520432  44.7792053  70.1925507  89.7896729
   3.6857765  58.0597687  37.3475685   4.2436028  57.7175217  38.0460854
   4.2982135  58.3378143  36.6665077  37.5479698  70.6253204  50.8780556
  37.2394981  70.0208740  50.2029800  37.3601532  70.1785583  51.7035027
  58.0669365  28.5051632  13.7601213  58.2595177  29.4295254  13.9172878
  57.7483940  28.4769058  12.8579216   6.5284405   5.5813322  41.3015442
   6.1745534   6.4463639  41.5082245   6.1668911   5.0070910  41.9766464
   7.9617519  14.6796074   6.1812215   8.2484102  13.7900105   6.3878045
   7.0416045  14.5837584   5.9355111  46.0980644  55.0252419  60.9426575
  46.2800179  54.2862740  61.5232162  46.7460480  55.6863403  61.1861610
  24.9043827  30.6089687  14.2457466  23.9738064  30.5579872  14.4640579
  25.2679577  29.7778931  14.5512924  35.4650993  65.7709961  61.3089027
  36.0829659  66.5017624  61.2877846  36.0137749  64.9970398  61.4361115
  49.5213661  13.8867989  18.0606041  49.5662689  12.9719486  18.3385715
  49.2070274  14.3566647  18.8330345  38.0511932  21.1078625  72.0789185
  38.4330635  20.3043137  72.4320679  38.3131065  21.7895870  72.6976929
  24.6742916   2.1337867   3.0921803  24.8694897   1.3808511   3.6500487
  23.8638744   1.8948640   2.6423225  45.1479111  20.7443771   0.6985406
  45.8173447  20.3418598   1.2517786  44.9836731  21.5963593   1.1027496
   8.3597984   8.4460640  65.5756607   7.7287459   9.1651106  65.6069031
   9.1758986   8.8559132  65.2888870  60.2813034  53.4133606  79.2692184
  61.0793839  53.4392509  79.7970734  60.5476456  53.7545433  78.4154663
  78.6061707  53.0018005  16.3130455  79.4217758  52.5337372  16.1343651
  77.9993591  52.6906548  15.6413298  82.4221344   3.4682703  31.7480526
  81.4724884   3.3982882  31.8455582  82.7112198   2.5733099  31.5699883
  33.2069473  49.1523476  86.8378677  33.0703239  50.0670128  86.5909805
  33.9452705  49.1762848  87.4465866  25.4639320  60.0081215  67.5470581
  26.0872040  60.3409195  68.1928177  25.8479862  60.2404480  66.7016220
  71.0812149  66.8618164  28.1919632  71.6934586  66.9874878  28.9169388
  70.3987274  66.2944260  28.5504494  73.3235168  48.8835678  89.2697906
  72.3698959  48.9657135  89.2791290  73.6245880  49.6442719  88.7728806
  66.7489243  44.5235214  55.2472839  67.6446991  44.6291504  55.5676842
  66.1988907  44.8272247  55.9694061  30.5887909   4.1939535   2.1498926
  31.4505901   4.5193233   1.8897592  30.5546665   3.3024449   1.8030788
  45.3855362   7.1507711  39.6756516  44.7594910   6.8746643  39.0062714
  45.7666054   6.3342252  39.9985580  55.6585770  57.9010849  10.0675421
  55.4006882  57.0463791   9.7222748  55.9176445  58.4032555   9.2949257
  83.6749954  66.3787079  83.6290359  83.9178085  66.0896835  84.5086594
  83.3772583  67.2807465  83.7469788  49.8769722  40.8264351  51.0261917
  50.1221123  39.9210014  50.8355789  49.1701508  41.0180321  50.4098091
  36.5760956  71.5098724  47.8650322  36.6990051  72.1002655  48.6083755
  35.8115921  70.9842224  48.1005135   5.7316327  68.6263962  32.2317734
   6.6270123  68.2925262  32.2870750   5.7299781  69.4016342  32.7932320
  15.2723303  52.2874565  11.9708643  16.0762520  52.1399574  12.4690456
  15.5164909  52.1067085  11.0631485  82.1142731   9.0082865   2.3763590
  82.1085052   8.9611931   1.4203355  83.0009308   8.7458763   2.6237419
  42.5334816   4.5360842  39.4560509  42.0533142   3.9862654  38.8368835
  42.3222198   5.4322538  39.1943626  68.4768219   7.1197634  86.2590408
  69.0585098   6.4637036  86.6430511  68.4618454   7.8308740  86.8996124
  57.0027161  54.9992790  74.8420639  57.0939827  54.9439011  73.8908310
  57.1799011  55.9174232  75.0466309  42.1383553  37.3773041   1.7012361
  41.5462303  37.4560738   0.9532931  42.8616714  37.9702339   1.4975748
  37.5242119  58.5375252  28.4967709  36.7624207  59.1168594  28.5134277
  37.6365891  58.3161469  27.5723267  29.1059399   2.0305469  24.4297218
  29.8397713   1.4159985  24.4370193  28.9855080   2.2488232  23.5055561
   0.9085077  26.7860069  65.5906067   1.8355108  26.5595150  65.5157852
   0.4641764  25.9447765  65.6961365  53.3832054  18.3043098  58.1525536
  53.6159286  18.2057362  59.0757828  52.4262238  18.2860470  58.1435089
   4.3711805  61.4704933  61.2386627   4.2924876  62.3518181  60.8735504
   3.8667791  60.9179649  60.6415710   7.8808227  50.3930588  23.4430523
   8.7927103  50.6774445  23.3812637   7.9228954  49.4387321  23.3820152
   0.9373973  30.8027077  49.6725426   1.7563195  31.2679214  49.8433456
   1.1897700  30.0736828  49.1059227  67.7302399  24.0727615  79.4235687
  67.7395401  23.1761951  79.0884399  68.5765915  24.4351501  79.1616592
  43.3977852  58.5211639  63.9619408  43.1549225  59.2038651  63.3365021
  44.3549576  58.5279808  63.9642677  58.8478737  23.3610344  21.4149990
  58.3998375  23.0071335  20.6467209  59.5705681  22.7533150  21.5718956
  43.1876831  66.6748962  61.7500992  43.7325401  66.1438446  61.1692848
  42.4154282  66.8874741  61.2260132  38.2214508  45.9638329  72.3948288
  38.4648018  46.8148422  72.7592316  37.5717468  45.6181374  73.0068817
  48.6013336  44.7424469  13.9791718  48.7686882  45.6297607  13.6615295
  48.4494438  44.2287445  13.1859055  72.5603256  39.8090134  38.9517937
  72.3840408  39.4830933  39.8343658  73.4652481  39.5503922  38.7772751
  56.4852104  31.8486061   8.8630533  55.9876137  32.0995522   9.6412907
  55.8264160  31.7675323   8.1733789   5.1463561   6.5439911  66.2221375
   5.1388230   7.3567891  66.7276459   6.0443773   6.4713039  65.8988647
  67.8159714  54.1465454  52.8066025  67.3323822  53.3224907  52.7491302
  67.6380539  54.5871201  51.9756584  62.4915810  29.8927555  30.9238529
  61.7138290  30.3436527  31.2525196  62.4227219  29.9597244  29.9714832
  44.2745819  27.5064316  78.9690323  44.2712593  26.5690823  79.1629257
  45.0635223  27.8370667  79.3985519   4.3024235  40.6457710  65.4315033
   4.9779797  40.8770332  64.7940292   4.7727242  40.5688896  66.2616501
  26.1743183  13.2697802  30.7178516  25.8521328  13.5341606  31.5795536
  25.7251949  12.4440098  30.5372276  25.4559860  57.0759010  38.8850822
  25.3160229  58.0215759  38.8367577  25.5912895  56.9010849  39.8164062
  77.9043121  24.8955784  85.5502014  78.8571091  24.8424816  85.4754639
  77.6283264  23.9982395  85.7368851  64.5046387  65.9606857  45.2482605
  63.5774040  65.9859695  45.0119781  64.9439774  66.4399643  44.5457573
  12.6866550  50.8409843  45.6493874  13.5529242  50.6024017  45.3194046
  12.2928696  51.3510704  44.9415855  44.7091408  62.5217590   0.4571932
  43.9586678  62.0806541   0.0591326  45.1363373  61.8430748   0.9798044
  12.2057505   4.9458361  85.5362549  12.1417408   4.0049915  85.3721008
  12.4232607   5.3234100  84.6839828  23.8542557  13.9003010  60.4789963
  23.8564758  13.0724611  59.9984665  23.2012959  13.7757063  61.1677284
  85.6476669  55.9802551  -0.2689537  85.0914230  55.9344368   0.5086861
  86.4037704  56.4980049   0.0075803  77.4400940  35.7083359  76.6147690
  78.3715210  35.8956795  76.4982529  77.0845566  35.6995430  75.7260971
  21.3909740  27.1203766  61.9758186  21.9691696  26.5667400  61.4510231
  21.2561302  27.9018173  61.4397240  33.3925476   1.7880983  64.3667908
  33.0228729   1.4804282  65.1943893  32.6590538   2.2093670  63.9187431
  22.6505108  61.4848328  83.3001480  22.6519947  61.0680809  84.1618652
  22.5921459  60.7564049  82.6819153  59.2063255  19.1845493  43.3483124
  59.4489594  20.0978394  43.5008354  58.7127151  18.9342346  44.1292877
  84.6943436  34.9597893  21.4378834  84.2691269  35.7600784  21.1297379
  85.5983810  35.2210960  21.6130257  80.4611359  34.6724701  70.3073425
  80.1857071  34.6286621  69.3916702  81.3960342  34.8738670  70.2668686
  30.8693695  52.3905296  84.9841385  31.6574879  52.3505516  84.4423752
  31.1766739  52.7156029  85.8303757  20.7585449  12.9252338  87.1574402
  20.0347767  13.2269907  86.6085052  21.0644283  13.7139387  87.6053391
  78.8519669  16.3527241  84.7298737  78.7713165  16.1822605  85.6683121
  79.6804047  16.8241901  84.6424179  30.9228210   9.6046705  -0.1416206
  31.5426483   9.2112541   0.4726027  30.5095940  10.3111973   0.3546606
   5.0267653  46.9573097  39.6126709   4.9197917  47.8759613  39.3659554
   5.7927160  46.9511070  40.1867027  63.3421974  51.9799957  47.9012413
  62.9704819  52.2290916  47.0550652  62.5833626  51.8796234  48.4759789
  54.3411942   5.5805106  12.1201353  53.4228439   5.4510674  11.8832674
  54.8227501   4.9839849  11.5469913  66.7886276  55.6767960  57.8036613
  67.1425552  56.5649376  57.8502655  67.0666428  55.3528252  56.9469337
  78.8501892  50.6555634   3.8631301  79.0574341  50.2142982   3.0393798
  78.7175598  51.5711823   3.6175966  45.8540001   1.4245414  40.8757210
  45.3369102   2.2291696  40.8379860  45.6599083   0.9762767  40.0525436
  66.8757172   7.7540026  29.0898018  66.3798141   7.1769538  28.5090046
  66.2189331   8.3447943  29.4583454  55.9687004  63.9168549   7.8021340
  55.8929710  63.2418327   8.4765539  56.8319130  64.3043137   7.9469295
  26.4751816  21.1123466  50.8893929  25.9078465  21.5554943  51.5202522
  26.0139961  20.2995758  50.6821709  65.2010574  14.0655756  25.8609829
  66.0242310  13.5869360  25.9585781  65.4376907  14.8509102  25.3675404
  83.7178116  31.4290867  48.2082481  83.9217682  31.6781197  47.3067970
  83.9330902  32.2050896  48.7256546  17.3166199  12.6126270   5.3172264
  16.4758358  12.5504570   5.7704911  17.2005291  13.3302517   4.6945152
  72.7098999   2.0341167  46.5110359  73.2541351   1.4493595  45.9836884
  72.8188400   2.8939495  46.1047707  47.2457504  53.7240829  26.9343243
  46.8315582  52.9053764  26.6615677  48.0241852  53.4489403  27.4186440
   1.8184187  35.0548286  49.2072372   2.7698393  35.0133476  49.1107483
   1.4790399  34.6297836  48.4195862  49.7496262  63.8917236  83.7797852
  49.4087753  63.3767586  83.0484390  49.0633354  64.5339279  83.9609146
  28.7608395   5.1397476  10.2233009  28.4803543   4.4072380   9.6746750
  29.6867561   5.2572508  10.0109215  63.9182091  35.3141136  76.8887100
  63.5696945  34.5329781  77.3183594  63.5805168  36.0438843  77.4079742
  52.1615486  36.8691978  40.2105713  52.9874535  36.4312096  40.4161949
  52.1560555  37.6452980  40.7708168  36.0995789  63.7672806   4.1337838
  35.8767052  63.4665222   5.0147514  35.7418823  64.6538315   4.0857201
  66.4573975  55.5543251  18.5935707  66.6387405  56.3987122  18.1808357
  67.0200043  55.5404472  19.3678513  77.2114944  33.3337517  21.6321335
  76.9699173  32.6491470  22.2559872  76.5274658  33.9965630  21.7271252
  68.2991867  66.2328262  54.4052849  67.8037109  65.4342194  54.5868378
  67.9770279  66.8656769  55.0471153  23.8119755  50.0914612  83.5195236
  24.1444359  50.0004959  82.6265335  22.8605137  50.0425339  83.4270096
   5.8517966  68.3089676  88.4803619   5.7948837  69.1493225  88.0256119
   6.7676897  68.2446213  88.7509766   1.0761310  18.0305977  75.2511978
   1.6341965  17.2549362  75.3072662   0.5989345  18.0428028  76.0808792
  27.9826183  60.1088982  26.2146072  28.1147175  59.6021576  25.4133606
  27.6461830  60.9523315  25.9118481  29.5421886  62.2346764  33.7905197
  30.2965984  61.8224449  34.2114258  29.0213165  61.5019608  33.4618073
  20.4812469  48.9039116  47.4944344  19.9633408  48.1661186  47.1724586
  21.3581257  48.5425987  47.6239281  15.9713039   0.3575761  68.9731445
  15.8282948   1.0043695  69.6641159  16.4503479  -0.3506534  69.4034500
   3.9594615  11.9037437  49.1164398   4.0855842  11.0416555  48.7200432
   3.6001081  12.4415455  48.4108429  64.4115448  37.5628014  34.4349899
  63.9257202  38.2894783  34.0449333  63.7610397  37.0921021  34.9560623
   0.9098036  17.6803207  36.0993309   1.0002226  16.7276039  36.1190300
  -0.0102791  17.8291283  35.8813019  49.3855896  62.6565361  26.9100113
  48.8038445  62.4067039  27.6279144  50.0674171  61.9847145  26.9093781
  48.8131561  57.8052101  58.9390755  48.0243912  58.3206711  58.7706070
  48.9393463  57.8630791  59.8861542   2.6220813  37.7691879  37.4698448
   2.4467890  36.8303947  37.5344353   2.8521416  38.0317612  38.3611107
  10.0986309  69.2184219  86.5292206  10.0848513  69.5557938  87.4248962
  10.4011421  68.3146667  86.6183319  10.7754364  40.6076202  37.3116684
  11.1170368  39.8610344  36.8195801  10.6919975  41.3050995  36.6614456
  38.4187584  45.4848404  38.6632843  38.6414185  45.6445694  37.7461472
  39.2474709  45.5845566  39.1318169  11.7738590  51.6219902  51.2884254
  11.2191181  51.8403587  52.0372963  11.2967558  51.9596443  50.5304031
  38.6736755  27.9735775  85.0972061  37.7385139  28.1277523  85.2311401
  38.9468269  28.6660862  84.4954987  49.2766266  47.2394333  13.1299257
  49.9923782  47.0553398  13.7382374  48.7388000  47.8891678  13.5824947
  41.6943169  58.5831909  22.4245491  40.7630005  58.6275558  22.2079430
  42.1066322  59.2197342  21.8405628  10.4992352  18.9281979  68.7098160
   9.5640373  18.9883118  68.9048157  10.6894922  17.9904537  68.7356567
  48.8163223  56.0964050   2.8168941  48.2621765  55.3701096   2.5311611
  49.3928337  55.7123260   3.4774611  -0.0205157  69.9117355  45.9812622
  -0.5059655  69.5355911  45.2470398   0.7429383  69.3428879  46.0801620
  78.8239594  49.4749031  23.0390148  78.7643814  49.6998520  23.9674969
  79.3173065  48.6548004  23.0224457  79.5856247  71.0951462  43.7316780
  78.9259720  70.9047928  43.0647011  79.3830109  70.4930038  44.4476471
  62.9138260  21.8933163  31.6567860  62.6250725  21.7639084  30.7533989
  62.2484627  22.4638519  32.0415077  30.2978764  34.4339142  80.7225037
  29.6826191  34.4901962  79.9913940  30.1946850  35.2645493  81.1868668
  59.8629684  53.9085655  27.7522221  59.3092117  53.1361656  27.6382828
  60.6540604  53.7122612  27.2503529  46.6661339  56.5960464  39.7936592
  46.5709457  56.3439980  38.8751564  46.4702950  55.7969322  40.2828407
  84.9814301  63.7640762   0.5909979  85.3997726  64.3042526   1.2613926
  85.6963425  63.5105820   0.0071537   0.7759225  33.0188255  68.6907196
   1.0359465  32.1247520  68.9126358   0.5861006  33.4294205  69.5342941
  39.6011658  63.3682594  29.4726429  38.8977966  64.0080795  29.5827885
  40.3241043  63.8696098  29.0954971  78.2322693  48.2461700  35.3715096
  77.6221542  48.2124977  36.1082916  77.8656158  47.6387787  34.7289581
   9.3978949  56.6450500  56.7387276   8.9728632  56.1390495  56.0462379
   8.7382765  57.2845573  57.0073624   8.1744623  45.2306747  62.6457062
   7.3151894  45.5602570  62.3825417   8.6735506  46.0158730  62.8706551
  56.3544846  41.8006096  71.3228836  56.6765900  40.9887466  70.9312744
  55.4055557  41.6840210  71.3695145  80.6993561  31.6445770   7.5430174
  80.9251938  31.2891045   8.4025908  81.1622620  32.4813309   7.5007172
  12.6318083  43.6360092  72.4507065  13.1932306  43.5300636  71.6827164
  11.7428112  43.6568451  72.0964737  39.0120697   7.8219442  23.3888512
  38.4246826   7.1988502  22.9611092  39.2054214   7.4246936  24.2379894
   5.1134195  19.0638180  44.4386444   5.6169496  18.8394337  45.2211685
   4.3245697  18.5249920  44.4987640  56.7303734  19.2384052  53.1105499
  57.6409721  18.9742794  53.2419930  56.2297935  18.6736259  53.6993408
  44.6994057  26.7434139  67.5886459  44.1318588  26.3818569  66.9079056
  44.1746101  26.6966629  68.3877869  16.1607590  23.9758453   8.4171305
  17.0311871  24.2673607   8.1458254  15.5727873  24.3185883   7.7440429
  76.2226791   7.1557603   3.0567715  75.9333572   8.0420408   2.8399074
  76.4882278   6.7785468   2.2180657  53.3655014  25.5790672  75.9815140
  53.3242798  25.6888103  75.0315247  53.2141190  24.6443253  76.1214294
  13.9490690  23.1575356  87.6989365  13.6384363  23.9371185  87.2385101
  14.8569117  23.3591194  87.9256973  57.1801338  40.2300644  10.8326321
  57.0489960  40.3100090  11.7774305  56.8361092  39.3636055  10.6155424
  18.4184246  62.7157784  23.1659756  18.1960926  63.2589188  22.4098034
  18.9086094  63.2998734  23.7445812  45.3888893  33.6705513  23.4742928
  44.7065277  33.2231560  22.9738388  46.0706177  33.0093727  23.5939579
  83.0555420  60.9545898  65.1097260  82.6814270  61.2721939  64.2878952
  83.9841003  61.1799622  65.0530777  66.4922180  25.0131989   4.1650734
  67.2848816  24.9381657   3.6337616  66.7031479  25.6817322   4.8168435
  37.7203445  23.2783241   5.5389829  37.1465607  23.3641815   6.3003192
  37.3809090  23.9152393   4.9102111  66.3702164   2.9444237   3.6699519
  65.5789413   2.5453820   3.3081779  66.2600708   2.8774672   4.6184330
  71.7185974  17.1151085  39.8866768  71.4769516  16.8976822  40.7869911
  70.8828964  17.1924515  39.4264030  47.4284248  21.9479847  17.3224945
  46.7434998  22.6162319  17.2988949  48.2471962  22.4433804  17.3018417
  21.0068073  14.9245529   4.9396844  21.3054295  15.3783979   5.7277718
  21.7701397  14.9199963   4.3621597  41.7512436  28.5131073  15.6183567
  41.3251534  29.3066902  15.2944641  42.4878731  28.3765602  15.0225687
  38.7212944  47.1178169  82.4519730  37.9184303  46.6755867  82.1761627
  38.4177017  47.8770256  82.9496307  27.9998302  10.7357826  28.7960815
  27.2449608  11.1219397  28.3519115  28.7584667  11.1307650  28.3663254
  34.8953018  46.6166000  71.8235016  34.8621788  45.6600761  71.8373947
  35.7458496  46.8211861  71.4349899  73.8312836  46.2129250  88.9780807
  73.7103043  47.1202202  89.2580948  73.1591644  46.0767174  88.3102951
  25.4197578  13.2538071   2.5158353  25.8721371  12.4348593   2.7180998
  24.5259094  12.9869862   2.3011909  72.3114471  45.8947906  29.1954536
  72.9779739  46.3135414  28.6508179  72.8088303  45.4373932  29.8734112
  86.0096130  57.7674484  31.9302979  86.7393875  58.3704681  31.7887974
  85.3771591  57.9925461  31.2479725  59.8318787  18.4756184  85.5419006
  59.9254227  17.8531342  86.2630081  60.7160912  18.8143425  85.4016647
  34.6331062   8.5103836  10.1371546  34.6046295   9.0276108   9.3322344
  35.0727692   9.0773706  10.7707596   3.7047207  20.6775036  18.3357830
   2.8481176  21.0248775  18.5843697   3.7227049  20.7450256  17.3811378
  63.0654030  39.5626030  27.1172218  62.8831596  38.6555023  26.8718929
  62.7791519  40.0769882  26.3624363   2.8427184  35.9772568  30.7181797
   2.7677960  36.6642532  30.0558681   2.1170559  36.1442566  31.3196411
  23.4016438  37.0662003  20.6254711  22.8979416  37.5546303  21.2765884
  23.3696098  37.6115685  19.8394833  50.5030861  67.2928085  65.4740829
  49.9466782  66.6006317  65.1169662  51.1870956  67.4139481  64.8155365
  84.9630127   8.3920088  58.3991890  84.3357239   9.1134968  58.4460678
  85.7022629   8.7489605  57.9069176  39.9092598  43.4424477  44.5918617
  39.2683220  43.3358841  45.2947693  40.6735992  42.9479790  44.8876877
  67.6576843  29.9892292  40.0838928  68.3371429  29.5376568  40.5845451
  66.8759384  29.9294777  40.6330147  17.6057529  70.3730469  16.5715675
  16.8741264  70.6628876  17.1164932  17.3262024  69.5250854  16.2265434
  53.8304558  38.4955559  20.3288670  54.2446175  38.9484520  19.5942993
  54.4562683  38.5831718  21.0478325  59.1750107  63.4840508  50.7049255
  59.8048592  62.9744263  50.1952171  59.5022240  63.4397278  51.6033669
   2.9565513   1.6926807  77.8537674   3.5585747   2.1935649  77.3033905
   2.2718754   1.3980303  77.2532425  45.6299324  24.7442436  38.3407822
  46.5233536  24.6978302  38.0003853  45.1207581  24.1849251  37.7541542
  84.8577423  69.6583710  83.5277100  84.0755234  69.6286774  84.0786057
  85.5378418  69.2387543  84.0546112  53.1748123  27.0100117  25.8870029
  52.9483490  27.8565063  26.2722187  53.9739876  26.7456150  26.3426857
  81.8408051  28.7206249  65.3433762  81.1803741  29.3981266  65.1983032
  82.6553192  29.1074429  65.0221634  35.9738121  35.9794998  77.9588928
  35.9473190  35.4430122  77.1666107  36.8642998  35.8701591  78.2925186
  14.2241125  67.5056534  69.8867340  13.4076529  67.1392288  70.2263718
  14.4508371  68.1997833  70.5056152  38.6599274  58.4075432  44.3241043
  39.4875336  58.4414520  44.8038445  38.8648071  57.9181900  43.5273666
  24.3709373  19.6323357  15.1620522  24.6261845  19.1296158  14.3885193
  25.1043205  20.2286911  15.3128595  48.5146599  53.8801994  39.9984016
  48.5066681  53.2172470  39.3079948  47.8242188  53.6058235  40.6019211
  77.9071121  27.3659420  62.7758369  78.8626404  27.4193459  62.7574692
  77.6145325  28.1456585  62.3039589  57.5129623  -0.0177250   3.3510025
  57.2212219   0.7400826   2.8442023  57.9201164   0.3583874   4.1313858
  20.7199306  49.0157471  30.0278416  21.6602707  48.8517227  30.0991707
  20.5821304  49.2213821  29.1032028   2.2633195  62.9939804  53.9084206
   3.1053033  63.4473534  53.9502182   1.7821259  63.4458542  53.2152443
  13.4347687  26.8068314   8.5227299  12.8554716  26.2532845   9.0464020
  12.8440466  27.3994942   8.0579405  49.7959328  47.0294571  18.3448772
  50.1119766  47.6753464  18.9766788  49.3625145  46.3639374  18.8791695
  41.7378273  42.6658363  71.2092209  41.0097198  43.0621567  71.6877823
  41.3191528  42.1528053  70.5180283  62.7889175  15.0415297  52.8887138
  62.3734169  15.2484665  52.0515976  62.5983467  14.1138687  53.0278549
   8.8583040  37.8098946   5.7073069   9.4586697  37.8224106   6.4527168
   8.0372229  38.1577721   6.0552158  71.9321976  19.9663277  75.9146576
  72.6947327  19.5391579  75.5244064  71.1973114  19.3950329  75.6915207
  50.1639748  31.7104588  83.3102646  50.7439957  32.2127037  82.7379379
  49.2822075  31.9828453  83.0562515   3.7415783  14.0336456  56.1929436
   3.0317726  14.6665297  56.0840149   4.5247688  14.4993029  55.8996735
  14.9619579  32.1608200   2.2790275  14.0680628  32.4860802   2.3857450
  15.1231985  31.6407909   3.0663033  80.0454102  28.8866291  18.3113899
  80.5943756  28.9804649  19.0898952  79.1891251  29.2190456  18.5806446
  62.4010391  45.6856422  19.9155674  63.0587349  46.2336960  19.4874249
  62.8229103  45.3918228  20.7229900  40.5357094  69.9899139  24.3316574
  39.9546547  70.3801575  24.9845848  41.2108269  70.6525040  24.1853065
  11.0644121  56.0224228  72.7098389  10.3449936  55.6539459  73.2225647
  11.3302965  56.8026314  73.1964645   2.3612013  28.6301842  25.1259365
   3.2070432  29.0547066  25.2693443   2.3777356  28.3681431  24.2054520
  10.7195740  70.0215073  63.5763779  10.4084940  70.9229965  63.6587410
  11.5115538  70.0892105  63.0430717  57.1556435  60.9168129  54.8907814
  56.2406578  60.6490021  54.9762840  57.2392082  61.6728859  55.4718170
  39.8180428  62.8127708  60.1311226  39.3118629  62.4581947  60.8620758
  39.1981621  62.8418961  59.4023399  25.6198463  48.0712929  54.5195389
  25.7409897  48.0709419  53.5700340  25.6288891  48.9972839  54.7618027
  53.4311295  42.4919777  19.1427116  54.0840645  41.8062706  19.0022926
  53.8754768  43.3012047  18.8898563  28.8184795  41.4185143  17.2110252
  28.8129921  41.3301201  16.2579308  29.4814873  42.0864220  17.3858070
  42.0257797   2.7363513  24.7774220  42.0299797   2.4595470  25.6937141
  41.8117180   1.9419433  24.2882137  22.3803024   0.0402275  77.7700729
  23.2117424   0.3385886  78.1387482  21.7916393   0.7883253  77.8703613
  81.3012466  65.2425385  80.7234650  81.0337982  65.2238998  79.8045731
  81.8909988  64.4943619  80.8164825  42.4749184  67.9385529  24.0040722
  42.1024284  67.3064957  24.6188793  41.8370323  68.6517487  23.9779072
   0.8413963  41.3914948  61.3830452   0.0770173  41.1005211  60.8857613
   0.5760497  41.3107567  62.2991791  75.4339218  13.1088295  86.7472916
  76.1076050  13.7539167  86.5322571  75.3654633  12.5636539  85.9635010
  61.3895988   7.8360162   3.6240044  61.2165451   7.5118065   4.5078444
  62.1384277   8.4233351   3.7266703  28.3999939  67.0057602  34.6069031
  29.0985088  67.4718170  35.0663605  28.1053123  66.3414078  35.2298164
  45.7783470  42.6780815  81.9137268  44.8540611  42.6428261  82.1600723
  45.8179436  42.2319221  81.0677948   2.0247023  34.5224457   8.8995380
   1.3893971  34.4388161   8.1884651   2.6387184  33.8018837   8.7581100
  56.0097313  15.1478615  48.0981522  55.4666634  15.8214922  48.5074539
  55.7996674  15.2045546  47.1660080  83.4624481  62.1818161  37.5441055
  84.1338043  62.8583679  37.6323547  83.9315033  61.3592415  37.6840477
   5.5704446  23.8781223  67.1156616   5.7826328  24.2486687  66.2589874
   5.4149079  24.6397572  67.6741943  35.2309990  15.3331757  65.5652084
  35.3084068  16.2872200  65.5591431  34.3820305  15.1591702  65.1587524
  80.3751602   7.5374269  41.4061699  81.2954865   7.6250305  41.1580658
  80.2497025   8.1898785  42.0952301  85.1766510  28.7315960  41.0382576
  85.3184280  27.7901936  41.1377106  84.2545547  28.8597717  41.2608452
  45.8564339  29.5945187  10.3527508  45.5638275  28.7147713  10.1147232
  45.8177834  29.6092300  11.3090572  83.5986786  65.1756287  30.3877544
  82.7339783  64.8294449  30.1671352  84.0211258  64.4703064  30.8779488
  62.3083267  43.9744339  26.3242092  61.5079994  43.5622635  26.6495132
  63.0020294  43.3490524  26.5337410  47.0686340   4.9022942  10.8677502
  47.5085869   4.0551982  10.7963228  46.5737000   4.8469596  11.6851931
  52.7291679  47.5817223  30.6392689  52.0052605  47.1225433  31.0651131
  52.4550781  47.6661911  29.7260475  77.3731613  42.0900154  59.6631088
  77.4457092  42.8059120  59.0318718  78.2201233  42.0769997  60.1088867
  18.7602386  44.2005386   2.8795061  19.3204803  44.4670372   3.6084373
  17.8686256  44.3178596   3.2073717  58.7183609   9.3121901  34.3285942
  57.8316040   9.1669083  34.6584206  58.7719078  10.2584019  34.1942520
  72.2469482  13.0585823  19.3243237  72.3740921  12.4188175  18.6237736
  72.7276764  12.6970959  20.0689468  72.2171860  51.9218369  30.4085045
  72.9866638  51.4985237  30.0277958  71.6233139  51.1996384  30.6133881
  63.9655952  25.1269455   3.5283885  63.9453659  25.5697765   2.6800230
  64.8959885  24.9832458   3.7014325  67.2970276  29.1692505  79.7509460
  67.3782196  30.0500984  80.1166687  66.5114212  29.2078686  79.2054596
  15.1977129  30.4284763  12.4995680  14.9369574  30.6210346  11.5989246
  15.2325640  29.4727516  12.5396938  39.0159798  13.5601749  75.4968796
  38.4804268  13.0802994  76.1286469  39.8333054  13.7383137  75.9621506
  12.1700153   5.2247982  56.6400528  12.7766752   4.8360119  57.2701645
  11.9224739   4.4992523  56.0668678  62.0228806   5.7322183  30.9709549
  62.4888496   5.6002812  30.1453037  61.9185257   6.6813431  31.0380650
  58.7285194  50.1224823  81.1075287  58.2594910  49.7170753  81.8368301
  58.3327408  49.7384415  80.3251572  61.5925446  30.8814754  37.9047356
  62.2747116  31.0161266  38.5625687  60.9417763  30.3333607  38.3432579
  78.1554031  63.8742409  25.7625942  77.4238281  63.4252853  25.3389626
  77.7609558  64.6480789  26.1648655  69.4864349   7.8206911  74.9795303
  69.8507767   7.1240077  75.5255280  69.4654541   7.4480095  74.0981064
   5.4255939  50.3975945  58.0874100   5.2509246  50.5410500  59.0175438
   4.6937857  50.8206215  57.6382599  18.6343250  54.2256317  42.5001030
  19.5414963  53.9204292  42.4889450  18.2302647  53.7492752  43.2253990
   9.0381927  70.2344666  28.1124420   9.8416395  70.4423218  28.5894146
   9.3323441  69.7210999  27.3600063  58.0514336  19.3716869  79.0639801
  57.6395111  20.1849270  78.7721024  57.4391403  18.6849079  78.8000412
  15.8661566  51.2627106  40.1473122  14.9391050  51.1119576  40.3319206
  16.0119572  50.8465157  39.2977486  41.7771530  65.8724289  40.8269882
  42.1536865  66.4184189  41.5171700  41.0357666  65.4348526  41.2454414
  62.3932266  43.7847061  49.0198708  61.8778687  43.5211334  49.7822151
  62.9624977  44.4821205  49.3451042  78.9693451  69.2760239  48.2919922
  78.3315430  69.4526901  48.9835320  79.4828720  70.0812988  48.2283669
   3.7824266   7.5909419  47.7993889   4.6442928   7.6703839  48.2081757
   3.4882340   8.4943762  47.6832466  57.5670280  21.5205460  36.1263084
  58.4856453  21.3407040  35.9262238  57.2810059  22.1103783  35.4287987
  53.5105591  39.6772423  50.6066399  52.8838158  39.0296440  50.2840958
  53.9320030  40.0166473  49.8170700  39.4755020  20.5791435  86.8761749
  39.4486313  20.1454716  87.7290726  40.0983200  20.0628891  86.3644943
  53.9566650   7.7610612  76.9565582  53.2226906   7.1729364  77.1343842
  53.8540726   8.0004158  76.0354614  57.9127922  69.7940369  68.2776794
  57.9245148  68.9553986  68.7389603  56.9834099  69.9839172  68.1494980
  40.0464630  63.0419197  51.9495201  39.5385590  63.8240814  51.7339058
  39.4880295  62.3122406  51.6812744  34.3455048   6.0717330   5.1065764
  34.0270195   6.9568858   4.9296551  35.2017059   6.2022610   5.5141506
  70.9231720   5.6698766  80.0697403  71.6927185   5.8122058  79.5185776
  70.6176376   6.5507092  80.2865601  34.8483810  36.6995506  74.7422028
  34.7615700  37.3934288  74.0885696  33.9804077  36.2979584  74.7819061
   6.1171045  19.0425720  15.8157244   6.0708814  19.9941654  15.7231636
   7.0355272  18.8301048  15.6496239  41.0303764  63.4198112  36.7335510
  41.2448616  63.4145164  35.8007050  41.1163902  64.3369064  36.9938889
  65.3192291   7.2818565  73.3975143  65.9038696   6.6260552  73.7774429
  64.6128693   6.7719603  73.0009003  39.7964630  50.5582047  81.0564499
  40.3675117  49.9095001  81.4679260  38.9280968  50.1557274  81.0698853
  81.1784363  42.8099670  36.6077347  81.2951736  42.6141891  37.5373993
  81.8757935  43.4334755  36.4048653  32.9727745  67.8031693   7.0210538
  32.8055000  67.7926102   6.0786424  32.1219177  67.9994736   7.4131479
  10.4440308  61.6103897   6.4040718  11.2855835  61.1680107   6.2930784
   9.8868818  60.9610710   6.8332577   6.6355495  32.0251808  78.4634018
   7.1046653  32.0577621  77.6296768   6.6734381  32.9223976  78.7947617
  52.5588875  49.8218269  28.3757153  51.6572800  49.5102310  28.4547482
  52.4734573  50.7371140  28.1089134  72.4955139  51.3252754  49.0427933
  72.7106247  51.6432724  49.9196281  72.9804153  51.9025650  48.4530106
  51.8586578  66.7457123  68.0712738  51.2375755  66.6078110  67.3561020
  51.3790588  67.2784729  68.7056122  54.9387779  52.3869896  28.4228039
  54.7856255  53.3010483  28.1834736  54.7227249  52.3438721  29.3543053
  40.0328751  49.6440506  54.5882912  39.5349197  50.4527016  54.7081223
  40.0352135  49.2338257  55.4531288  49.3016243  36.9005623  57.4766502
  50.0571709  37.1287880  58.0182152  49.0926895  35.9998894  57.7243690
  26.9836540  20.5043297  73.3946686  27.5246754  19.8578701  73.8481216
  26.0896549  20.1746044  73.4856567  66.4110718  37.9760246  36.1683884
  67.1271744  37.5631371  35.6857300  65.6864243  38.0047684  35.5436554
   5.9559431   2.9023464  87.3744659   5.7732916   2.9027514  88.3140793
   5.0997410   2.7809477  86.9640884  86.4453735  37.6034584  48.9754868
  87.1317062  37.4467010  48.3269463  86.4326782  38.5541992  49.0857544
  30.5886154  61.0468063  79.4993896  31.3416882  61.6147804  79.3365402
  29.9693604  61.6005630  79.9748993  65.3200073  56.4545898  67.8913116
  66.0509872  55.8368721  67.8733292  64.6149979  56.0050163  67.4253998
  22.0347939  24.7575359  65.2237549  21.3508949  25.1401348  64.6740875
  22.8483086  25.1399612  64.8948517  24.0702019   0.6328892  40.8233147
  23.5741234   0.9085677  40.0525093  24.9851589   0.6673246  40.5442085
  10.1061211  46.3591080  33.7411079   9.3675394  46.8159256  33.3385582
   9.7014294  45.7060814  34.3120842  11.5708170  61.5961533  81.4168472
  11.2229614  61.1893921  82.2104263  12.4644175  61.2601585  81.3474274
  79.8555374  62.7991943   0.8492926  79.3016891  63.4958458   1.2016671
  80.6878281  63.2301407   0.6548601  12.7906208  66.0121460  42.6835556
  13.5222340  66.2334595  42.1073647  12.9483614  66.5225830  43.4777870
  25.2751923  52.3253517  60.2644310  25.4225693  51.9019089  61.1101303
  24.7179527  51.7131348  59.7839088   9.0882063   2.8949611  23.8856888
   8.4600420   3.4851208  24.3020458   8.9286671   2.0458994  24.2978458
  51.5839310  45.3233871  11.2713814  51.8838196  44.6314583  10.6818619
  51.1603699  44.8571167  11.9920864   3.7336082  17.4581165  87.0327606
   3.2407272  16.8251438  87.5549164   3.9414940  18.1637058  87.6452637
  38.1210289   5.5636139  17.3988991  37.3885727   5.0487456  17.0603027
  38.8488121   4.9435458  17.4445114  82.4378662  54.4746666  60.8801498
  83.2438507  54.1272125  60.4981804  82.0895233  53.7521706  61.4025345
  22.2812862  70.3791122  34.9255028  22.2527237  69.4225845  34.9038773
  22.5139027  70.5914078  35.8294144  57.7803726  61.3369331   9.6889906
  57.0263138  61.8118820  10.0383472  58.4775810  61.4925156  10.3261147
  65.6315384  33.6262703  31.5713940  64.8702011  34.0972023  31.9102516
  65.4054794  32.7016029  31.6719990  31.7439690  41.9506683  60.3423920
  31.5902386  42.1404724  59.4168816  31.2778034  41.1294785  60.4991264
  85.9713135   1.8244659   0.4498929  86.8263397   1.4180206   0.3085788
  85.3416748   1.1257236   0.2722921  76.9063568  55.6027222  54.3263168
  77.2173767  54.7121773  54.1637535  77.3254318  55.8564110  55.1486588
  12.1676855  10.4245825  54.9686546  11.7938929   9.9966736  55.7389832
  12.0124674  11.3578424  55.1141396  52.5795746  61.9483986  75.7032394
  51.7910118  62.0295868  76.2397232  53.2912140  61.8533630  76.3363037
   0.6576136  11.8212538  36.9940453  -0.0262543  11.8767490  36.3266068
   1.4458724  12.1430464  36.5566368  43.9245377  67.6122742  57.0487595
  44.1528816  68.4466705  56.6390266  43.0341415  67.7415924  57.3754158
  73.3541260  20.3426323  87.1888657  74.0997849  20.1910877  87.7696075
  73.0550613  21.2250290  87.4083405  55.4817657  12.2384882  78.5643387
  55.8247299  12.1347675  77.6767273  54.6713715  11.7291069  78.5690231
   2.5862784  22.3588238  65.6149445   1.7651191  22.5180626  65.1495667
   2.8792536  23.2281857  65.8880920  69.4640808  21.2507496   3.6089237
  70.1638184  20.7670193   4.0477858  69.2422485  20.7136993   2.8482664
  61.3752518  18.6718330  77.6154099  60.7525101  19.2789345  78.0152283
  60.9032326  17.8403854  77.5693054  26.0377026  55.5213280   9.5093737
  25.3987217  55.0553551   8.9701147  25.8907242  55.1897469  10.3951960
  54.7110939   4.6959767  14.5904474  54.8675728   3.7832570  14.3481903
  54.5255928   5.1356044  13.7606592  31.0973701  14.0730677  83.2891769
  30.9869556  15.0017519  83.4931030  30.2739010  13.8199043  82.8719940
   3.4549603   9.8646317  80.6319351   2.7909348   9.4190493  80.1058578
   4.2243347   9.9033842  80.0637894  68.4385223  65.8549728  69.5222855
  68.6489792  65.1251755  70.1048050  68.4808502  65.4793854  68.6428680
  28.5740795   2.0253618  39.8790398  29.2887402   2.3762023  40.4104538
  28.2839432   2.7670965  39.3481140  11.1519861  28.3926258  59.9323883
  11.9676914  27.9000607  60.0231438  10.5243368  27.9192772  60.4784927
  40.2218323  12.4392052  79.9294357  39.5134277  11.9320488  80.3259048
  39.7759666  13.0944157  79.3926468  47.4288445  36.0182610  70.5386810
  46.6704407  36.2062073  69.9857559  47.6014328  36.8410912  70.9962845
  37.5213013   6.5208402   9.5367661  36.6305008   6.8711157   9.5330410
  38.0751419   7.2725792   9.3260965  82.1750412  65.5740814  54.6397629
  82.3573151  64.7704010  55.1266975  81.5282288  65.3149948  53.9834480
  61.9058571  65.2921677  43.8818092  61.1339722  65.3226624  44.4470520
  62.1206131  64.3614426  43.8196907  26.5428734  13.2000446  11.0705013
  26.2977753  14.1053991  11.2615337  25.7411079  12.6985397  11.2184801
  30.6678867  49.4492531  14.5695677  30.6121311  49.9495544  13.7554302
  31.3362484  49.9021912  15.0837355  51.8871155  13.8468981  37.7414818
  52.7770462  13.6610126  38.0409813  51.8656044  14.7973175  37.6297989
  72.9779358  51.5596695  70.7868576  72.9255676  52.4847145  70.5464783
  72.2991486  51.1367378  70.2609253  84.8494568  48.4044151  65.2571259
  84.0106354  47.9616013  65.3856964  85.1549225  48.6006622  66.1427994
  62.9377708  49.9342155  75.0185471  62.6065254  50.4827728  74.3074951
  62.6346893  49.0524826  74.8019333   9.8559742  52.4077148  11.8921852
   9.2671661  53.1110954  11.6186991   9.2729921  51.6901779  12.1401815
  76.2131271  12.8106480  78.1807251  75.2677994  12.6604099  78.1772079
  76.3338394  13.5898123  77.6379929  22.2170753  10.4241848  73.1566772
  22.3001194   9.9743156  72.3158722  21.6552029  11.1766157  72.9712601
  19.2979355   5.4653277   9.2661018  20.0428219   5.5779643   8.6756010
  19.6654434   5.5881391  10.1413660  75.1432114  37.8404350  85.3164978
  75.0959091  38.7811546  85.1460876  76.0730057  37.6285324  85.2340164
  25.2463093  51.8478737  19.7351151  24.9553719  52.4343643  20.4334106
  25.8226719  51.2215309  20.1729908  45.7796936   2.2095549  32.9660530
  44.9320183   2.0842242  33.3926277  46.4032707   1.7585663  33.5352554
  49.8903580  22.4845428  19.6955242  49.0331154  22.9029579  19.7748585
  50.4535179  22.9772205  20.2924747  58.9151993  18.0814743  88.3216019
  59.4350777  18.6241360  88.9144592  58.7589340  17.2739010  88.8111343
   0.9529304  43.5491028  76.0683975   1.4241687  44.3729095  75.9438477
   0.0959922  43.8117981  76.4043732  23.1962986  32.0865135  80.0910416
  22.9705391  33.0154381  80.0424118  23.1921635  31.7910404  79.1806030
  32.1938667   8.3798504  72.3603973  32.2128868   8.9254704  71.5741577
  31.2877636   8.0770998  72.4199753  21.1902542  19.6549816  81.6715775
  20.4027634  19.4344978  81.1741028  20.8845310  20.2581100  82.3490677
   4.3718166  61.8415909  47.3182526   3.5427608  61.4578819  47.0324783
   5.0166779  61.1475372  47.1815987  67.6532822   9.2504578  88.1956558
  67.7530518   9.0806446  89.1323776  66.7332916   9.4940090  88.0930481
  67.9030228  58.5760040  84.8757935  67.4309082  59.3176842  85.2542801
  67.4547882  57.8046036  85.2225723  35.5974464  55.0209122  64.9744492
  36.0783501  54.3133698  65.4038010  36.2021828  55.3534698  64.3111725
  46.9220581  64.5661087  82.4068222  46.1192436  64.3764725  81.9212799
  47.5623055  64.7921295  81.7321091  48.3736725  49.2721291  49.1357536
  47.7047234  48.8528938  49.6770325  48.8997002  48.5462723  48.8001060
  65.2048264  55.0331039  47.3826599  64.3950043  54.8787193  46.8962517
  65.7319412  54.2498245  47.2250137  16.0717602  68.1971893  15.4225760
  15.2916803  68.7367020  15.5515661  15.8682480  67.3724899  15.8638058
   4.2869425  70.8801956   9.5934887   4.6693621  71.6606293   9.9946346
   4.0971594  70.3003311  10.3310308  13.1540060  11.4722385  85.2573090
  13.7307072  12.2205791  85.1035767  13.7065268  10.8322811  85.7060928
   3.6226506  56.6460381  78.1796722   2.7267566  56.8160439  78.4707108
   4.1529107  56.7364006  78.9714355  70.8519211  57.7341156  11.8536892
  71.2913361  58.1875229  12.5731115  70.2449799  58.3826637  11.4969826
  79.0690918  69.0206375  45.2850227  78.5018387  69.0900269  46.0529060
  79.8135223  68.4982300  45.5835915  80.0999069  25.7099018  13.1577253
  79.5094986  24.9613686  13.2433996  79.7260818  26.3769455  13.7335176
  44.3399506  42.0292702  59.1826859  44.1789551  41.3642578  59.8520660
  45.2803459  41.9750862  59.0125351  44.4353027  62.3500938  42.1130257
  45.0292320  62.1411285  41.3920479  44.9547386  62.9000397  42.6995201
   5.5459208  28.3446560   1.9109480   4.8592529  28.6527824   2.5023677
   5.2846918  28.6711464   1.0499046  75.0202789  66.2231522  30.8515358
  74.2756729  66.8246307  30.8472862  75.5954590  66.5491486  30.1593494
  80.2670898  16.2808552  36.3696404  80.0901184  17.2184849  36.4455490
  79.8969803  16.0351276  35.5217819  48.0540276  14.2398443  66.5033569
  47.2772827  14.1438484  67.0544357  48.5164871  13.4066954  66.5940475
  13.3326206  40.2573586  12.3224230  13.8961334  40.2905464  11.5493870
  13.5663424  39.4356117  12.7540903  81.6469421  67.8101730  46.1446075
  81.5940018  66.8844070  45.9071693  81.9963608  67.8092804  47.0357552
  28.7420578  28.4488735  66.3442841  29.3661327  27.7402916  66.5013657
  27.8984375  28.0905991  66.6202774  54.9229393  37.4660835  80.1124496
  55.1193237  36.5374565  79.9886856  53.9677391  37.5045052  80.1608887
  19.9770966  48.7331314  83.2711334  20.1895313  49.6227036  83.5535507
  19.5762043  48.3271446  84.0396957  84.9994812  67.5787506   1.2047936
  85.4614563  66.7544250   1.3574095  84.2744064  67.5661926   1.8295670
  85.5107498  12.9922066  25.9381771  85.9795074  12.7437363  25.1414547
  84.6857071  13.3628855  25.6249142  62.1320076  49.1513290  20.3306580
  62.0131950  48.6002197  21.1042175  61.4367943  49.8062286  20.3940792
  20.6690216   4.3725405  48.6775169  20.4186707   3.5960925  49.1782036
  20.4803028   4.1420679  47.7678490   2.5006096  23.0767651  57.7645111
   2.0939932  23.4556274  58.5438423   2.9480777  23.8123188  57.3462219
  43.0301285   7.8678794   4.5727654  43.1998634   6.9604464   4.3198075
  42.7533722   8.2947807   3.7619662   4.4587164  13.9349318  26.3037853
   3.8471336  14.6135006  26.0178776   4.7131171  13.4865446  25.4972744
  67.1719284  57.2142525  50.9490929  67.6853790  56.5894814  50.4369736
  67.5349960  57.1552238  51.8327942   2.8732121  40.5938416  40.6336136
   3.3233333  39.7612190  40.4909172   2.8135464  40.9862175  39.7625732
  62.5328751   1.6489383  87.4379807  63.0468674   2.4548588  87.3876190
  61.6803780   1.8853265  87.0724640  20.4473248   5.3917055  32.1506691
  20.6603642   5.1878905  33.0613327  19.8725338   4.6781721  31.8736897
  12.3681755  52.1989098   3.2229609  12.3962011  51.2519150   3.0864217
  12.7260904  52.5680084   2.4155598  54.4523811  35.7656517  53.6606979
  54.0718994  35.7074432  54.5370979  54.5789375  36.7034035  53.5163345
  86.1776886  65.9199600  22.0540237  85.6024475  65.2034225  21.7858658
  86.9637146  65.4851532  22.3846817  51.0912514  51.9965935  27.4005318
  50.3387718  52.2632446  27.9286499  50.7224159  51.4182701  26.7328987
  22.3935146  59.0261040  20.9540310  22.0658455  59.1836815  20.0685730
  21.6176338  59.0883141  21.5111389  69.0696564  24.7440872  16.2423592
  68.4818649  24.9553757  16.9676781  69.4772644  25.5793209  16.0132923
  41.5593414  66.2330093  26.5684185  40.8286171  66.7780304  26.8603649
  41.6915970  65.6079025  27.2811432   8.9093208  64.1842499  35.9481850
   8.7547998  64.1434784  35.0044212   9.8441772  64.0033264  36.0458603
  47.8813477  70.9439087  83.2282944  47.6096344  70.0466995  83.4217453
  48.7125740  70.8474884  82.7635345  58.6929893  39.2464409  50.9065018
  59.1338654  38.8903275  51.6778946  57.8327942  38.8265648  50.9070892
   7.2894340  24.1609383  12.1862288   8.0570879  24.6740513  12.4385262
   7.1009221  24.4371586  11.2893457   5.3680902  24.0862198  16.5068378
   5.4528661  23.2112617  16.1280308   5.7690134  24.6670456  15.8602066
   4.4431930  63.5006447  37.4452858   3.6757364  63.8757248  37.0133629
   4.6207452  62.6945572  36.9605904  61.1501427  62.7358551  72.0811386
  61.0656204  62.7302055  71.1276932  61.5117264  61.8756752  72.2946320
  72.1912766  14.5581961   4.8843465  72.2796097  13.6085043   4.8036318
  73.0851974  14.8709288   5.0234184  22.7476768  45.4923630  61.3933487
  23.4659634  45.0270691  61.8220673  23.1368847  46.3165474  61.1010017
  70.4080276  16.1398163  12.1258841  70.7602310  16.9485912  12.4974594
  69.8609161  16.4299335  11.3960037  71.1761856  30.5054264  84.4699554
  71.8408432  30.2237015  85.0985184  70.3824234  30.0417423  84.7367325
  80.6271362  51.5065079  12.5380640  81.3056717  52.1810188  12.5088968
  81.0990067  50.7010918  12.7498999  39.6832886  64.7669220  66.1484756
  40.4146729  65.3733978  66.0322876  40.0349159  64.0712891  66.7040634
  68.7563248  29.3415470  71.7775574  68.9718475  28.8039799  72.5396576
  67.8010254  29.4009056  71.7887573  83.9012299  32.3961983  74.9025497
  83.7231445  32.5736732  73.9789505  83.5334702  31.5256081  75.0543900
  41.7776642  52.3600121  11.8129606  42.6065903  51.8931046  11.9183578
  41.8307800  53.0857162  12.4348660  70.6949158  68.7430801  35.6400070
  70.1438828  68.5777588  36.4050369  71.4140778  69.2791519  35.9741707
   2.1744587  50.0680275  69.6974335   1.8768411  49.2736244  69.2540588
   2.9139280  49.7806702  70.2330093  45.8373909  48.1366310  10.9287491
  46.0437012  49.0394783  11.1706839  46.6829224  47.6879883  10.9343510
  86.4437561  54.8624725  47.8744316  86.9826355  55.6428223  47.7444687
  87.0746918  54.1557388  48.0110970  14.6924915  52.4693069  67.8292465
  14.9883928  52.9385910  67.0492172  14.6260853  53.1446838  68.5042953
   9.4886637  45.3657150   6.9648061  10.2938375  45.0475502   6.5565195
   9.7710447  45.7175560   7.8090219  78.2645569  66.6610260  18.0065517
  78.1823883  66.0352325  17.2869282  78.4640274  66.1214371  18.7715931
  28.1180038   0.4947060  63.4809494  28.1623287  -0.1906957  62.8142471
  28.2402592   0.0311909  64.3094635  17.5658684  50.3370285  45.7216759
  17.8273983  50.8864174  46.4605980  18.2377472  50.4926529  45.0579033
  23.8020496   0.0300655  37.0340996  23.2295933   0.5193037  37.6250076
  24.5890656   0.5700349  36.9614983  70.5474701  21.8303642  84.5156555
  70.2240677  20.9972973  84.1726685  69.9809189  22.4901543  84.1157532
  37.1534958  69.1358414  53.1891174  36.8048134  68.2468033  53.1237221
  36.9026833  69.4276123  54.0655861  72.4585190  63.6549988  55.6739540
  72.2964401  62.9260216  55.0751610  73.3473511  63.5067139  55.9967690
  75.2153244  28.1465893  63.9153900  76.0541382  27.7198200  63.7407799
  74.9166260  27.7599316  64.7385025  36.0854340  17.1054516   7.9463525
  35.4124184  17.6143456   7.4943480  36.9060898  17.5481243   7.7300272
  65.3410721   6.0028853  27.4669704  64.4266968   5.8482776  27.2298088
  65.7437592   5.1347389  27.4470501  26.7727013  27.0552292  62.7605247
  26.5144081  27.0999184  61.8399162  27.4578667  27.7176991  62.8494797
  60.9450607  33.4678078  33.9635391  60.9333687  32.9668808  33.1479607
  60.6156616  32.8581047  34.6238365  54.1417122  53.2061386  11.8672638
  54.2376251  53.8705788  12.5495777  53.2788963  53.3745422  11.4885550
  65.7299042  42.2863235  47.7339859  65.1776581  42.6903839  47.0646629
  65.9921799  43.0131760  48.2989006  78.8506622  64.7137375  68.5098495
  78.5206375  64.2165680  69.2582779  78.0633621  65.0227890  68.0616608
  73.8722076  50.9325638  43.2813263  74.7018127  51.3316269  43.5434875
  74.0900192  50.4141121  42.5067329  44.0632172  34.4439354  72.1077576
  44.2463646  34.7083321  73.0093002  44.9176636  34.4555931  71.6764603
  20.4973297  71.6176147  27.6760178  20.2158031  70.9333725  28.2832890
  19.9166222  72.3557281  27.8609543  16.3344116   0.4051046  59.5935059
  16.2754936   0.8504449  60.4387474  16.8538857   0.9952692  59.0475349
  73.8772354  18.0452614  57.6952209  74.1991272  17.4112988  57.0543594
  74.3364182  17.8216743  58.5047836   7.2630496  47.5639305  13.0720921
   6.3566217  47.8077011  13.2596979   7.2249656  47.1426849  12.2134094
  64.8587418  22.9624577  79.8160477  65.3443527  23.7807617  79.7121658
  65.0478287  22.6838360  80.7120667  46.0297432   7.9018712   6.5908923
  45.7171669   7.0379434   6.3222709  46.6586304   7.7223840   7.2898321
  45.6376953  10.0238829  29.4178371  45.6925278  10.7767038  30.0064678
  45.0872803   9.3947802  29.8842087  66.5431976  12.7288303  50.6146469
  67.1034622  13.4708004  50.3870087  65.6517334  13.0669384  50.5297470
  77.9971771   9.2080250   6.1262283  77.2752304   9.5443945   5.5953107
  78.1730499   8.3380919   5.7677374  68.0994949   6.4206524  14.0111246
  68.0617676   7.1620417  14.6154013  68.8426056   6.6148319  13.4398823
  16.8886089  53.3986969  53.7063599  16.0027008  53.6184082  53.4180412
  16.7621212  52.9208794  54.5260658  19.3080158  52.3073921  19.1634712
  19.1580925  53.2421494  19.0220947  20.2538891  52.1988792  19.0645638
  63.5660324  69.3949432  81.3224335  63.2962646  69.6966553  82.1898575
  64.4647293  69.0887222  81.4441376  11.9240551  64.5353775  20.1418552
  12.6400223  65.1699524  20.1726036  11.4241991  64.7758713  19.3617649
   8.1570339  26.1860046  55.6721230   8.1867523  25.6532021  54.8774719
   8.6683607  26.9660053  55.4567719  85.6099625  64.8025284  13.3071480
  85.6430969  64.1096573  13.9667406  84.7369537  65.1831284  13.4032354
  27.9238396  29.6412029  19.3650036  27.4059963  30.4435654  19.4304466
  27.3645153  29.0339947  18.8805599  69.6660156   7.1582246  55.4964066
  69.3234100   6.5599880  54.8323517  68.9589615   7.2352996  56.1370010
  11.7485371  56.2061501   6.4440885  11.5039577  56.4416008   7.3390613
  11.0061264  55.6968460   6.1190238  77.6017151  31.0713177   1.2958688
  76.9205856  30.4934082   0.9518846  77.1234055  31.8211975   1.6496137
   5.3237648  53.3227959  36.0658531   4.6982517  53.1687927  35.3578644
   5.2983713  52.5201111  36.5867081   3.3700180   4.9270191  18.4325771
   3.5758905   3.9989581  18.3205452   4.1845059   5.3163099  18.7508450
  84.4925079  69.2657623  13.6815739  84.5290909  69.1076736  12.7382288
  84.0652390  70.1182251  13.7651720  70.8631058  33.1609879  11.8273878
  70.9017715  32.2829819  12.2066584  70.6070862  33.7258034  12.5565462
  56.5583839  45.1371994  84.0601273  57.4061737  45.2929192  83.6439133
  56.0908623  44.5704193  83.4466019  59.5281487  71.6398544  35.0417366
  59.2914886  70.7276764  35.2095146  58.8150711  72.1474533  35.4291611
  40.9232750  66.3825836  31.9842796  41.7051620  66.4622650  31.4378948
  41.2609634  66.3167496  32.8775101  68.5530243  26.7306252   9.2721386
  69.2422714  26.6707268   8.6106415  67.8454208  26.1837139   8.9309464
  60.9027710  68.1456985  46.4241104  60.8838348  67.8885956  45.5022812
  60.7088127  69.0830002  46.4153824  22.0450668  65.0869827  41.3641701
  21.3468571  65.3266525  41.9735069  22.2645149  65.9047546  40.9177208
  40.3090210  59.5589561  62.2741814  40.7704391  59.4937057  61.4380798
  39.7685890  60.3443756  62.1888428  84.1797714  64.8496170  52.8287086
  83.8908005  63.9396057  52.7608147  83.4302063  65.3115540  53.2042046
  17.1820774  23.5814972  80.3692169  17.0207787  23.7579556  79.4423523
  16.4409790  23.9838276  80.8221359  15.6548481   2.8591375  15.5711346
  14.8792133   2.2994642  15.5338631  15.3884993   3.6671102  15.1324196
  27.0227528   4.7649932  68.7592392  26.8277969   4.8846722  67.8297729
  27.5287704   3.9532781  68.7952423  43.2251015  36.4280891   4.5588865
  42.8572426  37.0185394   3.9014037  43.5429497  35.6780815   4.0562053
  71.3501968  18.3984966  79.6263885  71.0275116  18.9129200  80.3663025
  72.2099686  18.7716675  79.4320450  26.0846996  -0.3207747  49.0144196
  26.1830311   0.4528922  48.4594383  25.3814087  -0.0918470  49.6220436
  33.6730232  50.5475807  10.9538298  33.9296112  50.7900429  10.0641079
  33.2321434  49.7037926  10.8544140  14.6916275  63.5441704  26.3480434
  15.1520052  62.7049751  26.3537407  15.3674126  64.1866226  26.1317081
  33.7179451  44.2217827  69.7540665  33.9855003  43.3324356  69.5223236
  33.3042641  44.1314240  70.6125183  48.9147263  47.4181480  62.5604324
  48.2387047  47.2836723  63.2246208  49.2372055  46.5382767  62.3653412
  13.4833536   0.4222001   1.9657799  13.6153355   0.2632451   2.9004166
  13.5447855   1.3729596   1.8735080  67.6541595  13.1075602  23.3191757
  68.3015366  12.4069586  23.2398663  67.4577408  13.3555660  22.4157677
  10.1361008  61.1964264  10.7876911  10.8333206  60.9738770  10.1707726
  10.1143417  60.4610214  11.4000120  52.8589020  16.7325573  46.9302101
  53.2720604  17.4565487  46.4597130  51.9883881  17.0598679  47.1567154
  51.0721970  30.7317333  37.0209961  50.2316132  30.4772377  37.4016304
  51.1094742  30.2627125  36.1874123  84.3008118  53.6693497  46.5098305
  84.7622833  54.3087196  47.0524979  84.8752823  52.9037552  46.5008698
  60.1722641  46.5573006   7.5574913  61.1111298  46.6212044   7.3823400
  59.8975029  45.7609138   7.1030550  43.1694260  44.4298134  40.5416641
  42.6815224  44.5953827  39.7349586  43.5396690  43.5552101  40.4224243
  47.5173607  31.4885635  21.7569714  48.4317207  31.7023277  21.9426765
  47.1172333  32.3272095  21.5271854  41.2179909  22.1315136  84.8418503
  40.6351547  22.5447121  84.2048187  40.9046974  22.4435692  85.6907883
  45.1104584  54.9366417  68.6298141  45.5715485  55.5939636  69.1509247
  44.2497482  54.8645554  69.0423813   0.9294913  18.1267986  32.4978485
   1.6391729  18.2783031  33.1220512   1.1761907  18.6367836  31.7262993
  50.9944801  70.8889236  71.6695251  51.1622467  71.8273087  71.5828400
  50.6862411  70.7828598  72.5695114  28.3988705  43.6901703   9.8388720
  27.4718342  43.4804153   9.9521732  28.4092770  44.3772163   9.1724720
  55.5304947  38.1313477  63.5485954  56.3334999  37.9284744  63.0687485
  54.9309425  38.4658699  62.8816109   6.1491795   2.3877306  78.7117538
   5.5909266   2.5179350  77.9451828   5.8022256   1.5995399  79.1296158
  11.7496967  34.2682343   8.4167738  11.8590899  35.2135277   8.5201721
  12.2707825  34.0499229   7.6440897  35.7143250   4.3027544  81.2348709
  34.8201637   4.0609550  80.9935303  35.8637047   5.1389313  80.7935944
  56.6759644  46.3537178  61.9029808  57.3048630  46.0746460  61.2375183
  55.9095154  46.6369133  61.4043922  54.5955772  69.9717865  17.6038723
  53.7933617  69.5715866  17.9393082  54.4228592  70.9129105  17.6301823
  63.4038887  47.0064888  33.3766212  63.7741165  47.0186577  32.4940033
  64.0468750  46.5275078  33.8994789  70.1878586  47.3095016  26.3348122
  69.7657089  48.1294365  26.5911846  70.5075912  47.4720001  25.4473457
  80.9113846  30.5874958  57.6887321  81.2771606  31.2679691  57.1235847
  80.3218613  31.0573559  58.2785797  22.2442455  24.6329060  86.8575211
  22.6218090  24.7269745  87.7320709  22.8724594  25.0636406  86.2778320
  72.8351898  11.0008612  51.0238075  72.7070923  10.4224472  51.7756462
  72.6406555  10.4524288  50.2638016  83.0071716   5.3027649  87.0224380
  83.6307678   5.1018553  87.7202911  82.6662750   6.1683645  87.2477417
  17.7535992  50.5938148  17.5898705  16.9065018  51.0117798  17.7446632
  18.3712730  51.1026649  18.1150208  52.8735886  25.2355766  13.2075357
  52.6100388  25.6628780  14.0225124  53.6038742  25.7639065  12.8853836
  82.7577667  61.7954369  28.5241928  82.2355270  61.1961746  29.0574703
  82.1139297  62.2761879  28.0040150  60.3595467   5.1980233  46.1500587
  60.3744621   5.1742954  45.1932678  59.4327202   5.2845349  46.3730812
   8.2797699  47.6939545  23.4672146   7.7433352  47.2262802  24.1073341
   9.0774326  47.1698418  23.3946037  36.9092865  69.1352692  32.3196793
  36.2334671  69.8024063  32.1996117  36.4760323  68.3121109  32.0939865
  69.7881317  34.9319153  13.9511824  68.9479904  35.2222443  13.5960617
  70.1580963  35.7139244  14.3608341  60.8976212  14.5714035  72.1183853
  61.0571709  14.9751959  71.2653198  60.7161484  15.3081427  72.7019272
  44.4888458   0.5129016  68.8993301  43.9486237   1.1488822  69.3682938
  43.9923325  -0.3040953  68.9464722  61.1723022   6.6461530  13.6881199
  61.0992012   6.1237664  14.4868689  62.1144867   6.7240357  13.5382586
  17.3542347  56.4183617  25.9336090  17.1956558  57.1269112  26.5573425
  16.6147099  55.8227959  26.0545788  10.7784100  10.0355387  85.6207733
  11.7278728  10.1456337  85.6720734  10.4435129  10.9172888  85.4577026
  23.3317757  52.2597008  73.9939194  22.8364449  51.4414444  74.0304489
  24.1927319  52.0039291  73.6629105  25.4122524  35.8206558  18.5099621
  24.9362869  35.3855896  17.8025646  24.7373676  36.2924881  18.9979553
  35.0005150   9.8078136  88.1372986  34.4431915   9.9216480  87.3674545
  34.8828087  10.6141205  88.6395416  70.6069565  44.0170212  20.1041870
  69.7436905  44.2458878  20.4486065  71.1147232  44.8254280  20.1740551
  51.0003548   3.3280222  36.0192757  50.8279190   2.3913102  36.1144981
  50.7412224   3.7059107  36.8596802  61.5404282  50.1844711  58.8397484
  60.9494209  49.5268021  59.2063751  61.6068687  50.8532944  59.5212860
  36.1816330  52.8435059  45.7950706  37.0896263  53.1220131  45.9142838
  35.7512817  53.5966263  45.3903008  79.3430099  34.8045921  82.8552475
  79.0662689  35.0498161  81.9723434  80.2336578  35.1470337  82.9308548
  37.9478149  14.0327177  86.2909546  38.2534637  14.6787510  86.9277039
  38.0535774  14.4637232  85.4428482  55.8550034  32.3672562  12.0294704
  55.2380409  32.8132477  11.4492311  56.6011086  32.9638443  12.0898180
  29.8560944  38.0240173  16.2356663  29.0888233  37.5909691  15.8615065
  29.5030785  38.5759697  16.9334927   4.3188972  56.3374519  15.9626369
   4.6688547  57.1419411  16.3454647   4.9303327  55.6548920  16.2392044
  27.4212570   0.5183643  28.8748779  28.3695278   0.4150721  28.7952080
  27.1356468   0.7889123  28.0022602  74.0666809  65.6739273  68.7412949
  74.3762512  64.8602371  69.1391678  73.1779709  65.7830353  69.0796890
  10.2242012  49.4701576   2.8486085  11.0536356  49.2632980   2.4179356
   9.5551214  49.2309875   2.2072337  46.6383247  52.5397987  43.8095665
  46.8291931  51.9624367  43.0703392  47.0203552  52.0946922  44.5659828
  28.3499508  55.8798332  76.7425766  29.0604153  55.3811455  76.3391113
  28.4970512  55.7875519  77.6838913  18.5843658   3.9059665  67.6469421
  17.7178040   4.3125339  67.6448517  19.1849785   4.6232657  67.8493729
  59.3615189  27.8739834   3.4357312  59.9877014  27.2710819   3.8365273
  59.6054420  27.8923912   2.5103154  20.8343868  15.5912189  23.9636078
  20.8302269  14.6487312  24.1307316  20.1866093  15.9453650  24.5728664
  77.0506668  31.8610325  86.6982574  76.6069107  31.1178493  86.2896194
  77.3710938  32.3827591  85.9624863  75.1352615   1.7741350  28.5879822
  74.2604675   1.4484426  28.3760948  75.0770493   2.0367630  29.5066071
  30.8777447  42.5613594   1.8385364  31.3286190  42.6161842   0.9959581
  31.3564739  41.8888283   2.3230453  71.0837631   4.6507626  31.1578541
  70.2461166   4.8430061  30.7363968  71.7044601   5.2482390  30.7407322
  81.8395691  44.9933052  19.7931824  82.5984802  44.8232040  19.2351933
  81.5371933  44.1244812  20.0576477  66.1722031  44.1917877  85.0842056
  65.6712799  44.3232079  84.2791977  66.7896042  44.9229851  85.1041870
  85.3668137  29.0584526  32.2051926  85.5241089  28.2745304  31.6789303
  85.8671188  28.9123230  33.0080452  75.0901642  35.6898956  21.9632263
  75.6214905  36.3634872  21.5387249  74.5641785  36.1683044  22.6040802
  72.9772263  33.9015999  23.6586590  73.2161179  34.7010345  24.1277714
  72.0526810  33.7684288  23.8677216  27.9056911  45.0348587  16.8952599
  27.2821903  45.5515976  17.4056129  28.7612057  45.2663612  17.2568302
  75.5345078  53.5542679  32.3596687  75.4309998  54.2990570  31.7673779
  76.1971207  53.0051994  31.9405098  78.4585037  15.7209740  58.6921616
  79.3996353  15.5732384  58.5989647  78.3557281  16.6691799  58.6110992
  34.3021049  67.4703827  82.9241486  34.6427612  66.6417160  82.5872498
  35.0533295  68.0633011  82.9058533   6.0083294  62.3288651  51.3813400
   6.2043033  62.5475616  50.4702950   5.0712075  62.5011330  51.4727554
  28.2172127  49.0118904  66.4866180  28.9698238  49.6000328  66.4241867
  28.5499649  48.1647987  66.1900558  51.2138252  60.0102272  55.2888069
  51.4051666  59.4564781  56.0457649  50.3605042  60.3971443  55.4846878
  58.0512810  21.6376667  32.1686478  58.6070175  20.9642982  31.7762623
  57.2338600  21.5925426  31.6726437  63.3211899  11.5193815  37.2027550
  62.3969002  11.6997004  37.0312767  63.3343582  11.1584597  38.0892029
  24.6392536   7.8800144  47.8518791  25.1213150   8.3143406  48.5555916
  25.3172874   7.5823689  47.2453232  70.8251953  20.9601803  13.3049288
  70.3545532  20.5952034  12.5555859  70.1423569  21.3540039  13.8479404
  67.2525864   3.0220594  34.4740219  66.7348938   3.8136969  34.6207809
  67.2756271   2.5892980  35.3274956  16.5285168   5.8003273  59.1446533
  16.3635483   6.7223649  59.3417931  16.7557087   5.4117150  59.9893990
  41.2815514  43.1830826  77.3724594  41.7131119  43.8115501  76.7936554
  41.5191345  43.4678497  78.2548981  31.7664394  69.6564789  18.3238869
  32.5224648  69.0832062  18.1972923  32.1438446  70.4963837  18.5853252
  66.7088928  40.8184891  61.2052536  67.4182663  40.2400055  60.9252892
  66.0709686  40.7773438  60.4927979  48.1393585  21.2733383  14.5041695
  47.9333496  22.1398354  14.8548479  48.9265938  21.0043259  14.9775877
  14.5424881  20.1078281   4.9687624  13.9714804  19.6178627   4.3770561
  14.6526117  20.9590607   4.5450807  14.9376669  56.6070633  23.7044716
  15.2765188  56.0198135  23.0287876  14.9756193  56.0920486  24.5104179
  32.4525871   1.7779900  27.4797668  31.8023911   2.4130654  27.1795044
  33.2952766   2.1801214  27.2690601  56.8182716  53.4339027  62.2451401
  57.4209175  53.9738503  61.7337608  57.2954636  52.6175690  62.3938789
  34.1679115   4.8171706  56.2058601  35.0633202   5.1554866  56.2098770
  33.8421860   5.0120358  55.3271332  28.7190475  56.6823540   8.9331217
  27.8559380  56.2750931   9.0066853  28.6826153  57.1743355   8.1128426
   7.7889643  58.1065903  79.4053116   7.3422046  57.9683113  80.2404861
   7.4116101  57.4497261  78.8201904  33.0428085  53.5903473  51.4308128
  33.5406303  53.4227753  52.2310181  33.4610214  54.3602562  51.0453606
  36.6319351  39.5742950  65.0189743  36.7472725  40.3882713  65.5092468
  36.5620384  39.8525696  64.1057892  85.9473190  37.2231178  61.9131470
  86.5650253  37.6198044  62.5274010  86.0483932  36.2807083  62.0468788
  72.4690552  57.4203568  70.4187393  72.9130936  57.3711700  71.2652893
  71.5683594  57.1552086  70.6049576   9.0921450  10.0635004  23.7482281
   9.9995937   9.7629271  23.6989956   8.9343891  10.1968784  24.6828709
  60.9328194   6.6439018  86.4536972  60.7002373   7.4770699  86.0438614
  61.4550018   6.8900800  87.2172165  59.7572403  50.0988274   0.4678700
  60.3185425  50.4469872   1.1606604  58.8661041  50.2554893   0.7802189
  85.9946671  11.1622725  21.7832012  86.5471344  11.6030521  21.1376572
  86.3232498  11.4683418  22.6285343  40.2908897  69.3414917  85.5936661
  40.5243340  69.8722458  86.3552628  40.2876434  69.9596558  84.8628464
  21.5596943  71.5957794  87.2482300  20.7571373  71.0930862  87.3876266
  21.7704010  71.4593048  86.3245316  31.2019367  54.3907928  65.6154327
  31.6405983  53.9409180  66.3375244  31.6695099  55.2218056  65.5316238
   7.2115722  48.5950966  50.2170410   7.3739204  49.0383911  51.0497246
   6.8316154  47.7521248  50.4645615  58.2637405  46.3874779  66.7762527
  58.0663567  45.5429535  66.3712234  57.5438004  46.5328178  67.3900909
  46.5906219  44.4718552  20.5759621  47.2759132  45.0169907  20.9625378
  45.7721710  44.8698387  20.8725719  56.5209885  39.4150963  77.7848892
  57.1702728  39.0458145  78.3834686  55.6983376  38.9942207  78.0345688
  76.3947525   1.7328919  17.4452457  76.8600006   1.8521574  16.6172676
  76.2066040   2.6224153  17.7445450  55.1813889  33.4269257   3.1280985
  54.6252022  34.1604919   3.3903301  56.0107117  33.8331947   2.8763020
  52.8197861  70.1273575  15.1199121  52.6920166  71.0309296  15.4088144
  53.3185310  70.2042160  14.3065367  11.6661015  11.7014332  47.8598938
  12.2174921  11.4616871  47.1150970  12.2801981  11.8179388  48.5848351
  46.2863503  38.9679909  78.7071381  46.0667267  38.0526390  78.8807220
  47.0730858  38.9265900  78.1634827  82.2305069  11.9709778   6.5618277
  82.1184845  12.9208593   6.5243106  81.5369034  11.6256227   5.9998040
  50.2306671  29.5292187   9.0861807  49.6987762  28.8984089   9.5713682
  50.9370804  29.0058575   8.7076263  23.7829456   3.5363958  48.9330864
  24.6239014   3.0835645  48.8700905  23.6290722   3.8793859  48.0527954
  81.1719818   0.4891806  80.0459518  81.3940201  -0.3678488  80.4098587
  80.8879013   1.0038483  80.8013611  58.7182808  20.6458626  18.1588287
  58.0202789  20.9315662  17.5694237  58.5090637  19.7321377  18.3526516
  68.5530243   5.5434585  53.0642166  68.3858871   5.7215738  52.1387062
  67.7541733   5.1167841  53.3740807  68.1265640  32.5009384  65.8298416
  67.4323120  32.8979263  66.3558044  68.6428757  31.9950371  66.4573059
  48.0306778   8.4129372  20.3618965  48.1267242   8.1782856  19.4388866
  48.2447281   9.3452902  20.3955269  52.6007080   9.2544708  82.3331451
  52.8462639   9.9002371  82.9956512  52.0950737   9.7514744  81.6900635
  10.5943899  33.4901085  59.2421150  11.1691704  34.2225304  59.4644089
  10.0656309  33.8134384  58.5126610  70.5802689  71.6676102  25.4557972
  70.1134796  70.8630981  25.2297440  70.0495834  72.0667801  26.1451969
  13.6488390  61.4074020  65.6623611  14.1102934  62.0157051  65.0850754
  13.0894699  61.9665375  66.2015381  70.6701050  35.2524757  32.0950851
  69.7282791  35.1471825  32.2296791  70.8051910  35.0408058  31.1714058
  77.7389450  18.4380341  68.1498871  78.0344162  19.3153534  67.9064941
  78.1698837  17.8575382  67.5225525  59.2696228  43.8419189  20.4638138
  59.2682114  43.7431145  19.5117283  59.0863266  42.9631538  20.7960815
  66.4596558  51.6492996  88.3677597  67.1970825  51.1403275  88.0310440
  65.7792130  50.9988937  88.5415726  52.1871758  36.2250710  34.9114265
  51.3457069  36.1998024  35.3669701  52.8233604  36.4354401  35.5949821
  60.2353516  20.0987339  80.5577316  60.2468872  21.0039730  80.2468567
  59.4629936  19.7132626  80.1440735  53.4244347  50.9383659   1.8690525
  53.2355347  51.2848701   0.9969953  53.6348038  51.7110481   2.3933990
   4.7356100  56.0628052  54.2364006   5.3287930  56.4601631  54.8739548
   4.1471882  56.7734108  53.9813881   4.7106047   2.6914895  17.4575119
   5.3417425   2.2267411  18.0069714   4.1470838   2.0027254  17.1049767
  26.8580990  63.2485275  22.2555141  27.4580708  62.5309029  22.0523338
  26.6472931  63.6326981  21.4045124  75.1181946  17.9881077  60.3122215
  75.2802811  17.1489162  60.7431679  75.9739304  18.4165459  60.2926674
  77.7412567  32.2369995  28.2703400  77.5383530  32.6205368  29.1235447
  77.0437927  32.5507584  27.6947231  36.4314842   3.0668821  54.6324196
  35.9176292   3.2754095  53.8522263  36.9864349   2.3342690  54.3649521
  48.9347916  68.5137787  67.5390625  48.0677414  68.1273804  67.4159775
  49.4531784  68.1766281  66.8084259  79.2457428  19.4077549  30.2696285
  79.2227402  18.5469265  30.6875725  78.3450394  19.5590572  29.9831524
  32.1890564  55.8870087  71.5238419  32.5272293  55.1397285  71.0304413
  31.2433224  55.7432938  71.5579605   2.7954652  70.3140640  14.3719902
   3.6605840  69.9110565  14.2986259   2.2758620  69.6780396  14.8636351
  51.8664474  27.1964893  72.8835831  51.6953278  26.9747963  71.9682693
  52.6999283  26.7695103  73.0816498  31.4841232  24.8211937  78.6517181
  32.4349594  24.7696095  78.5543518  31.3262959  25.6986217  79.0002060
  47.3248329  67.5392838  76.8995209  47.0486221  66.7669907  77.3929825
  46.5213356  68.0446396  76.7760849  52.4331818  33.1179276  42.2282829
  51.6289368  33.6051407  42.4073105  52.2982597  32.7447319  41.3572197
  35.8729362  17.5814724  85.6158295  36.8237686  17.5948238  85.7252655
  35.5870628  16.8063545  86.0992584  82.2330704  69.9949493   6.9703908
  82.7188797  70.5029831   7.6201000  81.3293839  70.0044250   7.2858305
  71.4039993   7.5880227   3.3370953  70.9947968   7.5545835   4.2017756
  72.2508392   7.1579933   3.4560826  51.9827690  12.3262119  70.3489990
  52.4273376  11.7017651  69.7757111  52.5185204  13.1180353  70.3018723
  60.3801193  65.8306351  48.9506035  59.8743896  65.6576157  49.7446632
  60.7962952  66.6774826  49.1114578   4.0907192   6.6752515  25.1399193
   4.6578760   7.4320793  24.9923496   3.2748623   6.8961239  24.6906700
  51.2214088  29.2126846  34.8106346  51.3299103  28.3448677  34.4215965
  50.7784309  29.7247887  34.1340599  17.4939976  50.5598068  42.2369003
  18.2445202  50.2641487  41.7215996  16.7637997  50.5603142  41.6179924
  65.8853683   2.0713975  76.3278046  66.1691742   1.1578881  76.3622665
  65.7942429   2.2588120  75.3935699  30.0191612  54.6755829  45.2599144
  29.7041855  55.2645912  44.5742836  30.9498005  54.5604477  45.0678520
  16.4631348  66.3749771  21.9516068  16.4392223  66.5992966  21.0213699
  15.7668266  66.9023285  22.3431282  52.8864784  61.7135010  42.3177567
  52.5975380  61.7558212  41.4061890  53.5123863  62.4325218  42.4042435
  42.8887177  63.1715508  57.5313492  42.2782745  62.4838104  57.2656288
  42.4423561  63.9879341  57.3065987  72.8674774  45.9590759  41.6410103
  73.6597061  46.2200089  41.1714134  72.2993851  46.7282753  41.5982285
  80.2954178   2.0438423  40.6768227  79.6455002   1.4963690  40.2362404
  80.6172943   2.6309769  39.9927902  85.7477722  68.8940201  21.9523335
  85.5487366  67.9764252  22.1384506  86.6609650  68.9998703  22.2189922
  17.6032982  48.4506454  56.2080231  17.9893761  48.9403648  56.9342117
  17.8427486  48.9507408  55.4277649  25.8842983  23.0596848  72.7127686
  26.6299858  22.4595528  72.7175827  25.1178837  22.4899216  72.7776642
  55.7650871  49.5834465  14.0628624  54.9790916  49.4972115  14.6023111
  55.5114059  50.1872139  13.3647623  53.8319359  55.2671242  31.0548401
  54.7067299  55.0013542  30.7714138  53.8506775  55.1755333  32.0074654
  21.3638802  47.1949883  19.4702835  21.5875950  47.6681252  18.6688309
  20.9683094  47.8573151  20.0369244  31.0166225  58.0828896  67.8182526
  30.2732487  57.7249603  68.3035507  31.7861443  57.7700882  68.2938766
  14.3169451  45.1322403  60.2109680  14.7866592  45.3458557  61.0171738
  14.6013632  45.7977715  59.5845490  44.8573837  53.5870972  48.3813705
  44.0298538  53.2273521  48.7007637  45.3588638  52.8216133  48.1006851
  80.3168030  57.5061188  44.1290855  80.6645889  57.1761398  43.3005981
  80.5384521  56.8291512  44.7684784  57.3659286  13.1143169  74.2840118
  57.2872391  12.6176252  75.0984650  57.8924065  13.8783112  74.5193024
  28.0181351  64.9482117   2.4890697  28.3952522  64.0702820   2.5461740
  27.9762344  65.2503662   3.3963618  35.6818161  17.9495945  66.1273727
  36.2040520  17.8585033  66.9243698  34.7752228  17.8746548  66.4252014
  43.0618935  52.7283897  36.7611694  42.9360275  52.1851463  35.9831734
  43.9779587  52.5919495  37.0029144  53.9220390  64.6033936  42.4686050
  52.9819832  64.5353851  42.6356392  53.9870071  65.1456680  41.6825104
  71.9040985  43.8335304   2.1162179  72.4852219  43.6691742   1.3735796
  72.0918579  44.7366104   2.3719923  69.6898804  38.0173035  89.3572159
  69.1673203  37.7497711  88.6011810  70.5429764  37.6067581  89.2160950
  53.5902328  52.9571457  17.4950752  53.9540749  53.2430038  18.3330097
  52.8255692  53.5174217  17.3623638  82.5193176  71.7816238  43.2310448
  83.4543915  71.7467728  43.4326630  82.3347321  70.9444199  42.8053093
  35.3503914  50.8543663  48.4330521  34.6919098  50.8110428  47.7396851
  35.7992096  51.6868401  48.2854500  46.0226555  63.5174484  19.1293373
  45.1855392  63.3043175  18.7169762  46.5847588  62.7683983  18.9313602
  39.4404869  57.7383614  73.9278717  39.6031761  56.8564186  73.5932922
  39.9560089  57.7880211  74.7328568   2.0684993  18.4466343  15.1737061
   2.2422650  18.7718830  14.2903872   1.1189526  18.5165672  15.2722063
   5.4844756  41.8536835  36.7416801   6.0577393  41.2202454  36.3099861
   5.6363344  42.6734886  36.2714806   7.6227174  64.5428314  43.4653816
   7.1791282  65.3299484  43.7814560   7.2902422  63.8399963  44.0237007
  44.0735588  44.4751549  10.7099495  44.8996735  44.1946869  10.3161221
  44.1288223  44.1793976  11.6186323  72.6994629  61.2575417  15.4044809
  72.3372421  61.7313461  16.1531715  73.2541275  61.8990784  14.9606266
  61.9281731  32.1495209  43.4256134  61.7625046  32.4990845  42.5500641
  61.1206627  32.3228645  43.9094620   2.3702283  42.3241539   1.3394859
   1.4701395  42.6113930   1.1859748   2.4895468  42.4055977   2.2857213
  10.9255676  12.2326479  84.1129913  11.6638498  12.0400791  84.6909943
  10.8719320  13.1882944  84.1032410  58.1552238  26.4125309   6.0230761
  58.8205948  26.9124966   6.4958854  58.0425301  26.8843288   5.1978860
  55.8045502  55.1212654  84.6209717  56.6679649  54.7185516  84.7135544
  55.9813728  56.0612869  84.5845566  35.5639801   2.4772899  62.4296341
  35.8688660   1.6369648  62.0873909  35.4386406   2.3232768  63.3660088
  78.6553650   7.0647268  80.0424042  79.3268356   6.7009177  80.6194687
  78.8447266   6.6840811  79.1847992  12.3214817  67.0195999  37.2810860
  11.5936632  66.4125900  37.4154510  11.9453382  67.7346954  36.7678757
  41.8668594  64.0055161  63.4177780  41.9519463  63.0576706  63.3148727
  41.7489014  64.3335876  62.5263252  46.5749435  67.4392471  66.5821533
  45.8642006  68.0743637  66.6699524  46.8973007  67.5624313  65.6893311
  72.4377823  57.5481644  20.3498688  72.3931656  57.2270966  19.4492245
  71.8487396  58.3025131  20.3646851  38.9399261   2.0398576  21.9951534
  38.7545662   2.2672858  21.0840263  39.4765511   1.2491308  21.9402294
  85.2816620  34.7866516  33.4041290  85.2986145  35.3291435  34.1925735
  84.9437866  33.9419785  33.7017975  60.9716606  30.9090309   4.6210032
  61.5456886  30.7078400   5.3600888  60.4670906  30.1071701   4.4844117
  61.3311920  25.1505985  59.3316841  60.5727997  24.7155876  59.7213478
  60.9588051  25.7366753  58.6728439   2.6071575   0.8825076  37.0324440
   1.8783220   0.9024807  37.6526299   2.5265336   0.0347659  36.5953331
  83.6537857  34.0742264  62.6839294  83.0264282  34.7507172  62.4289513
  84.5088730  34.4481316  62.4712067  50.2500572  34.9499130  41.8401794
  50.5854111  35.7565269  41.4488411  49.5383568  35.2387199  42.4114075
  46.9705353  30.0207272  64.9778366  46.3543091  29.3654594  65.3051300
  47.0330887  30.6642990  65.6836243  61.6242523  55.6071663   7.0011415
  61.4757767  55.0989418   7.7985706  62.0811462  56.3934593   7.2998409
  26.5184078  18.8029366  65.2682495  25.8941574  19.5217075  65.3678055
  27.2758369  19.2012005  64.8393936  84.3240967  41.1028404   2.1931229
  85.1177139  40.8862762   1.7037276  84.4208603  40.6379318   3.0242238
  16.1802254  43.7381973   4.3470540  16.0882111  44.6906738   4.3234982
  15.4168005  43.4119644   3.8706245   9.7135277  32.0151405   7.7176085
  10.0543327  32.8718491   7.9747825  10.1147308  31.8436871   6.8656273
  30.2713184  64.3772659  68.7669601  30.6829586  65.0131073  69.3521881
  30.0420914  63.6419830  69.3353271  69.1989212  63.5179214  16.2942162
  69.9849548  63.1138725  16.6618099  69.0819092  63.0872803  15.4474049
  64.1677780  55.7649574  73.9218979  63.6729164  54.9600067  73.7689438
  64.8912354  55.7238503  73.2964783  19.5607929  23.9933205  14.2620087
  20.0370140  24.6479435  14.7728043  19.7725449  23.1603184  14.6833162
  68.9579620  24.2904892  50.9664230  69.2215576  23.4142799  51.2475052
  69.6671982  24.8607025  51.2631874   1.4460390  28.2903862   2.5064476
   1.8059975  27.9798851   3.3372607   1.7118621  27.6286049   1.8680001
  72.5683746  38.5361671  62.0845985  72.4669113  38.2796097  63.0011787
  71.7099991  38.8786125  61.8353043  74.7204742   2.8219068  59.7003632
  75.1552048   3.4311306  59.1036301  75.4001465   2.1898439  59.9344101
  21.5510292   9.2142811   2.1167386  22.3830795   9.0509911   1.6726005
  21.1535435   9.9324017   1.6242549  22.5968742  31.2766819  77.4975204
  22.0000839  30.6431084  77.0992050  23.2018089  31.5111732  76.7937393
  56.6296310  23.5090141  23.6697788  56.3345070  22.8566666  23.0345001
  57.2167282  24.0787659  23.1728592  48.5839462  11.9837103  30.3571281
  48.2180367  12.7348232  30.8242168  48.1975632  11.2217751  30.7888641
  45.3005142  29.6885605  72.7729950  45.8250427  29.9939594  73.5131531
  44.8130379  28.9402695  73.1174622  13.9158916  41.0847740  28.9957657
  14.6992445  40.9066620  29.5162144  14.2451086  41.5167389  28.2075691
  27.1683426  34.6841164  20.2334766  27.9101200  34.8552971  19.6532211
  26.4437008  35.1760902  19.8473606  69.9730606  68.9825211  63.7670441
  70.2154007  69.1134872  64.6837540  69.1114960  69.3916855  63.6862564
  72.9168930   8.1982622  50.9931641  72.9475021   7.2484279  51.1076660
  73.1587906   8.3370419  50.0774879  55.7810211  27.1570263  60.8977509
  55.0852661  26.5350761  60.6848373  55.4907150  27.5724144  61.7097893
   6.9134517  67.8354950  37.1440887   6.0682364  67.8393402  37.5933418
   7.5332093  67.5213623  37.8024597  40.7028046  61.2616997  76.2644501
  40.9197311  62.1171188  75.8937378  39.7568512  61.1807632  76.1425781
   0.6810097   1.4745431  71.7599945   1.5819482   1.7016202  71.5298233
   0.7652702   0.9079085  72.5268402  60.7699051  55.8620033  56.1752892
  59.9820938  55.3271713  56.0776062  60.5357323  56.7060852  55.7893867
  84.9869385  28.2396984  66.9814224  85.1341705  29.1514549  67.2329254
  85.7101212  28.0349751  66.3886948  68.9060287  20.5322704  40.0391960
  69.4144897  21.2968788  39.7688789  68.8454437  19.9937706  39.2501564
  39.5346603  66.8446808  44.5692711  40.0602303  67.0315323  43.7913933
  39.5352936  65.8897400  44.6350327  78.8930664   6.2991467  58.0805893
  78.9138718   7.0561419  58.6660461  78.0038300   6.2946749  57.7263756
  52.1364403  34.5697289  51.4503593  51.9491653  35.1369400  50.7024078
  52.9068108  34.9619064  51.8614006  86.4795914  33.2478828   4.2483754
  86.9174042  33.1670036   3.4010181  86.2397385  32.3508034   4.4806380
  60.6778336  42.5628891  23.5586624  60.2092705  42.8399658  24.3460064
  60.8535042  43.3763580  23.0857563  61.6477318  21.7510281  66.7207565
  62.0243263  22.6135635  66.5462799  61.6261101  21.6878166  67.6756210
  82.5671539  43.9749985   9.6241169  82.7669449  44.8979607   9.4677210
  83.2840881  43.6651840  10.1775236  67.7051392  61.3305740  85.3906937
  68.4138260  61.6141891  85.9682388  67.1841202  62.1202698  85.2452621
   1.2567432  22.0539131  40.7484779   1.5318302  22.6422329  41.4516411
   2.0225892  21.9878712  40.1780853  30.9983177  70.4994278  48.7268257
  30.3653984  71.2169266  48.7556686  31.3224163  70.4296951  49.6247826
  39.3128166  40.9554214  73.7871704  39.8601379  41.3339996  73.0991745
  39.1653633  40.0523529  73.5061798  30.6891689   0.8462103  76.4597626
  31.4992790   0.7372988  75.9616699  30.5867138   0.0209968  76.9338455
  35.5153313  32.6914215  87.1784897  35.5724831  33.5726585  86.8091888
  35.6627197  32.1093178  86.4330597  19.6471100  64.9017105  61.7662010
  18.7978249  64.5615768  62.0477257  19.5810089  64.9514999  60.8125877
   9.1786022  43.0762367  13.8459272   9.5391045  43.5948067  13.1266527
   9.8852386  42.4772530  14.0869884  35.4613152  59.7969131   6.5484138
  35.1896095  60.0794868   5.6751680  34.9731483  58.9878197   6.7010264
  74.9016266   7.9222403  53.0297127  75.1962509   7.0551901  53.3083687
  74.0728226   7.7602005  52.5790901  14.6288195  35.2789612  84.2707138
  14.5631618  34.3241463  84.2549973  14.0903168  35.5682259  83.5341187
  78.7759171  52.5826569  22.0620136  78.9529419  51.7518692  22.5032444
  79.6356888  52.8881989  21.7727699  36.7050858  63.5281982  27.5688610
  37.3165398  62.8355293  27.3187351  35.8396187  63.1327667  27.4648056
  51.5705376   1.8659089  83.4889145  52.2623024   1.5160891  84.0504456
  51.9247322   2.6915615  83.1586533  84.3108597  20.6408253  73.6497192
  83.4321213  20.2851849  73.5171661  84.8955917  19.8997173  73.4913406
  28.1814003  59.6215477   5.3104076  29.1370220  59.5678978   5.3221846
  27.8910370  58.8172188   5.7404976  82.2223511  35.9257393  56.7924614
  82.9220886  35.3658142  57.1287460  82.2586365  35.8102608  55.8429451
  78.9056625  43.1218719  27.2030830  78.7381668  43.1507072  26.2610931
  79.8600235  43.1218987  27.2767658  59.1753578  69.9523392   1.5759933
  58.6339569  70.5206909   2.1237979  59.4318962  69.2348938   2.1553848
  57.6524200   7.0378213  68.7230530  58.3998184   7.6326828  68.7844086
  57.0694046   7.4506464  68.0859451  15.4835930  43.8728065  55.6171341
  15.7870140  44.7758102  55.5235672  16.2029552  43.4231415  56.0604706
  71.7660065  67.2734604  44.4644432  71.1371918  67.4462738  45.1651268
  72.4700546  66.7839508  44.8898048  62.3858986  59.3274765  29.4927044
  62.9165535  58.5904465  29.7950706  61.5102730  58.9594460  29.3741226
  63.5718460  41.7553558  82.7068024  63.2480240  42.1817894  81.9133759
  64.4827957  42.0407028  82.7773209  74.4933853  56.0319939  80.0094528
  74.2948914  55.7241249  80.8937912  75.2472153  56.6112289  80.1210556
  39.8333397  55.4686584  40.1317253  40.4195366  54.7718964  39.8365517
  39.0431290  55.0111885  40.4189796  22.3644466  63.8618240  24.9107914
  22.1160660  63.6785202  24.0047359  23.3213310  63.8375854  24.9064102
  74.6079102  48.1878548  47.7602386  75.1560745  48.9196587  48.0434570
  75.2238922  47.5580177  47.3859406  80.4452972  45.2855988  52.4885483
  81.1586227  45.4088745  51.8622856  79.8043060  45.9576530  52.2568130
  62.6405869   8.9770365  23.5911770  61.7049446   8.8870115  23.7720165
  63.0461693   9.0447454  24.4555550  70.2146225  70.6691971   1.6273255
  69.6116409  69.9259720   1.6434655  69.7702026  71.3265991   1.0920395
  11.5114174  30.8155632  58.6218681  11.1022177  31.6293736  58.9159775
  11.0832195  30.1321945  59.1375084  11.0068846  61.7731171   2.5788929
  10.5709734  61.1297188   3.1376884  11.2082005  62.5023651   3.1653211
  17.8753204   4.7494617  81.3345490  17.5747395   5.5846772  80.9763565
  17.0922470   4.3599858  81.7235641  84.3132477  11.1405115   8.5708418
  83.9293213  11.0779448   7.6962471  84.7130280  12.0098867   8.5952883
  32.0389977  14.6409836   5.8848052  31.4474449  14.0372372   6.3340130
  32.8338432  14.6387415   6.4181423  35.0371437  27.6815281   4.3829088
  34.4298058  28.1468563   3.8077211  35.4328499  28.3684406   4.9193797
  70.2360840  22.7319031  64.3777237  70.5843353  22.1032352  63.7454834
  70.9434891  23.3649368  64.5005341   3.5408423   7.8537774  31.7295227
   3.3449597   7.1630340  31.0964851   4.3929267   8.1940355  31.4567432
  43.1137505  65.6066742  47.6953850  43.4210777  65.0208282  48.3871689
  43.3837814  65.1796494  46.8823891  30.8407784   0.4153489  38.6744156
  31.1232147   0.9410147  37.9259949  30.2720356   0.9992571  39.1762276
  21.0819111  69.7948685   3.8331895  20.3584309  70.1365509   4.3586054
  20.9443531  70.1701050   2.9634149  19.9841385  57.2404442  34.8022461
  19.7016773  57.4110107  33.9037170  20.1523323  58.1083336  35.1692734
  77.9583206  46.1847496  55.0544281  77.0838242  45.8822975  55.2994194
  78.4719162  45.3823853  54.9613609  17.9588966   6.3406925  89.0256348
  18.2739334   5.7182221  89.6810150  18.6092453   6.2999282  88.3244858
  73.3413239  59.9660950  52.4504738  73.6141891  59.5404778  51.6376839
  72.7540054  59.3347206  52.8659897  73.6971588  28.0173874  84.3482971
  73.6561966  28.7105007  85.0071945  72.8257675  27.6215439  84.3625717
  37.1401329  34.7857666  75.6767960  37.6626015  34.0343590  75.9572220
  36.7109489  34.4924927  74.8730392  33.2441826  44.3044014  78.8193588
  33.2134628  43.3539009  78.9281616  33.0457077  44.6515656  79.6890259
  52.0072479  34.1741905  85.8745193  52.5040092  33.8701439  86.6341324
  51.5022011  33.4098740  85.5970612  81.0743561  58.2674904  25.5681038
  81.5948334  58.2448387  26.3711090  80.2107544  57.9512215  25.8334370
  64.9129257  19.7651863  46.2427597  64.4852753  20.4858055  46.7054138
  64.3182373  19.0232925  46.3530846  80.0807800  45.6855049   5.6971674
  79.9797745  46.6333389   5.6097517  79.7195969  45.3302383   4.8850331
   4.7535591  31.8685970  87.8620682   5.7080450  31.9064999  87.9233246
   4.5609522  32.1268997  86.9607315  36.9210243  56.6413956  52.2416000
  36.2332878  57.3062935  52.2757187  37.6452026  57.0200615  52.7400055
  41.6962852  63.8367805  75.7874374  42.2246590  63.6946793  75.0020370
  42.3368263  63.9584007  76.4882584   0.6054871  35.2005234  78.8098755
   0.8582510  34.3775864  79.2283478  -0.2516622  35.0196686  78.4241028
  13.5707407  38.6761436  62.6972046  13.1070004  39.3997002  62.2757263
  13.3835878  38.7826271  63.6298714  70.9536743  45.2668381  85.2003860
  71.7007904  44.9018822  84.7261887  71.2909317  46.0700607  85.5970306
  69.9739914  66.6927338  81.3126221  69.3058243  66.5061646  80.6530914
  69.6359253  67.4516220  81.7880478  23.5595684   3.9730227  22.4620018
  22.8996086   3.2953224  22.3156872  23.1540089   4.7765708  22.1363258
  61.4931984  11.9062233  11.9344702  61.1808281  11.1237640  12.3887997
  62.0246277  11.5684681  11.2135448  14.1019230  70.2453995  29.6419373
  14.3082142  69.6280136  30.3437271  13.2773066  69.9253769  29.2761173
  44.4428444  10.6679516  13.4632931  43.9300041  10.0085669  13.9306679
  43.7893639  11.2604790  13.0916662  60.4666023  50.0543556  56.1423988
  61.0688515  50.2548103  56.8588791  60.9513969  49.4454002  55.5852852
  49.6319466   2.4607399  43.3483658  50.5512619   2.2018549  43.2845650
  49.6260338   3.1657529  43.9957886  21.7462521  50.2679367  15.3542700
  22.2420177  51.0211639  15.0331850  22.1705704  49.5115891  14.9491482
  29.9760723  48.5094223  82.1468201  30.9047546  48.3709183  81.9608231
  29.9272118  48.5547752  83.1016922  37.6912231  45.6323090  65.7111282
  36.7383270  45.6655579  65.6267776  38.0152054  46.1469574  64.9719315
  35.2952347  69.3916931  67.7363129  34.4770737  69.2636108  67.2562790
  35.8557663  68.6701126  67.4510803  42.6255684  27.8237095   6.4298515
  42.7238312  26.8722305   6.3943405  42.3978920  28.0745602   5.5346041
  29.4729404  17.4226437  64.5006638  29.8187294  16.9885712  65.2805634
  29.9203892  18.2685490  64.4791260  60.6888351  57.8146439  42.6806374
  61.1882896  57.0063858  42.5644569  59.9999313  57.5830536  43.3035431
  79.3020172  60.5270309  87.5582047  79.6954727  59.9124870  86.9387207
  78.5888672  60.0342560  87.9641953  63.7876129  45.2366867  65.0405197
  63.7792091  44.3325653  64.7263107  63.8888245  45.1596146  65.9892273
  47.8220901  36.2921562  85.2466354  48.5179329  35.8450432  84.7648468
  48.2794304  36.7743912  85.9354935  47.1937599  51.3536911  57.9629364
  47.0089912  51.0096779  58.8368607  47.8717499  52.0144844  58.1040573
  25.0312843   4.8411651  15.1646633  24.4451180   4.4848728  14.4970570
  25.9104404   4.6808777  14.8217030   6.1474781  49.6842651   7.3976860
   7.0023818  49.2735519   7.5268712   5.5765238  48.9672356   7.1218004
  83.8354187  51.0550575  61.7376022  84.6633911  50.6030731  61.9000816
  83.6427917  50.8784065  60.8167763  65.7479401   9.1391993  38.8363266
  66.4687958   9.6710100  38.4990158  65.4005966   9.6449270  39.5710564
  26.5942497   0.2499431  39.4834862  26.2527370   0.3534980  38.5952988
  27.2920208   0.9018728  39.5493202  73.6275787  13.0045424  11.3317499
  73.5266418  12.2105417  10.8067694  74.1230392  12.7220287  12.1004725
   8.5140152  15.6555376  27.4528160   7.6671457  15.6287451  27.8981533
   8.6483679  14.7610369  27.1396885  21.5674381  29.0394459  59.9961662
  22.3421707  29.2090034  59.4601898  20.9136982  28.7155991  59.3765068
  84.6110306  24.0169888  60.5517845  83.8881302  23.4337769  60.7831001
  84.3981934  24.3244190  59.6706390  54.9070206  40.2102051  18.3787575
  55.6384354  40.8262215  18.4209862  55.0432434  39.7323799  17.5606136
  19.7725735  61.1252556  20.6066933  20.0827408  62.0299225  20.5666466
  20.1964493  60.7609062  21.3837452  67.4694824  45.2772179  66.3048782
  66.5941696  45.3645668  66.6822739  67.5685196  46.0496521  65.7483063
   1.6150396  55.2450409  28.0991917   1.5075364  55.5117226  29.0121841
   2.5303540  55.4406090  27.8987331  64.9297867  51.6427078  44.6929550
  64.6068268  52.4102173  45.1650276  64.7993774  51.8572578  43.7692680
  15.2526169  47.4158096  74.0409317  15.1923504  47.6114006  73.1058655
  16.0391273  47.8772697  74.3319473  16.0793171  49.6272125  50.1345634
  16.7751007  50.0066299  50.6713676  15.2819576  49.7597923  50.6472740
  75.2405014  33.1680489   1.1725023  74.8200836  32.8561096   0.3711436
  75.1792831  34.1218147   1.1194443  12.0117292  50.8967247  29.7170582
  12.2363749  50.5468521  28.8548775  11.3644247  51.5786476  29.5375843
  65.3227081  60.3375969  21.6085663  66.1255875  60.0371895  21.1826916
  64.9675980  60.9968987  21.0123672  75.4932709  11.2704716  63.0546608
  74.6430359  11.7100983  63.0465813  76.1262436  11.9701824  62.8934746
  83.4469376  17.8815861  11.7704000  83.5879135  17.6189175  10.8608046
  82.6570816  18.4216461  11.7440729  69.9479828  31.2120113  67.4113693
  70.0265884  31.4204388  68.3422928  70.8256989  31.3577061  67.0583649
  25.7827930  51.6822662  42.5070648  24.8880177  51.9036713  42.7651138
  25.9853401  52.2921524  41.7976685  60.3372307  59.7497940  87.6704559
  60.3434944  60.6514664  87.3492355  61.2313042  59.4387741  87.5285797
  57.2090797   0.8172076  36.0844955  56.3939629   0.4361652  36.4110260
  56.9272156   1.5175903  35.4960709  71.6563492   1.6775757  77.0542984
  71.2561569   1.9498963  77.8800812  71.5093155   0.7324679  77.0170822
  46.0954933  47.4701881  72.3608398  46.7481766  47.9833488  71.8844986
  45.5174637  48.1238594  72.7543182   2.2154911  18.9328079  78.4120712
   1.3176287  19.0851517  78.1173401   2.3543537  19.5814285  79.1021729
  20.9723129  32.7362099  21.0051785  20.9500027  33.6810608  21.1568012
  21.5450287  32.6289558  20.2457542  27.5310917   7.2076435  64.5992355
  27.2911453   8.0876188  64.8895798  28.1575489   7.3519311  63.8900337
  57.2046928  19.1099186  34.0833397  57.7049370  18.6278076  33.4248886
  57.0884476  19.9814816  33.7050591  30.4071159  55.5008240  49.7359543
  30.7473507  56.2876587  50.1618195  30.3785458  54.8448410  50.4324455
  11.3434582  62.9728050  55.2044525  12.0975971  63.0149651  55.7924423
  11.5886555  62.3220329  54.5467262   6.4765935  58.2340622  10.9536257
   6.8055720  57.3820724  10.6670561   5.8623562  58.4965744  10.2680378
  43.1877518  62.3502274  37.9621429  42.3891716  62.5615883  37.4785843
  42.9178238  62.3467178  38.8804893  72.0217209  46.7304840  78.0244064
  72.1184998  46.5606613  77.0873718  71.3359909  46.1257820  78.3078384
  41.5894623   7.8874378  26.2545433  42.3709869   8.0331993  26.7876530
  41.4229469   8.7327557  25.8374786  49.1141434   0.4973749  21.5088406
  49.2353363  -0.4193233  21.7562447  50.0029068   0.8451258  21.4353275
  52.6728477  36.9999809   9.9538431  52.5923386  36.3977890   9.2141705
  52.3718414  36.4939461  10.7085333  66.5658646  68.9845047  58.4314194
  66.9270935  69.8523941  58.6117172  67.0461655  68.3988495  59.0167007
  13.0300407  46.2568855  68.1081467  13.2529755  46.7895355  68.8715668
  13.5881376  45.4830093  68.1848068   1.4124999  22.9843445  83.9816132
   1.3788954  22.1085186  84.3663635   1.2035210  23.5728111  84.7070541
  69.1612320  64.1740494  71.3086166  68.5676041  64.2795029  72.0520630
  70.0350952  64.2905731  71.6814728   8.6496706  13.8821812  63.5537567
   8.2546406  13.0111341  63.5919533   8.0618019  14.4345837  64.0690155
  67.6580658  11.3909607  81.2743988  67.3907928  10.9892168  82.1010742
  67.8236237  10.6505489  80.6907730  57.9200439  11.3188887  51.6423035
  58.0273361  12.2656031  51.7342453  57.5824165  11.0325689  52.4909859
  11.7815552  63.8781776  33.6240807  12.1713123  64.5547180  34.1778030
  12.3218222  63.1029472  33.7769394  64.2138062  27.3393688  30.2634754
  63.6310196  28.0976009  30.3043995  64.8420258  27.4816513  30.9715176
  50.8434677  18.0018101   2.6987896  50.3040810  17.9128628   3.4845254
  51.6052170  18.5047855   2.9868698  30.6216030  59.4570274  86.9100952
  29.7756424  59.8677444  87.0886841  30.5451584  59.1313477  86.0132523
  61.0573654  60.7598152  50.3722534  60.5561256  60.6892738  51.1846657
  60.4144325  60.6059151  49.6800194  70.2019653   0.8443137  46.2132301
  71.1125259   0.9292521  46.4958916  70.1849213   1.2351413  45.3396187
  33.1471329  69.8072205  70.1944046  33.6160049  68.9739609  70.1488647
  33.4502106  70.2083817  71.0089264  82.2749023  59.3878937  37.7195778
  82.5971298  58.8585358  36.9900703  81.3834457  59.6274109  37.4662781
  74.7606277  55.6712990   1.7820729  74.8666077  54.8988800   2.3373857
  74.1330719  55.4002953   1.1120315  19.5386105  69.9662552  29.5518131
  19.7238655  69.0342865  29.4362755  20.1987686  70.2659988  30.1767750
  64.9159927   0.2916491  80.4365692  65.8380661   0.1328883  80.6385956
  64.4532089   0.0792960  81.2471085  33.1844368   9.8848257  12.6669645
  32.9527130   8.9938240  12.4049492  34.0091629   9.7876587  13.1430044
  32.0171814  68.5557938  43.1625671  32.4195633  69.1348038  42.5152092
  31.8049355  69.1300278  43.8983917  76.3713608  34.5282059  85.2552414
  75.6964417  33.9027367  84.9916153  77.1924210  34.1313705  84.9643631
  21.5435677  69.8631287  32.1162910  21.8269119  70.1206665  32.9935760
  22.3577061  69.7394257  31.6283264  40.6220436   0.9334884  15.5694962
  40.2333260   0.6233897  14.7515907  40.3860016   1.8602160  15.6106224
  47.0988007  34.5666733  43.9726830  47.6115112  35.3621140  44.1163254
  46.9727631  34.2015419  44.8484802   7.9499531  36.2130241  18.0238991
   7.5926828  37.0996284  17.9736595   8.8035955  36.2741356  17.5951881
  62.2506180  48.5240707  28.9855728  61.7036247  48.2876740  29.7346687
  61.7701035  48.1965179  28.2252789  57.8289032  64.1667938   4.1549859
  58.4290161  64.9085388   4.2319002  57.0009499  64.4908066   4.5095849
   5.9255838   9.8921032  15.8121090   5.5929422   9.3752613  16.5459042
   5.9739885   9.2717934  15.0847130  31.3176708   7.7231078  17.6950207
  31.1852741   6.8811417  17.2593651  31.2052517   8.3723402  17.0006924
  12.5766907  65.1866455   1.8158158  13.3073254  65.2487564   2.4310765
  11.8185148  65.4944382   2.3124678   3.6181829  59.4507942  70.3852234
   3.6251132  58.9246826  71.1848373   3.1517360  58.9107628  69.7472382
  79.4674225  51.6722336  46.2578583  78.9152145  50.9157219  46.0603943
  80.3400192  51.4163628  45.9589691  51.6106720  54.6996651  55.3830681
  51.9549561  55.3180542  54.7386322  50.7447739  55.0421143  55.6048355
  23.6067047  16.7195892  76.8869400  23.4861660  16.5295830  75.9565659
  22.7367897  16.9750500  77.1938934  56.7124519  13.6865587  54.4490051
  56.5754547  14.3603992  55.1148911  55.8596268  13.2611685  54.3597298
  82.8166122  40.1791267  60.3240204  82.4745636  40.7887344  59.6701012
  83.7230148  40.0256195  60.0573921  50.9003563  43.1781387  12.8016825
  51.7338181  43.0489388  13.2543240  50.2421989  42.8462105  13.4123240
  49.8670006  57.6371422  71.7297134  50.3707962  58.4151268  71.9687881
  50.4831505  56.9118690  71.8325195  30.4812908   5.2727246  22.3128605
  30.1741180   4.3742929  22.1916275  31.3147240   5.3063173  21.8432941
  68.8737411  28.0007172  64.8455887  68.5149536  27.8038197  65.7108841
  69.6446228  27.4380550  64.7722473  24.6071949  19.1918011  71.7255249
  25.4036922  19.2788029  71.2018280  24.4385052  18.2499065  71.7502594
  44.2887650  42.2089844  31.0274544  44.9992104  42.5719795  31.5563526
  43.6719208  41.8529167  31.6669464  45.9486961  21.2932854  22.2500057
  46.3692818  21.0695610  21.4197712  45.2607880  20.6359940  22.3547840
  67.0816345  60.4584885  27.4188251  67.0689240  59.8516960  26.6786404
  66.7532730  59.9438515  28.1560898  46.6928368  46.1328659  56.9729347
  45.7788200  46.3355675  56.7736511  46.8906860  45.3657761  56.4356575
  82.3726654   3.0018179  61.9553528  81.9995041   3.5351300  61.2535286
  82.1933365   2.0993264  61.6915741  33.2284050  22.1783829   9.7572899
  32.6104660  22.4116993   9.0645075  33.7084084  22.9877510   9.9326525
  57.9073830   9.0239973  88.4052200  57.4313660   8.5909147  89.1137924
  58.7984161   8.6803932  88.4702454  46.3422623   4.1264391  22.6333332
  45.5932922   3.6093936  22.9298744  45.9586945   4.9450927  22.3188305
  62.7699852  30.2282791  48.5783997  63.1257744  29.8458176  49.3805046
  62.2149124  30.9468288  48.8814125  78.9855957   0.2536790  47.2580032
  79.1170578   1.1878871  47.4198875  79.8664780  -0.0898041  47.1086769
  51.1380386  40.2085915  70.3110657  50.7239876  39.7302132  69.5927658
  51.7494698  40.8057747  69.8800659  68.6575928  33.3744164  77.9282303
  69.1651764  33.8416367  78.5917740  67.9869919  34.0003853  77.6549454
  68.1211319  23.7280254   2.1765921  67.5223694  23.5815849   1.4442852
  68.4041977  22.8505249   2.4336839  75.8076706   6.1220846  71.2964859
  76.6860733   5.8871908  71.5955887  75.3633804   5.2828851  71.1757431
  19.7199993  16.9342766  84.4169464  20.3362541  17.6500874  84.5721130
  18.8828678  17.3696041  84.2559204  14.7622862  24.9718361  81.0010071
  14.9264011  25.6514435  81.6547928  14.7771320  25.4360657  80.1640472
  21.5806694  65.0681763  27.0608444  21.8844280  64.5678940  26.3034286
  21.6062546  64.4439926  27.7860794  19.1304054  16.5923939  25.7797127
  19.0153236  15.8692217  26.3961620  19.4824142  17.3064384  26.3111858
  80.1910934   8.6591158  48.7985268  81.1360779   8.8105106  48.7810173
  79.8218613   9.4855146  49.1099205  16.2955151  38.6491928  32.4166603
  16.0398121  37.7349319  32.2942963  17.2231522  38.6093712  32.6493340
  75.2166901  21.5812931  71.7879333  75.1717911  20.9768600  72.5287933
  76.1530304  21.6785831  71.6146011   3.1061957  18.3258362  10.5243473
   3.5724528  18.6033649   9.7357950   2.3200526  17.8890858  10.1965380
  57.7650299  23.6345005  18.2665272  57.1341667  23.7233143  17.5521336
  57.7028351  24.4611206  18.7451305  31.5501747  53.8470078  27.0063438
  31.6266079  53.2594299  27.7581062  31.3018093  53.2753830  26.2798519
  49.7656403  35.1278381  83.6464767  50.6649208  35.3921318  83.4523773
  49.4474068  34.7433395  82.8297043  14.5252104  63.8966179  29.1007061
  14.7753839  64.8028107  28.9205418  14.4940538  63.4809151  28.2390499
  79.6415100  41.4160042   7.7961092  79.4872818  41.4453354   6.8518715
  80.3925018  40.8313293   7.8980823  27.1457882  55.9199066  74.0365067
  27.5312500  56.0267792  74.9061203  26.2084064  55.8174362  74.2009659
  71.0590286  44.0690727  61.3471527  70.5461273  44.6427765  61.9163857
  71.8055801  43.8038902  61.8843384  47.8294754  27.8681812  85.6682739
  47.6316605  28.5806084  85.0603714  48.6099815  27.4514618  85.3030548
  61.3013573  54.5685501  65.0410919  60.4289742  54.7899132  65.3669510
  61.3549538  54.9996567  64.1881561  72.9492798   4.9856782  61.0107613
  73.3092422   5.6580610  60.4323502  72.1782608   5.3951592  61.4033051
  29.6190777  69.5004425  39.8153992  28.8694839  69.5762405  40.4058189
  29.8990154  70.4036102  39.6665535  80.4622498  49.7756653  57.1755562
  80.1069489  50.5552521  56.7486572  81.2347870  49.5499420  56.6574211
  81.0107269  63.3722153  38.6439285  81.8229675  63.0086784  38.2913170
  80.7754135  62.7824020  39.3601532  86.1619644  40.0335426  77.0085144
  87.0217209  39.8325043  76.6388779  85.6773300  39.2102203  76.9493179
  18.5280018  57.8756943  29.5426960  17.7072849  57.6390991  29.1106300
  18.8971634  58.5672340  28.9934044  20.1649742  16.5437279  58.1020355
  20.7397537  16.0122929  58.6528854  20.7613754  17.0308189  57.5334587
  36.3234978  35.7666435  11.4463406  35.6161804  35.1795540  11.1793947
  36.6062317  35.4299164  12.2965813  54.5623169  36.4296913  84.7905502
  55.1427155  37.1823807  84.6772766  53.9723244  36.6866875  85.4991455
  58.2030220  67.8000946  16.9540596  57.6218414  67.7214508  17.7105465
  59.0830193  67.8261108  17.3297749  86.2577438  28.4501057  22.1061382
  86.5525360  29.3495522  21.9635792  85.3156815  28.5278606  22.2568245
  28.5046558  45.2136345  59.8223801  29.0223808  44.8448906  60.5380783
  28.6558952  44.6200676  59.0868263  19.2608147  55.9816437  82.5020218
  19.7010574  55.6849899  83.2985229  18.6833630  56.6862602  82.7957916
  79.5261307   0.8656986  59.5549431  79.9762802   0.0224376  59.6049805
  79.2306137   0.9259133  58.6464920  36.6118889  68.1270981  49.7679482
  36.6530418  67.7790680  48.8772125  35.6898232  68.3500900  49.8956032
  19.8365860  18.2385750   1.3402535  20.4164639  18.9603615   1.5831435
  19.5761948  17.8492317   2.1750233  20.3951492  61.7161713  77.8769989
  20.7251263  62.4097939  77.3058243  20.6199455  60.9043579  77.4224014
  59.4945145  22.7808800   8.0090427  58.6028862  22.6303253   8.3229914
  59.8467560  21.9036713   7.8585024  51.3813591  59.1373901  84.8882446
  52.1880760  59.0554619  84.3795929  51.3184242  60.0712395  85.0887375
  81.7835159  25.0577717  79.7620316  81.0884476  25.1111107  80.4179764
  82.1375809  24.1738319  79.8595810  29.0275898  47.9882469  23.9057388
  29.7477036  47.9185638  24.5324841  28.3226490  47.4686394  24.2921295
  13.6624784  22.2961521  17.3535671  14.1160126  22.3747540  18.1928291
  13.2160101  23.1356068  17.2430496   8.7292089  40.2750816  79.7184906
   9.6266470  40.0006218  79.9069290   8.1942911  39.5124207  79.9385986
  27.5814972  43.2718811  64.9648514  27.6060085  44.1769180  64.6541367
  27.7053356  43.3402290  65.9115448  67.7720871  30.3055515  54.7768784
  67.0236664  30.3824673  54.1851196  67.3823471  30.1462688  55.6365089
  76.8756256   3.8493452  57.7329865  77.4615173   4.0519209  58.4623146
  77.4605408   3.5931680  57.0199127  68.5103302  70.8049698  76.4661026
  68.5904770  70.6767960  77.4112930  69.3792038  70.5981674  76.1218338
   8.7207232   9.0956907  26.7922993   7.9086075   9.2256517  27.2820034
   9.4133167   9.3257618  27.4116650  23.0594006  63.8417969  17.1308556
  23.3583698  62.9816780  16.8358250  23.4574032  64.4577103  16.5156479
  24.2431469  59.4946060  54.4561234  25.0176754  58.9321861  54.4606781
  24.5938492  60.3852386  54.4602776  80.2547913  66.3370132  52.8090057
  79.8234787  66.5689774  53.6314354  80.8877335  67.0402527  52.6638298
  57.2586021  10.9514332  11.1176262  57.1491470  10.8964224  12.0669546
  57.7819023  10.1823826  10.8919001  66.0474319  60.9651451  35.5633888
  66.2222061  60.3084679  36.2375259  66.9014664  61.3592453  35.3857880
  85.4682159  50.2670021  14.6216450  85.9802551  49.7065964  14.0385532
  85.9262314  50.2213478  15.4609098  86.6930618  59.5187187  59.0730095
  86.5907135  59.6784744  60.0112190  86.1011276  58.7895355  58.8882408
   0.5783148  12.4305077  80.2870331   0.8250585  11.7715139  79.6381302
   1.3404851  12.4973850  80.8622360  86.1273270  61.4990082  38.2938194
  87.0435715  61.2675362  38.4459572  85.6463242  61.0365181  38.9800911
  31.1897087  71.6613846  69.1089249  30.4508801  71.3656464  69.6408081
  31.9430332  71.1868973  69.4604874  39.3347473  53.6995659   7.1054373
  39.6297951  53.4081230   7.9681292  40.0743713  54.1954002   6.7542372
  77.1967163  69.8328323  71.8827133  77.5080109  69.0283203  71.4678802
  77.9192047  70.4517822  71.7771530  61.5556297   0.3313673   2.5160236
  60.9908371  -0.1013122   1.8756909  61.9431610   1.0640129   2.0371876
   8.1285982  37.3117256  41.3268471   7.7067294  38.1163330  41.0254135
   8.7463923  37.6020927  41.9978523  29.8294849  69.5585861  13.3378286
  30.0084057  68.6423492  13.5493155  30.4095154  70.0552902  13.9149628
  69.3964615  47.1227722  47.4462776  68.6919861  47.5327988  46.9444466
  69.4996948  46.2571602  47.0509415  84.6029510  19.6809311  21.0569897
  84.4162521  20.4554310  21.5875797  85.5067368  19.8021603  20.7659626
  77.8487091  48.2888069  16.7329597  77.6028824  47.3747101  16.5907383
  78.5957947  48.2458344  17.3298264   9.1434507  33.6557236  74.6893387
   8.3360329  34.1277733  74.4856796   9.2516804  33.7628860  75.6343460
  52.4624100   7.0259461  30.5121651  52.8445625   7.7634225  30.9878979
  52.7917328   6.2508864  30.9672050  40.4694290  42.1155396  68.6727295
  40.0006294  41.5996628  69.3287277  39.7798042  42.4873428  68.1228104
  64.8063507  47.9176140  22.1223278  64.3270416  48.7314720  21.9669838
  64.1334915  47.2369537  22.1081734  74.3340988  65.0607147   1.3088179
  74.8273849  64.5923233   1.9822488  74.5714264  65.9795914   1.4336473
  35.3038864  10.7855740  78.0859833  34.4076614  10.9394531  77.7870941
  35.2230339  10.0878162  78.7362366  62.9607925   5.5127120  83.9802628
  62.4209442   5.9570088  83.3265076  62.3820724   5.4039192  84.7348938
  15.9291410  38.7686119  81.4960938  16.4622211  38.0219803  81.7692184
  16.4917278  39.5296974  81.6391983  48.0964012  62.4397812  61.3678360
  47.5728226  62.1821136  60.6090851  48.9495392  62.0317574  61.2198372
  69.6758194  56.9758873  77.3780746  69.8475494  57.7472763  76.8379822
  69.9136810  56.2352257  76.8203354  48.6717186  46.9570503  65.9209290
  48.5758934  46.6722336  66.8297348  48.6551399  46.1460533  65.4127502
  66.6987228  45.1992645  62.6388664  66.2401123  45.7803917  63.2456627
  67.1030960  44.5377388  63.2002029  36.9413528   5.6845694  28.2034798
  36.9266815   6.5901871  28.5131111  36.0922089   5.5628676  27.7787724
  61.4475479   9.2287598  66.0636902  61.0335426  10.0731668  65.8853455
  62.3480492   9.3339157  65.7566528  34.4443588   3.6337519  88.1746063
  34.5117035   4.2084765  88.9370956  33.6859741   3.0794938  88.3586884
  70.9425812  11.8920116  15.3669472  70.0522232  11.5670547  15.5007668
  70.8383255  12.6420593  14.7814627  62.5518608  10.2012959   4.4933586
  61.7861748  10.6424570   4.8612323  63.2507362  10.3669720   5.1260977
  13.2096491  65.7415390  78.5058823  13.3157730  66.6672440  78.7250443
  14.0700207  65.4711990  78.1850891  82.6295166  52.7731056  57.3651009
  81.7494583  53.1052513  57.5423050  82.6713028  52.7023697  56.4114342
  79.7269974  29.9988346  76.1616058  80.4727402  30.5148430  76.4679337
  79.3263016  30.5382977  75.4799500  69.7902603  58.0126381  62.2753601
  69.6668549  58.9547882  62.1597977  70.6911774  57.9254990  62.5867805
  13.9109354  62.6608620  51.9851036  14.3934259  63.3083344  51.4710884
  14.2842913  62.7263336  52.8640518  12.5063791  46.2399483  64.1668854
  13.4218082  45.9603081  64.1622772  12.3092823  46.4296951  63.2496185
  69.3197327  52.3939972  66.2765350  70.2461243  52.3031807  66.4996262
  68.9283676  51.5593414  66.5342636  34.3935814  34.0575752   7.9471560
  34.6827965  34.9697113   7.9227281  33.5353012  34.0896873   8.3697119
  31.1316528  58.9169159  81.3504944  30.2621536  58.9657288  81.7477646
  31.3065796  59.8076515  81.0468216  11.7629728  53.9025650  38.0369987
  12.3536510  53.3470764  37.5283089  10.9149323  53.4617920  37.9842834
  67.3254547  18.9707794  60.6878204  67.0982361  19.3088665  59.8216248
  67.5891800  19.7447815  61.1854172  50.6842690  55.6388359  88.6148071
  50.8133621  56.0124626  87.7430420  50.6676865  56.3961906  89.1999283
  86.2504349  70.8043976  51.1485291  86.2018051  71.7079697  50.8364105
  86.2973328  70.8823395  52.1013985  52.5576057  10.9076767  52.3044090
  52.3873100  10.0955534  52.7815742  51.9080429  11.5244579  52.6418648
  60.2695847  60.0714760  26.4432602  60.0891647  60.3096313  25.5338860
  61.1993866  60.2655487  26.5617218  57.3254433  43.9171181  74.0614243
  57.3353767  44.6684113  73.4683838  57.7700577  43.2225342  73.5755157
  11.4928484  35.0903664  77.5582275  10.6600714  34.6206741  77.5123444
  11.7970304  35.1277390  76.6514130  61.6536255  12.5834608  48.7576027
  61.8492584  12.3285036  47.8559647  61.4430656  11.7605562  49.1988831
  67.1990967  17.8720913  14.0948925  66.3738098  18.3566475  14.1133642
  67.5053253  17.9549446  13.1917915  10.1561661  54.3639374  22.7581406
   9.8449173  54.7355347  21.9327507  11.1080074  54.3314705  22.6623516
  70.6764221  42.6532707  65.0461578  70.9701080  43.1567383  65.8054276
  69.9519577  43.1644402  64.6854782  60.8526955  46.3386612  32.5262108
  60.4665489  47.1399040  32.8799591  61.6864128  46.2503967  32.9881134
   6.1808267  13.0137291  80.9889297   6.3352604  13.0200577  80.0442963
   6.7781119  13.6775084  81.3337250  19.7271881  43.4174843  11.6659718
  20.5669460  43.2463341  11.2396536  19.2679749  44.0031853  11.0640497
  21.1272831  40.3532143   2.9990129  20.8848362  39.5295906   2.5758128
  20.2958660  40.7249146   3.2936599   3.8302798  44.7750435  41.1375809
   3.8903425  45.4761696  41.7864647   3.8264825  45.2285233  40.2946281
  81.4141769  41.6160774  11.3791780  81.3336487  41.9160423  10.4737682
  81.9782791  40.8445511  11.3266115   0.4620513  57.5349884  83.8990326
   0.5907932  56.8941803  84.5983353  -0.3526900  57.2659950  83.4746857
   8.1385622  48.5887146  45.9387741   8.0729456  47.8920479  45.2856369
   8.7245369  49.2337837  45.5428581  68.5037003  39.7362175   1.9572401
  68.8247452  40.6269722   1.8168043  69.0066757  39.2008057   1.3435837
  39.1028862  29.6207714  64.8206558  40.0385590  29.7190495  64.6443329
  38.7249146  30.4688072  64.5878296  68.7498016  23.8827991  43.7189064
  68.9549484  24.7502346  43.3700485  67.9547043  24.0142593  44.2354050
  50.9047775  11.3434200  58.7380104  50.8698578  10.4760952  58.3345718
  50.2387962  11.3150301  59.4249573  84.8279343   7.3061337  75.0832520
  84.1172867   7.0668035  75.6781769  84.3849564   7.6355739  74.3012848
  11.5055294  37.0629425  67.7250748  11.1673670  36.1868134  67.5399475
  12.4525785  36.9439049  67.7969055  59.3136749  48.5676727  72.2493515
  59.5526047  48.7136230  71.3340149  59.0060043  49.4207954  72.5555344
  56.2815666  61.0064163  65.3987961  55.9290581  61.8809509  65.2340012
  57.1549759  61.0225830  65.0074844  77.0925980  57.1571655  30.3841190
  77.0101318  56.2095604  30.2769775  77.1885986  57.4915733  29.4923878
  12.7454815   4.7317243  66.0668488  12.0385141   5.3665752  66.1825867
  12.9590769   4.4465051  66.9552536  36.4987793  67.4780045  29.7165051
  35.6784325  67.9197006  29.9359818  36.4876900  67.4128571  28.7615891
  31.9444942  19.1577625  69.0204926  32.0140724  19.2038097  68.0669327
  32.6244736  18.5362797  69.2805252  66.2407074  57.5925789  81.3538742
  66.9576263  57.3117790  80.7851791  66.0229340  56.8142853  81.8667679
  83.7638702  29.0859451  34.6911736  84.2251663  28.9173698  33.8695793
  83.5630646  28.2158833  35.0359955  51.1335335   9.3958597  67.0088196
  51.6962929   9.1106319  66.2889709  50.2926521   8.9716206  66.8380203
  82.8603897  47.0523720  24.6101933  83.5152588  47.0157661  23.9130287
  82.3213425  47.8128853  24.3927631  41.5170860  69.7844620   3.9785326
  40.9761772  69.6920166   4.7628174  42.1053047  70.5128403   4.1777573
  41.7283173  28.5774479  68.2934036  42.2014046  27.9440174  68.8330231
  42.3804207  28.8937645  67.6681519  36.2197227  42.8004532  52.6347923
  36.1297112  42.2242737  51.8757515  35.9752235  42.2532997  53.3811684
  53.0377693  41.5955696  68.9361343  53.6817017  41.4422836  68.2446976
  53.2740097  42.4494896  69.2984085   0.8771515  11.1214466  48.5549660
   1.4253366  11.7831049  48.1331444   1.4898766  10.5940094  49.0674210
   2.7760313  34.9875145  62.0574532   3.0627308  34.1383553  62.3935509
   1.8330960  35.0039787  62.2212639  63.0061455   6.0769286  55.4093018
  63.9453201   5.9567528  55.5498123  62.6573639   5.1876225  55.3483238
   5.9465094  26.8425350  12.5788460   5.3338556  26.1070957  12.5748520
   6.3525405  26.8113232  13.4450998  15.3391933  27.9258251  74.7554855
  14.3874378  27.9220161  74.6536102  15.6682587  28.2555771  73.9192963
  11.0132341  48.6211967  52.4756355  11.7201672  48.4166145  53.0876999
  11.4608660  48.9164963  51.6827583  71.1724167  26.3054314  70.4671936
  70.6874390  27.0476284  70.1063995  70.6736984  26.0475063  71.2424240
  72.9740753  10.7988787   9.4051876  73.0420685  10.1350565  10.0914450
  72.0378189  10.9897995   9.3485546  71.2214813  62.1001511  51.5783424
  71.7811127  61.8259926  50.8517876  70.3480835  62.1732750  51.1935577
  56.5295753  57.6013794   0.2818089  56.2654610  57.6123238   1.2017854
  56.8963661  58.4719543   0.1275531   2.2613230  53.6172142  19.0385818
   2.2837017  53.5370522  18.0850067   2.3304005  52.7169304  19.3563061
  83.7741089  58.0724373   0.3786387  83.5226135  58.1977654   1.2936660
  83.9359741  58.9572754   0.0513839  44.2280502  49.4147530  73.4332809
  44.8309402  50.1552620  73.3669281  43.4076080  49.8006248  73.7402115
  58.9375877  27.0440292  16.9064217  58.4735832  26.6554585  17.6480064
  58.2524071  27.2233543  16.2625237  26.5035877  52.3653450  86.6592712
  26.6965752  51.8043365  85.9081039  26.9826870  51.9663429  87.3855591
  43.6570396  31.6463661  88.7203827  44.5888481  31.8316689  88.8371124
  43.3270378  31.5091896  89.6083603  39.8646317  37.6958809   3.7773497
  40.1901588  37.4038467   4.6288075  40.6527824  37.8130608   3.2469587
  86.0416107   0.0468577  27.2826862  85.8121872  -0.2803237  26.4128876
  85.2216110   0.3970615  27.6308193  67.2255859  57.5645409  20.6355534
  66.8804626  57.4424858  21.5199890  68.0648880  57.1043434  20.6403408
   1.2378768  25.1141376  49.7787590   1.7661139  25.3627300  49.0202103
   0.9599299  25.9468307  50.1603317  35.9373322  14.5638027  88.9236603
  36.4916687  14.7004061  88.1553650  36.5534363  14.3961229  89.6367798
  73.6783752  31.3827877  15.6868906  73.2919922  30.8327560  15.0054150
  73.0715103  32.1178665  15.7740879  11.6419163   0.4690313  23.4661026
  12.4871120   0.2278812  23.8452110  11.7608957   1.3715342  23.1701889
  44.8537865  69.9666061  46.9472504  44.9831314  69.0926132  47.3155403
  43.9238052  69.9966278  46.7226028  19.5350227  59.0128365  48.1196518
  18.9953613  59.6455231  47.6456184  18.9083672  58.4932137  48.6231651
   3.6857493   3.2876744  85.9161224   3.6179645   3.1733849  84.9681931
   3.3493309   4.1694818  86.0757141  15.7006216   3.7712913  22.1279640
  15.8066292   4.6769266  21.8367271  16.4011135   3.2933667  21.6839695
  49.4166794  23.7257195  16.9496708  50.1850395  24.1061745  17.3752422
  49.0558090  24.4397564  16.4241638  17.4339352  58.9282303  35.5951462
  17.8310661  59.4421577  36.2982788  17.5980682  59.4394646  34.8027229
  68.4125519  20.9814529  73.3431702  67.9837189  20.9594841  72.4876938
  68.6755219  20.0750008  73.5026169  17.8211327  59.5479774  26.6078987
  17.7868328  59.5576248  25.6513634  18.7387581  59.3685799  26.8128643
  67.1286469  67.4433060  32.3879318  67.0291138  66.5756607  31.9961109
  67.0937119  67.2854919  33.3313866  54.4848328   8.9392672   4.8572931
  54.4138107   9.0877314   3.9143474  53.6129379   9.1397257   5.1976557
  16.4662132  29.7403469  80.8121033  17.1795387  30.2979908  81.1226349
  16.1514435  30.1736546  80.0187531  43.9043961  44.2527542  66.8880386
  43.1634102  43.9868889  66.3435287  43.6884232  43.9272652  67.7619095
  57.8478737  62.2271690  73.6532974  57.1363182  62.0270615  73.0451202
  58.6349945  61.9019928  73.2163391  54.5479012  31.3454704  61.9890137
  53.8172112  30.8712883  61.5921822  55.2825508  31.1946659  61.3942223
  15.7059107  36.8879089  10.2507057  16.4153824  37.4482689  10.5651541
  15.5015163  37.2266693   9.3790989   8.1051569  66.6449280   3.3934960
   8.2006121  66.0032196   2.6897004   7.1873922  66.9133453   3.3500276
   8.3813324  62.7064934  17.7801838   9.2391796  63.0756531  17.5702972
   8.1007690  63.1819992  18.5621109  38.0438461  61.7510071  75.9824600
  37.1684189  61.4444771  76.2188873  37.8898888  62.4402046  75.3362885
  17.2358532  60.3306313  58.9631042  16.9344330  60.1365280  58.0755806
  17.9781246  60.9223175  58.8399277  56.5255203  33.2157402  75.4696732
  56.4059219  34.1597366  75.5736160  56.1453934  33.0189934  74.6135025
  72.0181808  32.0159035  55.3013153  72.1011887  31.1660385  55.7338295
  71.0766220  32.1878510  55.2898140  15.4326534  61.1139908   4.3525901
  15.2875299  62.0488319   4.2068267  15.6022053  60.7590103   3.4799664
  53.1101303  58.7085533  38.0589600  52.7633743  59.5696106  37.8253403
  52.5729256  58.4268646  38.7994308  41.2595711  32.3520012   4.7668533
  41.9827576  32.7220154   5.2731352  40.8179131  33.1125488   4.3890491
   7.4337993  23.8071651  19.2477016   7.2101521  24.1273232  18.3737946
   6.7208505  23.2097626  19.4736366  55.0506783  15.4350185  45.7126122
  54.5001030  15.0518084  45.0297890  54.4872551  16.0794258  46.1410141
  53.0926971  22.8730698  76.3649673  52.8066483  22.9584484  77.2744293
  52.3187866  22.5562744  75.8992081  15.8316021  11.5445776  25.9889126
  15.4815845  10.6676817  25.8315144  15.8065701  11.6452141  26.9404793
  10.1808844  67.6771088  62.5952568  10.4792500  67.8073578  61.6951218
  10.5367785  68.4243774  63.0760498  56.6645508  43.0052795   4.1249661
  55.9652367  42.4057617   3.8646278  56.3176003  43.8762398   3.9318795
  21.6313839  47.6748505   9.9297209  20.8386383  48.0277252   9.5256596
  21.7460785  48.1941414  10.7255945  20.9262886  60.3590851   6.8757000
  21.5578442  59.6404724   6.9067597  20.2594376  60.1198692   7.5193772
  31.8406887   2.9906280  71.5656967  32.6987839   3.3692775  71.3745804
  31.2615776   3.3614686  70.8998566  21.4503498  67.1447754  53.8158722
  22.0965252  67.3345261  54.4960823  21.6368027  66.2434235  53.5531387
  71.8667450  22.1573715  77.5284958  71.7133102  21.4037743  76.9586029
  72.8166656  22.2748451  77.5196915  38.4244347  62.2133293  43.7564507
  39.0541077  62.3441391  44.4654160  38.7839775  61.4864960  43.2478523
  56.4660339  24.3674088   5.5465145  56.2772026  24.7560387   4.6923833
  57.0404587  25.0011101   5.9762707  23.7839184  13.8838530  70.9607697
  23.5285721  13.7322855  70.0507889  24.0994148  13.0332003  71.2658615
  59.3822136   1.3448330  37.6496582  60.0435028   1.8679765  37.1966133
  58.5903473   1.4510461  37.1225014  17.4749317  40.9872360  47.5310326
  16.8785286  41.7132683  47.7138176  17.0760822  40.2341080  47.9668655
  77.1243134  44.3573914  40.0619545  76.7177887  43.9088554  40.8034286
  76.8959885  43.8207359  39.3029404  28.6734085   2.9581637  21.7669621
  27.7287941   3.1108658  21.7420521  28.8597488   2.4779029  20.9602051
   3.2262902  58.7978058  12.2143688   3.3677225  59.0425224  13.1288862
   3.4460011  57.8668404  12.1788187  32.4815712  36.8330688  17.2933578
  32.0534019  36.8279533  18.1494427  31.8904915  37.3358498  16.7329388
  83.0325012  61.4569931  12.0758972  83.8865433  61.4600716  11.6436567
  82.5665283  60.7203445  11.6803608  36.7477036  56.7057304   9.8553629
  37.4378014  57.1652870   9.3770247  36.5706444  57.2621841  10.6138096
  38.1558914   1.1537198  30.5295010  37.7689629   1.9844472  30.2530766
  39.0562668   1.1896688  30.2066059  56.4793739  30.6386089  56.4850616
  55.7858009  30.2807674  55.9308586  57.2571449  30.6359005  55.9271240
  49.4396095  45.2363129  71.3116226  49.6805038  44.3101196  71.2924805
  48.5242882  45.2515564  71.0320053  41.3111115  31.3922005  12.4512320
  41.4069519  31.2934837  13.3984909  42.1866074  31.2233925  12.1030321
  73.8205795  69.2488861  76.0119476  74.4754410  69.0548172  75.3413391
  73.2364655  68.4906235  76.0028534  40.1020584   7.5286918  34.7080345
  39.6006660   6.8304739  34.2869339  40.6720009   7.8648968  34.0163956
  71.1780777  69.7245789  19.9867401  70.6544037  69.9314804  20.7608128
  71.5860443  68.8832169  20.1914444  23.8523884  48.8045731  75.7201080
  23.1240025  49.3850021  75.4992218  24.1784191  49.1369896  76.5564270
  78.7226562  61.3485756  12.1509628  78.6331482  60.3984604  12.2251463
  78.6199341  61.6695023  13.0468903  26.2611103  62.2421455  26.6482525
  26.6076450  62.6625214  27.4352913  26.4744320  62.8486290  25.9390965
  82.6427460  66.9348297  33.7750435  82.4367905  67.5506439  34.4783134
  83.5056992  67.2073364  33.4631500  77.4740906  70.3619461  67.5425491
  76.6548004  69.8929596  67.3842850  78.1374588  69.8469162  67.0832825
   9.3071175  66.4030991  64.9770432   9.6024237  66.7687149  64.1431656
   9.0041733  65.5218430  64.7583008  23.3531799  26.4401207  80.1549072
  23.7620258  27.1349144  80.6709900  23.4972630  26.7010117  79.2452927
   3.7730620  45.4189720  65.6531143   3.8433042  46.3661461  65.5341187
   4.4278955  45.0536194  65.0581818  81.1157761  65.5630493  77.0054703
  81.4543991  66.4004593  77.3222046  81.3755417  65.5325012  76.0847015
  80.9348221  71.3367920  54.2541695  80.3421326  71.0189438  53.5730476
  81.3747787  70.5496597  54.5752449  66.3568649  37.0969658  54.1143875
  66.6254578  36.5391312  53.3843803  66.7583084  37.9456139  53.9276581
  59.2347412  23.8974876  49.3274040  59.7355232  24.7016773  49.1905518
  59.8989677  23.2143860  49.4191093  46.7374458  57.6974449  62.1742859
  47.6654510  57.8995781  62.0552063  46.6056786  57.7264442  63.1219292
  48.2046547  60.4839134  83.9123764  48.8691292  60.0688667  84.4623260
  48.7054443  60.9804115  83.2651215   5.3679461  66.1871490  35.2902145
   6.1058879  66.7115707  35.6011238   4.7030702  66.8307495  35.0453491
  84.1583481  -0.0594323   8.4761219  84.9505081  -0.0303904   9.0126572
  83.5514679   0.5385078   8.9124708  73.6380997   1.1158518  83.7812729
  73.0310745   0.3758384  83.7696533  74.3751907   0.8295004  83.2418976
  48.4174500  40.6958580  37.2583809  48.8643684  40.3480034  36.4866982
  49.0997963  40.7466621  37.9277534  43.9501266  21.7793274  74.9246368
  44.1845207  22.4369221  75.5795135  43.1407394  22.1084652  74.5337524
   9.0342531  70.7484207  45.0820351   9.3038998  71.1495132  44.2558098
   9.2683506  71.3936920  45.7491608  32.0368080   2.7248316  31.6102848
  31.2929211   2.9573457  31.0545883  31.9937477   3.3435435  32.3393745
  63.4945793  23.5273266  29.0127888  64.3568573  23.8915005  28.8125610
  63.0710068  24.1963768  29.5505505  77.6388016  62.9836807  52.9857559
  76.7750931  62.6149940  52.8005409  78.1444550  62.8209610  52.1894684
  68.6704254  63.5764465  78.3148346  69.2349625  64.0931473  78.8897629
  68.0952988  63.0973206  78.9113998  50.4569702  19.5754757  69.2965775
  49.8882790  19.4673119  70.0588913  50.9405441  18.7513714  69.2396545
  83.3486633  21.6681747  28.7567043  82.6348267  21.5809155  29.3884182
  83.2494431  20.9127293  28.1773186  69.2972870  61.0990753  25.0792408
  70.0802612  61.6400909  25.1815968  69.5809097  60.2184143  25.3246422
  29.1323090  61.7406769  63.7119408  29.4173622  60.8281593  63.7597466
  29.4708633  62.0537300  62.8731270  79.9851303  66.2856522  63.1704102
  80.8634109  66.0225754  63.4454384  80.1301727  67.0278091  62.5835571
  53.2827454  38.6253738  66.5746613  53.4362183  39.2285309  65.8474197
  52.5674896  38.0647850  66.2740250  12.5156612  58.7139664  54.8575516
  11.9321814  59.3513794  54.4458580  13.3909626  59.0861969  54.7501984
  36.3885841   4.4702344  20.1817970  36.4216423   4.8009238  21.0794506
  37.0801468   3.8094993  20.1443386  47.6923485  58.3829689   4.0751748
  46.7533531  58.5682182   4.0894084  47.7610855  57.5261726   3.6539760
  10.7334890  34.0259781  15.1014824  10.4120741  33.2369537  14.6651754
  11.6086664  34.1609879  14.7380695  13.5669031   2.1682036  21.7785492
  14.3243856   2.6897099  22.0440369  12.8366737   2.7870560  21.7828426
  31.5653286  20.3091106  87.1286011  31.2133904  21.1973534  87.0703354
  32.5130043  20.4303417  87.1873169   0.3087304  51.8032646  61.9323730
  -0.2786417  51.0625954  62.0828247   1.0112872  51.6855164  62.5717354
  78.4138336  24.0735912  31.1520424  78.7561188  23.3792286  31.7150116
  79.1348114  24.2757187  30.5557537   3.9374118  21.0234222  15.4449120
   4.2804580  20.3929863  14.8115873   3.2930193  21.5314941  14.9521112
  28.9572582  48.3838196   0.5553867  29.2663040  49.2257652   0.8898247
  29.7386532  47.8311996   0.5390241   0.3369733  37.4380913  56.5347099
   0.6553314  36.7554207  57.1253395  -0.6025391  37.2709541  56.4597778
  13.1378756  10.7031250   8.6416826  13.1808348  11.5903397   8.9983864
  13.8881321  10.2525225   9.0293722  76.0543594  28.7252388  89.4055710
  76.3813553  28.3396587  88.5927811  75.1018295  28.7077293  89.3127289
   6.4333310  63.8030281  23.5286789   6.8521914  63.5072975  22.7203884
   5.6801906  64.3153915  23.2345753  12.4481831  67.0572510  47.9281044
  13.4035759  67.0096741  47.8935661  12.1701250  66.1597061  48.1106720
  68.9076614  19.8772068  43.6591187  68.0519104  20.3060455  43.6548157
  69.1766510  19.8885708  44.5776749  69.0617371  43.5074272  23.7451248
  69.4282837  42.9704590  24.4476471  69.6698151  44.2420959  23.6630554
   9.3343658  17.7429047  19.0321617  10.0216866  18.0243702  18.4283409
   9.2331867  18.4765110  19.6386395  42.4392319  62.0135460  51.4333344
  41.5204544  62.1506920  51.6641388  42.8930321  61.9659271  52.2747765
   2.3819156  68.1094055  46.4322586   2.1192446  67.3361206  46.9315262
   3.1694779  68.4246368  46.8756599  45.9805145  64.2018585   6.5826197
  46.8460579  64.5156708   6.8445144  46.1165886  63.2805595   6.3614368
  75.7657394  39.3624649  13.7585220  75.8807602  39.6987228  12.8697414
  76.4398422  39.8075142  14.2720900   5.7009740   7.5944033  12.4074659
   5.8530140   6.7798662  11.9282532   4.8669095   7.4561219  12.8562956
  32.3288841  59.4246712  74.0913696  32.2143478  60.0384216  74.8169250
  33.0775719  59.7676506  73.6034470  78.3402557  66.8107071  65.5542374
  77.9610977  66.1209946  66.0989990  78.6064835  66.3626251  64.7513809
   6.0041265  58.4864845  41.7656479   5.9309902  58.3504486  40.8209877
   5.1123333  58.6892395  42.0481834  84.9441681  64.0788574  24.2453728
  84.6105957  64.3912125  25.0864410  84.3014221  64.3833847  23.6047745
  70.5425262  15.7017632  74.0959091  71.2887802  15.1100903  74.1921234
  70.0907669  15.6564856  74.9385834  19.7055378  45.2558136  77.1532516
  19.5533676  45.7195702  76.3298416  19.9259472  45.9454689  77.7793732
  10.4553089  27.9194641   5.1817579  10.8907080  27.7777367   4.3411789
   9.5496035  27.6489162   5.0309820   7.4932766  43.6258621  51.9399261
   8.3464670  43.2268944  52.1105804   6.8598623  42.9553108  52.1956177
  20.4518242  12.1777706  84.1645355  20.6613693  13.1109123  84.2041397
  19.5538311  12.1477423  83.8344803   1.4306020  13.4163504  75.8406525
   0.7897960  13.1711531  76.5080948   2.1262217  12.7643166  75.9254837
  58.3746223  46.8192406  54.1637039  57.8248405  46.9697800  54.9326706
  58.1668663  45.9252167  53.8920517  23.2463627   6.3122234  63.0354080
  23.7691517   5.5384369  63.2455940  22.6254025   6.3858299  63.7601280
  75.7135468  15.8585796  82.1717987  76.4158630  16.4384079  82.4663849
  76.0949326  14.9815016  82.2106247  87.0425644  21.8854656   4.6946068
  86.2521210  21.3659134   4.5479875  86.8885040  22.3251400   5.5307798
  86.7849960  61.6208687  41.4272766  85.9949875  61.2489662  41.0350990
  87.4448853  60.9337654  41.3341599  37.8423882  40.1332321  52.4912376
  37.3722229  40.3923149  51.6987419  38.5056114  40.8132401  52.6093674
   3.2554698  44.0924072  30.1173477   3.6730556  43.7892532  29.3111515
   3.9424884  44.0302429  30.7809525  51.9153061  55.3840408  84.6208115
  51.4311180  56.0913811  85.0467987  51.2675705  54.9517326  84.0642319
  21.3229790  67.9865036  84.9535675  21.2544403  67.2887726  85.6052628
  22.0889339  67.7508926  84.4300842  74.6544571  43.3811417  21.8092346
  74.5604019  43.4007874  20.8568687  74.6001816  44.2993164  22.0742645
  64.3435211  15.5470428   6.1025257  64.4877472  15.6863813   7.0384817
  64.0721359  14.6315556   6.0356884  75.4441452  29.8751926  50.2309990
  75.2049179  28.9990025  49.9288521  76.1723709  30.1329327  49.6657639
  70.1628265   3.2863507  53.6904716  69.7400589   2.6936390  54.3119164
  69.5031281   3.9565566  53.5119858  29.4501076  45.6721230   2.2273235
  30.1508446  46.2032776   2.6055794  29.2231789  45.0485840   2.9172032
   2.5785604  26.5200672  47.8676682   2.5888145  27.4720383  47.7682915
   2.3431327  26.1912117  47.0001068  13.0676699  19.3366261   9.9841290
  13.2929354  19.6155796   9.0966196  13.8604975  19.4999104  10.4950047
  26.3665600   2.3076599  55.3954010  26.6162949   1.7258251  56.1132660
  26.8156509   3.1309493  55.5870857  17.1761951  23.8043442   5.0299249
  17.8875599  24.3918972   4.7750301  16.5910473  24.3503799   5.5549750
  86.5223312   5.8959475  29.1860428  87.2264786   6.2002521  28.6135006
  85.7197723   6.1935287  28.7575912  43.5182533  46.6550179  41.8845749
  43.4008980  46.5512810  42.8288727  43.3582268  45.7820625  41.5260048
  46.5103836  59.5567322  50.4986954  45.6226616  59.2004204  50.5336456
  46.5210609  60.0959892  49.7079239  62.4708710  30.8128605  79.3541183
  62.3881760  30.4622879  80.2409592  62.3869553  30.0476093  78.7852707
  54.2827606   2.3733635  13.0582094  55.1815414   2.2352650  12.7592907
  53.8057671   2.6343002  12.2704134  47.2537155  45.8492241  31.3513508
  46.6346970  46.0241852  30.6425247  46.8515892  45.1383171  31.8504887
  38.5861855  33.9005051  86.9054871  39.3025322  33.5646896  86.3666840
  38.5968094  33.3498077  87.6883316  61.3779144  61.9377518  39.1972313
  61.6995583  61.9994812  38.2978058  60.6401711  62.5467567  39.2301025
  31.5488510  52.8640709  61.0947304  31.8516560  52.8598175  62.0027618
  31.2263222  51.9752655  60.9456406  14.1334934   9.7772083  23.5547810
  14.3428802  10.5086432  22.9739265  14.1308966   9.0099859  22.9824238
   9.4722204  50.2235832  73.7531967   8.9153385  50.7753143  74.3024750
   8.9920359  50.1439285  72.9289932  45.7619553  60.0636940  45.3438454
  45.0760345  59.8288765  44.7188644  45.3016853  60.5335121  46.0393028
  65.3259888  60.0636673  87.5608368  64.8956451  59.5427856  88.2388611
  66.1028290  60.4214630  87.9906464  18.7352142  35.3164139  10.6863937
  17.9573956  34.8967323  10.3188400  19.3142433  35.4471779   9.9354887
  13.7735100  64.7383728  71.3888397  13.4075136  63.8798523  71.6014938
  14.0415068  64.6642990  70.4729156  56.2436638  59.2036781  23.6069489
  55.5377121  59.6962814  23.1883736  55.8414803  58.8269348  24.3896008
  79.1482391  41.5196075  39.3050842  79.1244583  41.7591095  40.2315331
  79.5496597  42.2735443  38.8730240  49.3352051  66.7464676  74.8118591
  50.0476799  67.3265533  74.5433273  48.8014030  67.2796021  75.4009781
  25.4058838  61.3326111   2.5047491  25.7554131  60.7744522   1.8101121
  24.5701389  60.9288406   2.7386992   1.4420562  17.7487164  40.2828674
   0.7703250  17.9555283  40.9326668   1.2673385  16.8398209  40.0387077
  28.2149620  54.6312447  79.2865906  27.8922005  53.7527008  79.4871368
  27.9272652  55.1666832  80.0260315  83.9535065   3.2096586  13.3228664
  84.4281693   2.7022324  13.9812298  84.4174042   4.0460696  13.2848310
  60.4841118  55.6082535  89.1847076  59.6490707  55.8831902  88.8060913
  60.4049530  54.6586380  89.2752380  60.0622597  57.2940445   2.3550246
  60.4464989  56.8561287   1.5955355  60.3942299  56.8040886   3.1073375
  34.3136063  16.9039707   0.5985398  35.1187286  16.4122829   0.4365012
  33.6113510  16.2752552   0.4318550  79.4068680  31.1887455  16.5007191
  79.2348862  30.9721909  17.4171028  78.7839355  30.6549664  16.0074921
  13.8574209  11.3389244  49.5343018  14.7635555  11.2946091  49.2290344
  13.6778774  10.4643126  49.8793373  50.6867599  17.2465992  76.5862427
  50.1060677  16.9190292  75.8994217  51.3951569  16.6041794  76.6275024
  61.3814011  40.0927162  16.1161919  60.9953804  40.3636780  15.2832460
  61.7722282  39.2384796  15.9324217   4.3246078  55.3685493  28.3650379
   5.0157571  54.8200150  27.9940186   4.7279768  55.7764664  29.1312809
  80.7698822  43.6357880  54.4741592  80.1542282  43.0573578  54.0240211
  80.8184128  44.4133072  53.9179764  16.7851315  69.0763550  75.2796402
  17.2059574  69.8473434  75.6600571  17.1255531  68.3414612  75.7898102
  43.9457512  30.6400661  80.2036972  43.6515312  31.4612789  79.8096466
  43.1711922  30.0777893  80.1920319  47.0542336  22.2019291  67.4219437
  47.6082573  22.6529789  68.0589981  47.2512093  21.2737293  67.5479507
  67.5234222  36.8959351  10.2116671  66.8255157  37.5292587  10.0441418
  67.6573715  36.4590683   9.3705740  35.6883965   4.0736527  13.6596508
  36.0653877   4.9295640  13.4558754  36.1144943   3.8124793  14.4760208
  83.2644272  27.1751156  42.6555634  82.8146896  26.4693260  42.1909866
  83.8992233  26.7273312  43.2148056  42.9154434  33.6985321  75.7638016
  43.8417397  33.9038277  75.6370621  42.6503906  34.2377510  76.5089340
  10.7775011  16.2809982  68.6492462  10.8296509  15.4520254  68.1735229
  11.1239681  16.0803947  69.5187073  38.7710953  27.1875210   4.0671148
  38.9505234  27.5721416   4.9250803  38.4463806  27.9178448   3.5404096
  53.1735611  58.0726738  23.4840946  52.9573135  57.1409187  23.5201893
  53.4153252  58.2974205  24.3825779  67.9898605  70.5465393  56.3598938
  68.4337234  69.7368088  56.6119919  67.8116913  70.9901810  57.1891518
  19.7332115   6.7984734   1.9242662  18.9450722   7.1950078   1.5530107
  20.3050175   7.5405917   2.1205568  51.0832558  65.3867950  55.3938332
  51.2095490  64.4422073  55.4834595  51.9443398  65.7207794  55.1424026
  16.2611027   3.5147548  11.8922958  16.5022736   4.4381557  11.9657755
  16.6559505   3.1022217  12.6605043  72.1603241  25.4370670  88.0422440
  71.8883820  25.4244118  88.9599152  72.2310867  24.5135651  87.8006439
  80.7701340  51.3599548  15.5737190  81.0216599  50.7988777  16.3073120
  80.9464188  50.8306351  14.7959175  26.4273529  51.3764420  35.3157234
  26.1266460  52.1329765  35.8191719  25.9005795  51.3957176  34.5167389
  69.8164215  42.9526711   8.2237921  69.6830368  42.4712791   7.4072757
  69.6099319  42.3196907   8.9114904  12.2283897  63.7418327   9.9342594
  11.3188457  63.7970238   9.6411467  12.5485592  62.9175949   9.5677195
  55.6219978  32.3347664  15.1162701  55.5451736  32.0917549  14.1936235
  54.7617149  32.6876793  15.3434305  15.6776447  70.8887482  18.3843193
  15.4698238  71.6653671  18.9038391  15.6514111  70.1666031  19.0120525
  82.2905655   4.6514773  35.5862732  82.8595963   4.8599439  34.8453407
  81.5406265   5.2375636  35.4846535  77.7442474  32.7860146  46.4215393
  77.8308029  33.7340164  46.5216980  77.2292557  32.5110550  47.1800995
  46.3723831  10.2190399  81.0128174  46.3116989   9.3015471  80.7468109
  45.7156487  10.3122787  81.7029190   2.3105025  17.8142853  20.8582230
   3.2471392  17.9197483  20.6914272   2.0450630  17.0938339  20.2866268
  30.5723915   9.7741356  65.3222046  30.3477154   9.3992519  66.1737976
  31.1073608   9.1028538  64.8986282  80.4166794  26.3613892  37.3918686
  79.4748535  26.2533894  37.5242424  80.6350098  27.1629658  37.8673019
  69.4720459   6.4086280  59.2587357  68.9292221   5.7692885  59.7200584
  69.6562347   7.0827904  59.9128075  20.3279552  29.5997372   3.3279235
  21.2200241  29.7649879   3.0227399  19.7788906  30.1560955   2.7754512
  57.8352814  54.1295319  12.3660421  58.1224403  54.9626465  12.7398005
  57.0018730  54.3322449  11.9411058   8.6473827  21.7333794  54.6320801
   9.2244081  21.9114437  55.3747559   9.0835695  22.1446648  53.8858757
  82.0055695  11.1618652  52.3811760  81.5963593  10.3205595  52.5836143
  82.6358719  10.9613028  51.6892738  30.0921955  66.9438934  14.5260410
  29.5650539  66.9335022  13.7271385  30.7105675  66.2218246  14.4143801
   6.8915091  39.2273560  85.6621933   6.6648598  39.1415024  86.5882034
   6.4209561  40.0087204  85.3718872  73.2148972  46.5594368  73.0214539
  74.0618668  46.5260048  72.5767593  72.6463928  47.0381432  72.4182358
  59.6351471  69.4665604  10.3834772  59.3637962  69.1925735   9.5073862
  60.4530029  69.9435501  10.2426796  23.5097809   5.1847482  55.4277992
  23.5460014   4.6971087  56.2506752  23.0349922   5.9868946  55.6454430
  23.3967533  20.7741985  77.1492691  23.5627613  21.7009869  77.3217163
  24.2679176  20.3838787  77.0788879   6.7488804  44.0435333  83.0931244
   7.1878452  43.8936043  83.9304199   7.1555228  43.4174728  82.4940186
   6.8897772  46.1757317  52.1029434   6.7643509  45.2267876  52.1053734
   7.7967353  46.2981682  52.3834229   3.2913418  57.4371376  84.0114899
   2.3490493  57.6004715  83.9710083   3.6828659  58.1773186  83.5477295
  30.1261444  68.4984283  36.0158272  30.9326954  68.3668365  36.5142174
  30.4048042  68.9656067  35.2282181   9.0160971  15.2807465   0.9965696
   8.5201731  15.2675123   1.8151760   8.5158863  14.7191877   0.4043936
  60.3157654   2.8792305  41.5017319  60.0605049   2.0967057  41.9903297
  59.8632240   2.7957597  40.6624069  54.0049629  18.8251400   7.3079233
  53.6719131  18.1903534   6.6736083  53.2851295  19.4446716   7.4273124
  35.0549355   1.0854145   0.8332033  34.3251686   1.3092397   1.4107583
  34.6567230   0.5669793   0.1340024  60.1492195  70.3157425  59.8460732
  59.6093216  70.2223587  59.0611992  61.0064240  69.9761810  59.5889206
  45.6669121  33.2011032  66.1777039  44.8344498  33.2858124  65.7128830
  46.0701523  34.0662918  66.1064224  18.7354832  44.8902588   9.1854153
  18.0180721  44.3977242   8.7867107  19.0368443  45.4777603   8.4924107
  33.1455841  50.3839264  73.6526337  32.2170334  50.4063034  73.8839874
  33.2532196  51.0982018  73.0245743  76.4638977   6.6060429  20.7246284
  77.3874512   6.5468445  20.9691048  75.9937210   6.2427702  21.4750938
  74.4871368  68.6175385  44.5529823  75.3745041  68.6846161  44.9055519
  74.2129593  67.7247391  44.7626495  80.6107941  50.5784073  34.7781982
  81.1211395  50.5510063  35.5875397  79.9238586  49.9241638  34.9059410
  69.4551620  63.8723488  21.6516342  68.9459076  64.6093445  21.9888592
  68.9979248  63.6110611  20.8523254   5.2663803  60.6997223  81.3370361
   5.2494664  61.0746841  82.2175751   4.8891320  61.3803062  80.7796097
   1.0295688   6.3666296  79.6978073   0.9841202   5.6422153  80.3218155
   0.3023159   6.9390841  79.9420013  32.1274490   4.0219560  67.6872330
  32.8481598   4.4483294  68.1509247  32.4639320   3.1528301  67.4689941
  39.7798271  53.7354736  34.8706322  40.4878616  54.3792305  34.8483810
  39.8383102  53.3451614  35.7426796  86.5293274  11.5079517  51.5578651
  86.2987671  10.6674633  51.1620712  86.3018951  12.1567440  50.8918533
  82.0974655  21.1280861  47.6555786  81.1655045  21.1304016  47.8739395
  82.2289505  21.9353352  47.1582909  59.0098228  12.4490271  65.7454834
  59.0723457  13.2970495  66.1850052  59.0483398  12.6594048  64.8124847
  83.9659348  51.8754005  32.9361725  84.7197037  52.3394928  32.5719070
  84.1425095  51.8322487  33.8759537  40.2251015  68.6693954  10.7431259
  40.7864037  69.1665878  10.1481695  39.3339882  68.8878326  10.4703045
  73.6631546  71.9769135  12.7965288  73.0159760  71.5374069  13.3480921
  74.0793457  71.2688293  12.3049726   4.0265627  18.4562092  40.0654716
   4.2043238  19.3765697  39.8716507   3.1018448  18.3397789  39.8473625
  86.8197250  68.3197479  85.3522339  86.3024597  68.1911621  86.1473007
  87.3228302  69.1165848  85.5200729  73.5824890  53.3508530  61.4797363
  73.3343353  54.2686806  61.3690758  72.8518677  52.9614449  61.9601326
  18.0813274  13.7007637  78.4274902  18.7271690  13.1725006  77.9583817
  17.3348808  13.1140566  78.5492325  54.4881287  17.2298756  12.4711847
  54.2745552  17.7885647  13.2185030  54.4490662  17.8157578  11.7152424
  51.3588181  26.9761353  58.8630104  51.2231636  26.0288639  58.8405418
  52.2322235  27.1018772  58.4920921  75.7531128  21.4980793  19.1576881
  75.7932739  20.5563221  19.3241634  74.8320389  21.6672268  18.9595985
  71.6369095  47.1832008  75.3898468  72.3657913  46.8869591  74.8446732
  70.8583221  47.0225716  74.8567123  38.8650208  30.9421749  69.8208466
  38.8605843  29.9852295  69.7992172  39.5126915  31.1936321  69.1624222
  40.5538368   2.6825979   4.6069856  40.0500259   2.4435263   3.8290086
  40.1807327   2.1477311   5.3076587  26.2135811   4.9677391  71.4875488
  26.8041630   4.8870916  72.2365036  26.7874413   5.1819286  70.7519913
  56.2338257  62.6343880  41.0114479  55.9195518  62.0263557  41.6805992
  56.7678223  63.2658691  41.4934349  56.9563255  60.3657875  51.2403450
  56.7983704  60.7050323  50.3593254  57.0031853  59.4165192  51.1266403
  13.9370890   7.7045527  13.8646879  14.8323393   7.9468956  13.6279831
  13.6342306   8.4215431  14.4218540  25.2720776  42.8872490  53.0740623
  24.7013111  43.3731270  53.6693611  24.6724148  42.4623260  52.4608116
  32.7731400   6.9508066  12.1022644  33.5942421   7.0155773  11.6145887
  32.1529274   6.5740309  11.4780779  57.6210518   3.8942974  27.0621166
  57.5065956   4.8434010  27.1104221  56.7321701   3.5429244  27.1136761
  39.0676651   2.9277813  77.0496368  38.8753090   3.4056146  77.8564301
  38.9099960   3.5633347  76.3514709  73.6938934   6.1381316   1.0925798
  73.6484680   5.7251897   1.9549298  74.6307983   6.2381907   0.9239884
  63.6062622  12.2467947  44.2280655  63.5491257  11.2951794  44.1420670
  62.7506256  12.5083427  44.5682373  79.2375793  67.2991028  55.5678101
  80.1936798  67.3045044  55.6134644  79.0213699  68.0291672  54.9877319
   6.9785452   8.8744659  29.0727634   7.0767555   8.3332052  29.8561058
   6.1012058   8.6702862  28.7490082  73.8651047  20.1993008  66.6023331
  73.8506470  19.5622768  65.8880386  74.2574081  20.9826565  66.2167435
   6.0420427  40.6482925  82.6188736   6.3415012  40.8573189  83.5036697
   6.5118904  39.8463020  82.3902054  17.2192974   2.9015379   6.2639356
  17.4293385   3.5564432   5.5981922  17.0148144   3.4129033   7.0468302
  83.0281830  45.7652473  60.6437950  83.0407104  44.8688774  60.3082352
  82.5544739  45.7038651  61.4732895  16.6369743  50.1555443   8.8944168
  16.7231007  50.9865646   8.4272766  15.7558260  49.8499107   8.6790228
  80.6747665  24.8099575   8.9008913  80.7353897  24.1089954   9.5498972
  79.7347946  24.9510860   8.7878752  71.4560242  35.9908104  11.4361944
  71.5625000  36.4239349  12.2831287  70.8324280  35.2845306  11.6050911
  61.9254799  68.7435455  12.6999588  61.3180389  69.2108307  12.1264687
  62.7022133  68.5993195  12.1594839  23.2572403  13.3887672  13.3777761
  23.1914654  13.3660612  12.4231091  23.6079254  14.2577333  13.5730944
  48.6325150  52.7229881  47.0456696  48.5815353  53.2219658  47.8609352
  48.0181923  51.9993553  47.1689377  60.1509514  23.5236130  73.6613235
  60.0683365  23.4937115  74.6144791  59.4475212  22.9583607  73.3420944
  63.3218384   4.8303394  62.4938927  63.6264458   4.2025156  63.1490936
  62.8947144   5.5193911  63.0028191  75.9626389  63.8819122   3.4045401
  76.7156982  63.3359604   3.6305108  75.2022018  63.3393059   3.6132228
  82.1737900  67.9481049  30.8451824  82.7631378  68.3079071  31.5080910
  82.5817871  67.1222687  30.5848618  61.5977516  68.4033661  49.2921944
  62.0474548  69.2405319  49.4068375  61.5293922  68.2961502  48.3434753
  63.6452179  45.9306488  53.8416176  64.5360336  46.1432495  53.5632668
  63.7082672  45.8319130  54.7916222  45.2930641  11.0742178   6.4848323
  45.5132751  10.3228998   7.0355225  45.9455414  11.0574131   5.7846737
  74.6628799  66.1876831  73.2209244  75.4730377  66.2717896  72.7181244
  74.4539490  65.2542953  73.1841049  81.4455261  14.6817198   6.9488163
  81.1448441  15.1868858   7.7042160  80.6442719  14.3270044   6.5635948
   8.3947582  44.3226776  85.3325195   8.2572050  45.2294502  85.6065140
   9.0670033  43.9918213  85.9282150  24.1417637  68.3217850  18.1219978
  24.4781208  67.8751831  18.8989429  23.4153404  67.7731857  17.8260593
  27.7357101  60.2120514  56.5523148  27.0248756  60.0825500  57.1801491
  27.4248409  59.7944832  55.7490540  50.3549500  50.7038765  89.1690292
  49.7038727  51.0746613  88.5733337  51.1967010  50.9135704  88.7644043
  46.6994019  60.2323532  73.3514328  47.5021133  60.1791496  73.8701401
  46.9948311  60.1546097  72.4442902  83.6805115   8.4462614  37.5128136
  83.7332764   7.5206537  37.7509308  84.3425217   8.5560875  36.8302345
   1.6758670  71.2696533  20.0343094   0.9768156  71.8177490  20.3908863
   1.3230255  70.9386902  19.2083549  71.0897675  39.8294640  25.5504303
  71.3450546  39.2129288  26.2366829  71.5340958  40.6446419  25.7834244
  61.7687721  71.1022263  26.3640823  61.2103195  71.8796234  26.3609104
  61.8472900  70.8674927  27.2887268  10.9060411  70.9232712  88.9179840
  10.6656237  71.0873413  89.8298569  11.0669088  71.7931824  88.5524597
  54.9181213  64.2659683  33.0183563  55.0761604  64.8753052  33.7394409
  55.5559654  63.5650597  33.1529083  32.2151031  18.7207165  78.7610245
  31.9679832  19.6289558  78.9349899  32.9244804  18.7838097  78.1214600
  83.6938095  55.7746391  44.8636703  84.1443863  55.2096596  44.2359695
  83.4544678  55.1903076  45.5830460  34.3492928  69.2736588  61.6587639
  34.5813522  69.6371765  62.5132980  33.4604225  68.9379349  61.7746811
  28.4156246  11.4477777  42.5481567  29.0458374  11.2575979  43.2430611
  27.9509430  12.2271376  42.8529549  74.8361206  67.0209045  86.0376434
  74.4301910  67.8516922  86.2851257  74.2251282  66.3534470  86.3497620
  21.7945747  70.1377182  54.8374596  22.3890972  70.7165680  54.3602715
  21.3209057  69.6643295  54.1535187  46.2334976  26.2083149  21.2350674
  45.6858788  25.7260532  21.8545609  45.6537170  26.3928413  20.4961262
  50.9449806  20.1521873   8.2593527  51.2350082  20.9529190   7.8223810
  50.4815407  20.4590111   9.0386572  60.2498894   0.5379200  28.9693031
  59.9129257   0.7877840  28.1089230  60.6182365   1.3461076  29.3262119
   7.7384381   5.6339006  25.0400562   7.1087356   5.2050357  25.6195240
   7.3438287   5.5724907  24.1701469  52.7184486  19.2309570  80.5806885
  52.3961067  19.3705559  79.6902695  53.1166534  20.0664120  80.8249893
  63.2000160  43.9255791   5.0800204  63.1430626  44.5226097   5.8260393
  62.5064507  43.2839279   5.2332644   1.5055053  34.9215355  26.0349407
   1.8008407  34.0276413  25.8618507   1.4206679  34.9655571  26.9873581
  30.5722408  22.2455025  13.5324612  30.6172256  22.6486740  14.3994446
  31.4122467  21.7975273  13.4327621   9.8224764  56.1007996  59.3786774
   9.8820677  56.0329895  58.4257469  10.6928501  55.8538742  59.6912613
  14.9433632  27.1735382  65.6591492  14.6520958  27.2687283  64.7523193
  15.3216038  28.0246964  65.8798218  86.8257294  24.1185360  65.2813644
  86.7142334  24.6540470  64.4958496  85.9332886  23.9118843  65.5590134
  57.7921524  55.7282486  27.7573528  58.1138573  56.3991432  27.1551571
  58.4831123  55.0659332  27.7693119  67.9641495  54.7444992  30.1307354
  67.5981903  53.8624001  30.1956120  68.9019318  54.6264687  30.2819347
  14.8876181   1.7437785  79.0290375  14.3113489   1.1730270  78.5207214
  14.7970171   2.6033113  78.6176682  75.0197830  31.6328526   3.4865038
  75.0935974  32.2006645   2.7194498  75.6319351  30.9173336   3.3146296
   0.7197569  42.2193260  21.8145447  -0.1711533  41.9690666  22.0592480
   1.0878638  42.6031685  22.6104050   6.4810796  28.4432640  50.4193344
   7.0526123  29.1658421  50.1595955   5.6692514  28.5940666  49.9351578
  10.6179543  58.9019508  59.4831619  11.5070982  58.6414566  59.7235756
  10.2471266  58.1269035  59.0612373   1.6856949  25.9883385   9.4882307
   1.3804013  26.0001183  10.3953629   0.8848051  25.9358673   8.9666424
  39.9363556  47.7783813  30.4700108  39.6890869  48.5958290  30.0377235
  40.7198296  47.4879684  30.0030384  84.1538315  19.9826088  36.7914162
  84.4078903  19.3191795  36.1498985  83.6560135  19.4996548  37.4510880
  41.0058784  70.8746872  79.2773056  41.2661934  71.2433472  80.1214371
  41.2768860  71.5310669  78.6354752  23.1237736  44.5046349   1.8685427
  23.0096970  44.2004433   2.7689245  22.5353565  43.9530602   1.3530194
  39.4977455  59.2259636  30.5148849  38.9203186  59.3149567  31.2730999
  38.9102554  59.0113487  29.7902966  70.0724106   3.0451591  27.2467709
  69.9074402   3.7776754  27.8404331  69.3479843   3.0754852  26.6218567
  72.5700455   8.2695971  66.4727554  72.7130280   7.3590398  66.7309723
  71.7078934   8.4865932  66.8274918  22.6956673   3.9708846  18.7500916
  22.6056557   4.6280174  18.0599422  22.4911575   4.4422011  19.5577240
  58.1245651  32.8841667  59.0124130  57.1752472  32.7741814  59.0665207
  58.2718430  33.2733345  58.1503868  45.2017365   0.9755574  12.0235720
  44.2916603   0.9081896  12.3124523  45.6053886   0.1564601  12.3105860
  67.6926498  46.1869659  60.1748428  67.4246521  45.9054489  61.0495758
  67.3977280  47.0956230  60.1148300  64.0820389  57.2701035  30.2028084
  64.7949524  56.9340935  30.7460308  63.9731140  56.6117859  29.5165234
  35.8242950  31.0992546  84.9538422  35.1229744  30.6033421  84.5314102
  36.3234138  31.4739304  84.2280807  67.9139862  69.2012482  20.4881134
  67.2373962  68.8654861  21.0760937  68.5948639  69.5350113  21.0722771
   1.5102862  44.2797203  19.2292938   1.8933511  43.8190613  18.4827766
   0.7497268  43.7516327  19.4720001  44.3817520  19.1906815  19.0119095
  44.8736801  19.8005104  19.5617714  45.0400505  18.8047714  18.4340248
  82.9444046  45.9806976   3.2092772  82.6070023  45.0877953   3.1377668
  82.1655807  46.5353546   3.1642864  56.1274185  13.8205357  20.0008678
  56.1577911  13.9755859  20.9449368  55.5784607  14.5265846  19.6597290
  83.8643341   9.2736759  21.3292942  84.1625900   8.5023708  21.8113346
  84.6023026   9.8819189  21.3703251  60.4641647  17.9758244  68.4947662
  60.9426384  18.7236691  68.8525696  59.9462051  17.6487503  69.2302704
  68.5997620  32.7430992  83.6562653  67.8969116  32.3758392  84.1923141
  69.3851776  32.2731171  83.9363937  66.8779678  20.0205994   6.6549597
  67.6885681  19.5123177   6.6264467  66.5631866  19.9192562   7.5532222
  19.5870037   3.6712456  17.3237534  19.8107967   4.2100816  18.0825710
  19.5836220   2.7747607  17.6592159  10.8501024   5.8091874   6.5571413
  11.2031116   4.9314909   6.4113126   9.9022360   5.6823349   6.5982418
  21.9470634   8.9759254  45.5133934  22.1724720   8.2156610  44.9772758
  20.9938278   8.9392176  45.5922928  65.1378708  46.6607132  10.6034861
  65.5347595  47.3073997  11.1870193  65.5675583  46.8034706   9.7601471
  -0.2728715  33.9596748  50.8670845   0.4856474  34.3316040  50.4170303
   0.1017231  33.3595505  51.5118790  39.5607719   6.3516755  25.7772484
  38.9185982   6.6598268  26.4166946  40.3801994   6.7712078  26.0394669
  16.3338966  69.2664185   4.9856973  16.0663795  68.5352249   4.4288979
  16.0838890  68.9981384   5.8698659  50.1749229  42.6742783  41.0605583
  50.2279167  41.7606926  41.3412437  49.3363686  42.7360420  40.6031265
   1.3449782  34.5106010  37.5441055   2.0746312  34.5744057  38.1603584
   1.4463636  33.6482086  37.1413269  80.1946259  31.6645241  45.7687225
  79.3649521  32.1233826  45.9003029  80.6151962  32.1322365  45.0471954
  12.5207558  36.4391174  85.8652496  12.5310440  37.3562317  86.1391678
  13.4350910  36.2386398  85.6651764  27.5304089  41.2567711  73.3953400
  27.4170437  42.0712280  72.9053955  28.4783955  41.1643257  73.4902496
  82.8652267   8.6025267  26.1378365  82.7256088   9.5476255  26.0784397
  82.0743561   8.2192802  25.7585278  57.9966049  56.7044334  13.4543018
  57.4576530  56.8819809  14.2251720  57.8439407  57.4530907  12.8777304
  59.3261223  33.9242363  64.3181686  60.1743202  34.3623085  64.2482834
  59.2746429  33.3756943  63.5354309  84.5043640  45.5801697  71.1926804
  85.0552521  44.8410950  70.9347687  84.9056702  45.9087448  71.9971848
  46.0493813  66.0549545  57.9036903  45.2740059  66.3198318  57.4088554
  46.5575409  66.8601761  58.0017776  54.5882416   2.4940913  80.2155685
  54.5364304   3.2655108  80.7798920  54.9621620   2.8206885  79.3971863
  37.8117409   2.8249867  83.8835449  37.0836143   2.9669187  84.4884567
  37.3947525   2.7094336  83.0297318  56.2220879  21.4689312  21.8662777
  55.5329285  20.8380756  21.6581669  57.0359344  21.0163441  21.6448021
  10.1811266  31.3707314  14.0112562  10.9332676  30.9849377  13.5621710
   9.5593777  31.5682182  13.3107862  71.0792923  67.8022232  16.0859756
  70.2362747  68.1356506  15.7787743  70.9111176  67.5168533  16.9840374
  72.8127060   0.5461202  21.7293892  73.6926346   0.1714679  21.7693520
  72.8085861   1.0623907  20.9233627  68.7895584   2.9565287  86.4765167
  68.9507980   3.2111173  85.5679932  68.5898132   3.7788603  86.9238510
  79.4298401  43.5712967  74.8865204  79.8087997  43.1189156  75.6401596
  79.2273254  42.8723946  74.2646255  73.2095795  55.4885559  10.6873274
  72.5119324  55.9474411  11.1552515  72.8561935  54.6131821  10.5289688
  26.4982967   0.4430206  76.9726639  25.6658897   0.3168467  77.4280853
  26.2627163   0.9000859  76.1653061  58.7839622  67.9365082  38.3340874
  58.0028572  68.3726273  37.9936485  59.4580650  68.6160736  38.3314056
  72.7078323  64.5316238  35.3949127  73.3746490  65.1897964  35.5908852
  73.0802383  64.0197906  34.6768761  55.5984039  14.8193378  79.2971954
  55.7853470  13.9116611  79.0575943  54.6432991  14.8799820  79.2791061
  83.7216873  49.2854004  79.4171448  84.4480362  49.8792763  79.6067734
  83.4099121  49.0058327  80.2778854  77.6904449  48.3421707  68.1951523
  77.4380341  49.2654915  68.1963196  78.6062546  48.3438721  68.4735641
   6.5007114  51.2890472  84.6226501   6.5576396  50.3855667  84.9336319
   6.0647039  51.7598152  85.3329391  75.0210495  62.1207619  52.8138580
  74.3858719  61.4289017  52.9985352  74.5034485  62.8214226  52.4171219
  80.1889114   6.9695330  29.9289837  79.3402100   7.0669184  29.4971733
  79.9934235   6.4953771  30.7371883   5.8578529  43.9155579  35.0028191
   5.5152669  43.6484146  34.1498833   5.5636916  44.8205414  35.1063118
  74.8901291  22.1350517  78.2997894  75.0684204  22.0456867  77.3636017
  75.7049866  21.8682804  78.7253189  84.6261520  38.0081253  70.9063187
  84.7484970  37.8364754  69.9726181  84.0684738  37.2920647  71.2104187
  46.1983833  25.2829208  59.3282509  45.7439423  25.1583157  60.1614342
  45.5128860  25.5609493  58.7207794  81.3741760  10.6175900  83.3018188
  82.3142090  10.4446373  83.3533859  81.1412201  10.4074078  82.3975067
  42.9135208  45.1808052  51.5800400  43.5377731  45.0355415  50.8690948
  42.1254501  45.5052414  51.1442451  62.2805138  28.1980019  60.0922165
  62.1743164  29.0624619  60.4892883  61.5547485  27.6822319  60.4436150
  18.8768559   7.6270590  21.1189060  18.7832108   7.5979462  22.0710697
  19.7155285   8.0650826  20.9740028  15.0824919  59.7599716  54.5609283
  15.3993511  60.6631355  54.5495720  15.2704906  59.4291306  53.6826134
  33.3289337  65.2626877  40.5414162  32.7863693  65.8633423  40.0304718
  34.1112442  65.7705994  40.7564850  63.0401344  39.7514458  62.8615952
  63.9619408  39.8551445  63.0977097  62.5598183  40.0728722  63.6246262
  44.9708481  18.3083401  85.7629471  44.5596886  18.6019268  86.5759583
  45.3791122  17.4726601  85.9891968   2.1202235  55.5943642  23.5448151
   1.9524952  55.1810074  24.3917141   2.2122076  54.8622971  22.9350185
  50.9992485  36.3454323   7.4486485  51.1189690  37.2939034   7.4966555
  50.0599518  36.2295341   7.3053966  83.4028320  16.5101280  47.4943924
  82.8734283  15.9781599  46.9002800  82.8164825  17.2135925  47.7728920
  74.2377014  47.6838837   4.6979089  74.3212051  47.1711578   5.5018816
  74.8552856  48.4066315   4.8095284  68.5881729   2.7229185  16.5197563
  68.2157516   3.5022721  16.1072712  69.5262985   2.9053729  16.5732861
  57.1589890   6.3872733  56.6336021  57.4857712   5.8077316  55.9454346
  57.7753754   7.1195402  56.6427689  39.1611824  37.4146500  85.2359924
  39.9528465  36.8768959  85.2180939  38.5090027  36.8965683  84.7643127
  64.9597855  46.8084373  13.4486370  65.8770447  47.0125732  13.6308250
  64.9316406  45.8527527  13.4027653  47.1846733   0.2532459  16.6993866
  46.8366508   0.5239334  17.5489998  46.8953094  -0.6537373  16.5999813
  70.8773346  16.9572392  55.1372528  70.7975388  16.8740501  56.0874863
  71.3254776  17.7929325  55.0067787  85.5931473   4.2081180  71.6703415
  86.1759033   3.5106039  71.9705048  85.7026749   4.2191262  70.7194901
   9.8275194   7.0682669  25.1961441   9.0332527   6.5350113  25.2279568
   9.6465693   7.8027053  25.7827358  55.7960815  28.2183170  29.3183594
  55.3042717  28.1485462  30.1365814  56.1382141  29.1122818  29.3200417
  85.1881180  40.4859848  20.1381626  84.7214203  39.6505203  20.1173687
  85.2941818  40.6779556  21.0698967  58.6164360  13.6484156  39.6915321
  58.2832680  13.6726017  40.5885544  58.6657295  14.5677242  39.4294739
  73.9201813  11.1420069  29.8839664  73.9958344  10.7148809  29.0306969
  73.0800095  10.8401403  30.2292614   0.9721677  14.9107275  36.0955276
   0.7383785  14.8907127  35.1675339   1.7520539  14.3592682  36.1579933
   5.0691223  61.0240898   3.5717320   4.7598615  60.4208374   4.2475119
   4.4293270  60.9401283   2.8647356   7.2731571  55.6078987  34.4066048
   6.8634000  55.1485367  33.6735840   8.0619440  55.1000481  34.5966911
  65.5255432  65.7759933  20.8092651  65.4088516  65.3398895  21.6533222
  66.4703674  65.7547531  20.6572952  79.8010406  35.8168755  10.7644854
  79.0953369  35.3303566  10.3384399  79.3987122  36.6464653  11.0216665
   2.5758824   1.5355707  51.2486839   3.0511310   2.1640728  51.7921524
   1.7054273   1.4872483  51.6439133  80.0915527   6.7069435  35.6117821
  80.2004852   7.2637477  34.8408508  80.5468826   7.1750789  36.3116074
  14.5877609  56.8215256  44.4583206  14.0452452  57.5070801  44.8480949
  14.5821638  57.0155869  43.5210152  67.1973495  48.7361145  70.2989426
  68.1338730  48.5410004  70.2660828  67.0432053  49.2990303  69.5402679
  64.1503296  49.7503395  84.6111908  64.2897186  50.2639084  83.8155441
  64.7848663  49.0363312  84.5496216  85.6107483  61.2547264  78.2349777
  85.6616287  62.2095909  78.2783203  84.8374329  61.0323029  78.7533798
   8.1254139  30.2458611   2.0718169   8.4627428  30.2344093   2.9675343
   7.3165812  29.7357178   2.1139517  25.3150234  69.7471771  34.2475471
  25.2248993  69.9323654  35.1823273  25.2616291  70.6054382  33.8271141
  55.9843216  51.1009140  88.7273788  55.4352112  50.4643478  88.2696762
  56.7926598  51.1317291  88.2156448  30.8483391  59.3611755   4.8547802
  31.1871834  60.2254372   5.0881696  31.6298180  58.8363876   4.6812186
  61.8239288  70.4853897  43.0423965  61.7140808  71.3805466  43.3631172
  61.2761154  69.9548035  43.6208496  35.8783340  68.8089523  27.3063393
  36.1687508  69.6827011  27.5679741  35.0894699  68.9643021  26.7869244
   1.5484167  47.8584213  14.4170866   1.6945604  47.2202911  13.7187567
   2.3512125  47.8318138  14.9377041  78.0501785  64.3038254  82.0018768
  78.0321960  63.5092888  81.4683838  77.7160873  64.0270386  82.8551025
  56.5854797  47.4057350  50.1815147  56.3781586  46.7722778  49.4945068
  56.4404907  46.9288406  50.9986954  42.3648262  23.6483154  11.8015823
  42.0451393  23.2442055  12.6082582  41.5834656  24.0240459  11.3959503
  67.9276199   5.1733894   3.9733987  67.2595825   5.8589106   3.9781365
  67.4341431   4.3587270   3.8783207  83.8879929  55.9953423   5.5487871
  83.0406952  56.2941475   5.2185822  84.3173828  55.6046371   4.7877321
  75.5667648  12.7753458  55.2470703  75.9541397  13.4833536  55.7617531
  74.8009644  13.1722364  54.8320312  67.4253998  24.3135681  24.3233566
  67.0301437  24.9144306  24.9549961  68.1775513  24.7925606  23.9754105
  57.6027756  65.2678070  65.5501328  57.7674828  64.5300140  66.1373062
  57.6469994  66.0386581  66.1158752  67.7813721  28.3065033  37.8508110
  67.8427963  29.0602245  38.4376335  66.9317627  28.4059925  37.4212761
  75.8715515  27.8670940  41.2295647  76.1358719  26.9975052  40.9292603
  75.7410965  27.7654915  42.1723747  84.8812180  48.5190125  73.0431519
  84.5929337  49.2563553  73.5811615  85.5622330  48.0939560  73.5644760
  12.0204592  71.0865326  85.3550262  11.1043110  70.8171539  85.2891769
  12.4776278  70.5387955  84.7168961  60.1950989  49.1929512   9.4015408
  59.7521324  48.3496017   9.4952364  61.1271858  48.9751244   9.4006958
  86.5234222   0.3423152  62.5430603  86.3464737   0.1043585  63.4531708
  87.2245407  -0.2505132  62.2724686  30.3329239  38.8241882  71.0998154
  30.5710716  38.0240746  70.6314850  29.5090275  38.6094704  71.5372238
  33.6168480  21.2293434  74.5633240  34.3661613  20.9497223  74.0374222
  33.1449966  21.8432465  74.0005569  84.1657257  40.4776649  46.2874184
  84.9968262  40.0043945  46.2484856  84.1537857  41.0067291  45.4898109
  69.1655884  33.7375412  50.0464096  68.9480972  32.9212418  49.5963135
  68.3324356  34.0420609  50.4060745  77.0967484  59.3581581  88.2710953
  76.9582596  58.4110336  88.2699814  76.3760605  59.7062149  87.7460327
  69.1046143  18.1908798   3.0992422  68.6607590  17.3753357   2.8666184
  69.4129639  18.0488949   3.9942248  28.8595734  38.5885315  76.5097427
  29.2109470  37.9701843  77.1503754  28.6035271  38.0431747  75.7659225
   4.9252558  44.2705040  22.5154972   5.2595501  44.6731987  23.3169441
   4.0956254  43.8706589  22.7763977  46.0679626  45.9428940  53.7181435
  45.2404327  46.4041634  53.5815430  45.8742256  45.0323486  53.4954262
  38.4321747  51.1257858  34.8910866  38.7551537  51.0785446  33.9912605
  38.0967712  52.0180130  34.9786377  44.3377228  45.2816505  73.3354034
  45.0608063  45.7893105  72.9670715  44.5895309  44.3690071  73.1942978
  83.9637451  53.1368408  15.3773499  84.8767548  53.4239883  15.3636055
  83.9306793  52.4767036  16.0697079  64.3302841  18.0848312  51.0331497
  63.8144569  17.2804585  51.0891342  63.7139015  18.7427406  50.7115059
  20.0945301   0.8466417  17.2072182  19.4949780   0.1353706  17.4327412
  20.9669819   0.4705432  17.3238888  86.1375656  12.8281031  34.0074043
  86.8423691  12.2185011  33.7886162  86.4136429  13.6608019  33.6244812
  38.8121185  65.0216904  78.5724564  39.4520111  65.7100525  78.3910141
  38.6105232  64.6497192  77.7138290  73.8555832  24.7611694  67.4012680
  73.0059509  24.5778770  67.8022156  74.4889679  24.3285408  67.9738770
  59.1837921  32.0908394  44.0156975  58.8403969  32.8514214  43.5468445
  58.5052223  31.4228306  43.9180183   2.5892506  50.8282394  41.8464928
   3.0535812  51.3165550  42.5263290   1.9331092  50.3195000  42.3228264
  40.4547882  30.9427204  74.7048492  39.9957771  30.2586613  74.2174072
  41.1366730  31.2470551  74.1059799  58.0611420  67.0670319  72.3887863
  58.4930344  66.3800354  71.8811111  58.7789612  67.5455475  72.8034973
  23.8977127   8.3821783  87.2919464  23.1353760   8.9209757  87.5035400
  23.5520458   7.6879139  86.7309265  83.7442551  58.3283615  65.1609192
  83.2984619  58.9393921  65.7475510  83.4717178  58.5967293  64.2834625
  10.4533482  45.4024391   3.6685858   9.7494698  45.7147598   3.1000421
  10.1927090  44.5124245   3.9055917  66.6172333  55.4088898  72.3415222
  67.2185211  54.6729622  72.2270813  66.9860992  56.1061249  71.7992783
   2.8645380  10.3554201  26.6859550   1.9138122  10.3537846  26.7970848
   3.1793439  10.9941921  27.3255653  59.0425758  59.3954544  48.9729843
  59.1276588  59.2000656  48.0398102  58.4807625  58.6991615  49.3132324
  28.2629070  70.2240295  67.5714111  27.9726410  69.3160706  67.4843216
  28.3265476  70.3655930  68.5159378  27.0501442   0.5721684  80.7495575
  27.4436684   0.6143432  79.8780136  27.6157761  -0.0250186  81.2391129
  74.4970856  46.8034973  27.4718246  75.3396378  46.3942604  27.6689739
  74.1513214  46.2975922  26.7364769  69.4705887  43.1374321  75.2082977
  68.5627136  43.3658752  75.4078140  69.4410400  42.2055054  74.9917984
  86.1788025   0.2147230  36.4937286  86.4506302   1.1305941  36.5530548
  85.2283249   0.2534006  36.3872871  30.5070305  12.9909182   7.4845524
  29.5637283  13.0251064   7.6434388  30.8983860  13.3171177   8.2949018
  73.8118896  28.6128635  59.5046005  73.6562271  28.4961987  60.4418259
  73.1323776  29.2255783  59.2233925  81.2352982  53.0910797   0.7256648
  81.8661804  53.6193810   0.2366678  81.6204681  53.0042686   1.5976410
  22.3486099  52.4428482  62.2328911  22.0527172  52.5746307  61.3321648
  22.5034351  51.5005493  62.2986908   1.6053902  69.5294266  49.4900208
   1.7621868  70.3695831  49.0589905   0.6660454  69.3781281  49.3852844
  70.3233490  36.8147430   8.7490768  69.6986389  37.4403076   9.1160088
  70.9195251  36.6195412   9.4720612  36.5744553  12.7207155   6.7300634
  36.5754128  13.4396296   6.0980873  37.4808273  12.6670113   7.0331092
  35.6665993   3.9133232  44.4917526  36.0941010   3.9902260  45.3447227
  36.1647110   4.4980545  43.9206047  14.8787012  30.0544930  62.8212166
  15.2980299  30.0819550  61.9611931  14.4970675  29.1782341  62.8737335
  10.6719732  38.1787720  14.7113018  10.5410442  37.4493713  15.3171568
  11.5905638  38.1117172  14.4506741  45.9566193  11.7720509  21.0403194
  46.2967415  11.1257906  20.4215336  46.1769753  12.6173897  20.6490726
  77.2105713  66.6740723  58.7457542  77.1594696  65.8777771  59.2744637
  77.9430618  66.5190277  58.1493950  86.4631042  67.2002869  56.7191544
  85.6517105  67.0988159  56.2215805  87.1458054  67.2717667  56.0520439
  72.4992905  26.7286797  15.3996201  73.0962677  26.3792858  16.0612698
  71.6920090  26.9140511  15.8793783  58.2238693  21.6806355  43.6201477
  58.0104637  22.3402615  44.2801361  58.7114754  22.1605988  42.9507408
  34.7758179  62.2897415  11.7282839  35.4334030  62.5740891  11.0934887
  33.9388199  62.4327965  11.2864723  29.8662910  39.6706657   5.0922389
  29.2153835  40.3671951   5.1782537  29.5420876  39.1272469   4.3740330
   3.0922580  20.4136639  87.6163330   2.9296143  21.2626343  88.0274658
   4.0398645  20.3895741  87.4833145  44.0409164   2.5642612  43.4698296
  43.2047348   2.1611054  43.2363815  44.3949432   2.0004101  44.1575546
  40.1799927   8.9217043  88.5838013  39.5317650   8.3453360  88.9885712
  40.3299179   8.5426455  87.7177353   8.6960497  17.6674576  15.7151766
   8.8365288  18.0659389  14.8562756   9.5060968  17.8405075  16.1948738
  57.8626747  55.8075790  78.7537537  57.1499901  56.3051262  79.1547012
  57.6987572  54.9014397  79.0150452  48.3904457  55.0897255  43.7143326
  47.8698006  54.9770393  44.5096092  47.7442894  55.1368065  43.0097046
  44.7900124  49.3246727  49.9739227  45.1116943  48.4754028  50.2764091
  43.8446541  49.2884254  50.1195946  63.5893517   2.0306909  23.2367115
  63.1015282   2.2765157  24.0227318  63.7006454   1.0828540  23.3105431
  60.9009895  66.5374680  81.5260773  61.4449921  66.2017212  80.8136444
  60.8076363  67.4710770  81.3366165  73.7307663  14.6616163  49.6512794
  74.3065186  15.3632336  49.9553719  72.8635406  14.9066668  49.9739304
   6.5654984  46.8112030  81.9745789   6.5074115  45.8744316  82.1625061
   5.7890511  46.9982414  81.4469681   8.1702738   1.2134200  67.7465439
   7.7700968   0.8178908  66.9721756   9.0391321   0.8149733  67.7971115
  15.4566746  60.0977745  39.5460815  15.4831753  61.0437851  39.4025688
  15.6067305  59.9937744  40.4857101  67.3561783  35.8086014  23.0640297
  67.4761658  35.1488342  23.7470684  68.0723572  36.4286194  23.2014675
  68.1183701  57.1530724  79.3102570  68.3681717  56.3971901  79.8417435
  68.7682648  57.1772995  78.6079102  64.8610458  21.9562111  69.4478760
  64.8724594  22.6223660  70.1351471  64.5881271  22.4283371  68.6612091
  71.0433731  42.3583031  48.0070915  71.6700745  42.1903687  47.3033333
  71.5636597  42.3054352  48.8087997  49.8228760  66.4204788  78.2467194
  49.2967453  66.7277527  77.5084763  50.7133026  66.3655167  77.8998032
  51.8829193  62.8591461  55.2322960  52.4274864  62.1493874  55.5727654
  51.4783325  62.4942169  54.4452972  40.3333511  31.7668514  67.4283218
  39.7655258  32.0286674  66.7035751  41.0498123  31.2888660  67.0106506
  61.9954834  14.9871454   7.8391638  61.8728943  14.8576679   6.8987174
  61.8344612  14.1250210   8.2226267  13.6357450   7.1044827   5.1124797
  14.4982367   6.7927566   5.3866458  13.2665787   7.5089908   5.8975415
  64.4850159  56.4809952  20.1608620  64.7956619  57.3814354  20.0663280
  65.0459366  55.9714737  19.5760612  10.0060349  51.5576286  49.1586914
  10.6644545  51.0429764  48.6919441   9.2383118  51.5391159  48.5872955
  29.8767605   8.9979496  58.8720093  29.2300701   9.5723505  59.2819977
  29.8710136   9.2512045  57.9489403   4.6029496  49.0332146  71.2232513
   4.9126811  48.1542702  71.4417801   5.1633539  49.6182785  71.7330322
  55.5960617  58.5753326  40.0000610  54.9528961  58.0614891  39.5116577
  55.1635780  59.4149666  40.1556244  13.7726889  70.9622192  87.6445847
  13.2023649  70.7513657  86.9053268  13.2984858  70.6419220  88.4119034
  55.7465897  52.1746521  66.4078598  55.5003510  52.9668884  65.9304047
  55.4518089  51.4563065  65.8481140  35.0890198  63.1816444  34.7468758
  35.7168961  63.8777618  34.5534134  35.3585815  62.4535675  34.1869926
  70.3019638  12.1206856   9.5486670  69.6634140  12.8260908   9.6529837
  70.4914703  12.1059589   8.6105289  66.9754944  62.5636673  12.7411289
  66.9979553  62.0032120  11.9654884  66.0673294  62.8611908  12.7954235
  58.8422241  21.2031937  24.6728287  58.0321274  21.6284142  24.3914719
  59.2203522  20.8512173  23.8669968   8.3581057  26.7218685  24.3288593
   7.5242958  26.2748928  24.1832352   8.9331055  26.3862000  23.6411572
  65.2470703  71.1780472  43.4761887  64.4692001  70.9796448  42.9548569
  65.1215820  70.6889038  44.2893448  70.5419540  48.0306969  50.0129128
  70.3045654  47.4124260  49.3218117  69.7151184  48.4471512  50.2560921
  37.2096786  35.1342201  13.9029512  37.5788345  35.9728317  14.1798811
  36.7627296  34.8006859  14.6809120  84.6001511  47.6556473  77.3196106
  85.4164886  47.2251053  77.5734940  84.4594650  48.3194809  77.9947128
   4.7868171  36.1223259  34.8336182   5.2009077  35.5212860  34.2143364
   3.8478312  36.0069923  34.6878929  71.0445251  59.0475998  75.9250717
  71.9910202  59.0895767  75.7886734  70.7214203  59.8972893  75.6252975
  54.7808914  57.7865143  31.4152603  54.3471794  56.9793625  31.6920872
  55.0872993  57.6014404  30.5275154   0.2512902  43.7174034  32.2791176
  -0.2527307  43.8395767  33.0836487   0.9956223  43.1763268  32.5426292
  18.6152039  62.4015274  66.9117432  17.8686256  61.8072815  66.9874191
  18.4789410  63.0468636  67.6054306   4.5799618  15.0288410  18.2888260
   5.2922134  15.3925076  18.8148270   4.3147368  15.7476864  17.7151127
  34.6002541  40.0451012  87.1971359  34.8591576  39.2501068  86.7311020
  33.6434593  40.0376778  87.1701889  54.5792809  44.2460442  59.2664146
  55.2187920  43.6124191  59.5916443  54.8890381  44.4700661  58.3888626
  56.5343628  54.4669380  71.8569489  57.1450119  53.7748489  71.6032639
  56.1801147  54.7893982  71.0282364  13.7473288  59.6015282  81.9372101
  13.5385799  58.7781868  82.3785324  14.1796207  60.1299820  82.6080933
   4.0473914  47.9791794   6.7598653   3.1186707  48.1856422   6.8651471
   4.1592450  47.1421165   7.2104692  48.1432266  64.2067337   1.2761461
  48.8524742  63.6853867   0.9001182  48.0419464  64.9434204   0.6734252
  45.5309753  41.4994850  20.6154270  46.3853111  41.8949928  20.4424572
  44.9197693  42.2360802  20.6062679  45.2854271  49.1047974  65.2387848
  45.5855446  48.8186951  64.3760529  44.9694748  48.3053017  65.6597443
  49.1724663  13.4160280  73.7938614  48.8784142  13.3670759  72.8842621
  48.8145714  12.6286621  74.2039795  76.2080688  26.5658607  59.0776062
  76.0730286  26.4118862  58.1425743  75.6370010  27.3059711  59.2833977
  62.2107735  53.6831932  11.9715614  62.9777107  53.6265259  12.5414972
  62.2583313  52.8973122  11.4271688  63.7747917  39.2483177  55.1025658
  63.6245842  39.7277260  55.9173279  64.5677414  39.6402855  54.7367363
  51.3415833  11.4620876  81.2417374  50.3995628  11.5721893  81.3709793
  51.6981049  12.3476267  81.3120651  16.1896591  57.4228058  47.2781258
  16.3154087  56.5821762  46.8379402  15.7078772  57.9550056  46.6449738
  65.1684036  14.2259417  59.3258553  64.3092728  14.4210014  59.7001228
  65.3314514  13.3131123  59.5633202  81.0615540  12.9014130  65.8438721
  81.4334030  12.2197771  66.4036331  80.1299667  12.9100294  66.0636444
   4.6859460  10.8537998  85.2563629   3.8957047  11.3795967  85.3800125
   4.9680533  11.0517683  84.3633652  49.1953812   1.9092679  81.2594147
  49.6241646   1.2826598  81.8422852  49.8768997   2.1622689  80.6367188
  10.6805515  11.5117569  20.1299133  11.5611000  11.8840790  20.0825481
  10.1471615  12.2065716  20.5158653   1.0411795  67.0435181  58.9407692
   0.6448756  67.0983505  58.0711899   0.7858214  66.1803818  59.2663727
  28.0905857  69.9817963  50.1955872  28.4550400  70.7534485  50.6291199
  27.4420528  70.3336029  49.5857773  64.0723801  35.7579956  85.4888306
  64.3838501  35.4902229  84.6242447  64.6203918  35.2691803  86.1028137
  21.9369564   7.3074837  70.5248032  22.5591621   6.9001708  71.1274490
  21.0977345   6.8971353  70.7334976  67.9029541  68.5493774  29.5099869
  67.7580643  68.3850937  30.4417858  68.2933502  67.7393494  29.1818352
  13.1905212  35.4832115   4.8392887  13.9804840  35.2059212   5.3032918
  13.2237701  36.4396057   4.8601384  59.8103142  52.7740211   4.9335465
  59.1217079  53.4342079   5.0123277  59.5672531  52.0977745   5.5658789
  52.3660126  26.2143250  88.0856476  52.3292160  26.4600391  87.1612549
  51.7141685  25.5190639  88.1747971   5.8988128   1.2175813  56.8268585
   5.3772082   1.8146024  56.2904587   5.5198636   0.3542193  56.6618271
  72.0139618  53.6777344  26.7231655  72.8555298  53.3506889  26.4052906
  72.2181549  54.5299835  27.1081448  43.3990288  15.5522099   6.8398466
  42.7508469  14.9852505   7.2577577  44.0198975  15.7612019   7.5377564
  76.4686890  70.2251663  34.2641182  76.4685059  70.4026947  33.3235245
  77.3637924  70.4168854  34.5438690  58.8256073   0.6260157  53.6178894
  58.7757149   0.8098924  54.5559349  58.4797745  -0.2621072  53.5291824
   4.2722192  10.5115881  69.8163605   4.8278737  11.1981735  69.4474640
   4.5672460   9.7083950  69.3873215  80.3424759  48.1947250  68.9651413
  80.2347260  47.3696404  68.4920120  80.9558563  47.9880981  69.6703415
  54.2030029  64.6218567  47.2063255  54.4490471  63.7263222  46.9745712
  54.9896965  64.9898758  47.6087074  60.8877716  27.8817730  14.7270031
  60.4465904  28.1556797  15.5310965  61.3694763  28.6581745  14.4417076
  62.7898979  66.1064224  33.2846336  63.3643761  65.3972321  32.9960861
  62.8891945  66.7827454  32.6145859  19.6537113  49.9681969  68.5437317
  19.0530510  50.1030922  67.8107605  19.5061741  50.7211723  69.1159973
  46.3254662  56.7810555  75.6466675  47.0680351  56.3935432  76.1099777
  46.3256531  57.6986847  75.9190445  62.5412369  33.7626038  87.2332535
  62.3984871  33.4568329  88.1289978  63.4526100  33.5378761  87.0458298
  27.6978741   4.2612395  17.1939850  27.2852440   4.7242174  17.9231091
  27.0128250   3.6824703  16.8593712  50.3552513  58.6291580  15.5290308
  50.5098572  59.4843063  15.1277199  50.8504753  58.0164108  14.9854078
  72.9995270  63.5932922  66.8583298  72.7708054  62.6808243  66.6813507
  73.8714905  63.5498619  67.2507935  84.9833832  46.5405846  32.0178871
  85.3021164  46.1557846  31.2014523  84.3990860  45.8764496  32.3836060
  72.5719681  38.0884705  64.6798630  72.7377701  37.1482697  64.6108780
  73.1749496  38.3887444  65.3599243  73.0622253  56.1746483  27.6217880
  72.9222031  56.2870216  28.5619984  74.0079880  56.0569077  27.5328732
  46.8438835   6.1363411  29.2088566  46.8547134   6.9430251  28.6937103
  47.7619743   5.8695531  29.2554226  76.1275177  10.1929502   4.4503026
  75.4610519   9.8815680   5.0627546  75.7830582   9.9670353   3.5862753
  22.2816658  45.8361969   7.3927402  21.9374943  45.9314575   8.2808304
  22.8749485  46.5795631   7.2847762  66.9852676   6.5893521   0.7439529
  67.1507721   5.9079466   0.0923960  67.8516388   6.8080139   1.0872089
  55.7300720  53.6601448   0.4730759  54.9000130  54.0033417   0.1422446
  55.6188278  52.7095375   0.4590329   7.3840084  62.7717209   7.9336219
   7.3818784  61.9057159   8.3413782   6.5947247  62.7834740   7.3922119
  10.0910778  53.8772240  71.0107117  10.5014067  54.7346268  71.1235123
   9.1537981  54.0456543  71.1075134  67.1450500   4.4527464  39.5467224
  67.9435959   3.9908133  39.2914391  67.3780823   5.3797755  39.4962883
  78.8718491  18.8678856  23.4827690  79.3220673  19.5962315  23.0549297
  78.8428345  18.1802692  22.8175087  77.0440140  16.0038166   1.7555472
  76.6953964  15.1192856   1.8664643  77.9943390  15.8898907   1.7669632
  69.6637421  58.6413307  71.8860321  69.8745956  59.5454597  71.6529541
  69.0328827  58.7193718  72.6016922  82.9111099  46.9969711  15.5124817
  82.8861008  47.8820724  15.1488857  83.7750702  46.6631317  15.2709246
   9.3545113   3.6222358  58.3576622   9.7805023   3.3437712  59.1683540
   9.7286053   3.0550189  57.6834602  56.5820770  17.8704643  50.7096786
  56.5359077  18.4095192  51.4993134  56.6484833  16.9730148  51.0358810
  45.2416115  56.9543114  54.3371468  45.7159348  56.2759209  53.8564796
  45.8973045  57.6308250  54.5063553  82.3178101  49.0742683  62.9942589
  83.0081177  49.7012405  62.7783470  81.6246643  49.6063385  63.3850060
  36.2555122   3.4493086  69.9336929  35.6722374   2.7850330  69.5665970
  36.1275635   3.3838041  70.8800354  38.0838966  12.9500294  10.9222546
  38.8036919  12.5469332  10.4368229  38.4679680  13.7355232  11.3117676
  38.6229095  56.8737564   6.1898136  39.2563782  56.1686745   6.0563645
  37.9922295  56.7670670   5.4777093   1.6853921  40.5497055   5.8960319
   1.8195417  40.1674385   6.7632732   0.9086055  40.1055679   5.5560646
  46.7007904  44.0274353  38.1655388  46.5752792  44.9003830  37.7934647
  47.2643318  43.5775337  37.5360603  53.2123833  55.3019981  40.1678047
  52.7361069  56.1320572  40.1480789  53.9658699  55.4715805  40.7332535
   0.5192401  16.0773849  62.3952103  -0.3067732  16.4678555  62.6806335
   0.6908869  15.3860083  63.0345612  53.0675011  61.4719849  63.7608490
  53.1922226  61.8788528  62.9034500  53.7175217  61.8936615  64.3228989
  49.9382439  41.9447899  61.0205498  49.7316055  41.7655640  61.9378319
  50.6316910  42.6036797  61.0555725  26.4858952  70.8766174  56.3016281
  26.8326302  70.3182678  56.9975090  25.5379887  70.8636169  56.4340553
  48.3364716  17.8317757  32.7213440  48.2553062  17.0229149  32.2159805
  47.7599754  17.7025299  33.4744568  61.1989441  44.1528778  17.9856167
  61.5610809  44.5244408  17.1812363  61.6050720  44.6606941  18.6880493
  54.3313255  41.9041367   2.8528183  54.0503082  41.0012016   2.7045803
  53.5724525  42.3284988   3.2531497  70.6387787  68.8293686  61.0910301
  70.5282974  68.7285995  62.0364761  70.2607193  69.6867828  60.8957481
  61.6926384  60.9846230  31.5620937  61.8058395  60.3465729  30.8575993
  60.8028831  61.3170357  31.4434891   8.9969301  29.3027611   8.6656370
   8.2387199  28.7688160   8.4284630   8.8632898  30.1285553   8.2004099
  20.7656212  51.3073921  83.6099472  20.6822910  52.1554413  83.1739426
  20.8755531  51.5238800  84.5358429  82.5171356  41.3408203  15.8787374
  82.4389725  40.5275955  16.3775215  82.5029907  42.0308762  16.5419559
  29.0565758  24.9484711  70.7796707  28.1733398  24.9283867  71.1480713
  29.2899742  24.0270634  70.6666946  45.5931511  60.4012108  15.9183607
  45.6402702  59.9303093  16.7503815  44.7585678  60.8685341  15.9545717
  82.4606628  53.3278847  76.0968094  81.8218384  53.5103264  76.7859039
  81.9412994  53.2853928  75.2938843  62.8037872  32.8875275  69.6744080
  62.9019585  32.1251373  69.1040039  63.0996246  33.6253166  69.1411285
  27.0706863  56.8483353  25.9523964  26.6159134  57.3813858  25.3002682
  27.7610798  56.4045830  25.4597740  65.2585297  13.0958443  70.7600250
  65.9377823  13.6545353  71.1378021  65.6035995  12.8454552  69.9030151
  46.9987450  41.7560921  50.8352852  47.2198944  41.0317726  50.2498894
  47.5169449  41.5937576  51.6235390  57.6994514  46.5630722  45.2152710
  58.0537529  46.2471085  46.0464554  57.4005775  47.4524193  45.4049225
  80.5934525  24.8471451  84.9481125  81.3487091  24.3249969  85.2186356
  80.3492050  24.4904652  84.0940857   3.9239330  47.3030319  31.7033157
   3.3912191  46.5089874  31.7474003   3.2997279  48.0175629  31.8299904
  23.0517807  42.5366440   7.8247385  23.2528877  43.3868332   7.4336309
  23.9074402  42.1523514   8.0155220  59.0064850  23.1146145  26.6284485
  59.8420944  22.9688854  27.0720139  58.8750038  22.3270531  26.1005363
  70.6671524  62.0003014  68.2703705  70.2307129  61.4596138  68.9287109
  71.2020340  62.6106148  68.7779694  64.9157715  35.4964638  21.8368130
  64.6994247  36.4274406  21.7847748  65.7999191  35.4761353  22.2030048
  36.4596634  61.1088104  41.4948959  35.7427597  60.5396690  41.2149734
  37.2433777  60.7108650  41.1158638  34.1448364  25.1892262  78.9768906
  34.6716805  25.9825573  79.0733032  34.6584206  24.6300163  78.3940125
  24.8807812   7.8090215  61.3211403  24.2977886   7.2237062  61.8046227
  24.8313599   7.5021205  60.4158211  64.3597336  61.7673721  17.5188198
  64.0035629  61.9959488  18.3773804  64.4923401  62.6090698  17.0827122
  13.6759291  68.4731445  82.9899750  12.7312222  68.5092850  82.8401260
  13.9349489  67.6061401  82.6778107  38.1332092  42.2150345  58.0575600
  38.5718918  41.6821365  58.7207413  38.4702492  41.8857956  57.2243538
   3.0517256  48.2266769  47.1725464   3.0891030  47.3036079  47.4231148
   3.8694062  48.3796120  46.6990089  42.8612976  70.1407700  59.0382729
  41.9774399  69.9681778  59.3626785  43.3765297  70.3122177  59.8265419
   9.5961599  22.9247913   8.1332960   9.3956461  23.7568684   7.7047243
   9.4734392  22.2671013   7.4487414  55.5857735  62.2879562  26.0367165
  55.9913712  62.8064384  26.7316265  56.0049591  62.5951958  25.2329006
  45.4072151  23.7861805   0.2554551  46.3565636  23.9078770   0.2429316
  45.0896492  24.3034496  -0.4846917  78.9453278  55.2056007  62.4834061
  78.1884079  55.7667160  62.6521072  78.5690460  54.3453178  62.2975082
  72.2958603  68.4872131  39.8379250  72.1642151  67.7064972  40.3758659
  71.4156036  68.7335358  39.5538292  31.7045422  62.2722282  58.8034096
  32.5718422  62.5979576  58.5627441  31.7645874  61.3238144  58.6887779
  62.0602379  51.9941177  82.0344925  62.2042770  52.9255562  82.2015457
  61.2964668  51.7706909  82.5664291  34.6504402  60.3775864  66.3183441
  35.5950394  60.3744812  66.4731293  34.5557022  60.0920982  65.4096375
  73.1888580   3.6386755  37.7712822  73.2573471   4.5932322  37.7903061
  74.0866241   3.3368397  37.6329269  38.1521416  53.8278084  68.0011063
  38.8434372  53.2413712  67.6938171  38.2139854  54.5919647  67.4279785
   9.0484924  12.6262665  56.7786560   8.8772717  11.7873774  57.2066536
   9.1254950  13.2515202  57.4993248  38.9717102  66.7532501  63.4586830
  39.8216667  66.9274979  63.8629646  38.8826294  65.8007050  63.4894409
  54.3745766  12.1751070  54.1173172  53.7651749  12.0952568  53.3834991
  53.9928055  11.6308670  54.8060036  22.3244133  58.5213699  65.4353027
  21.3911228  58.5939941  65.6351166  22.6020508  57.7185707  65.8765106
  32.3185768  16.6265659  80.3324203  31.6245270  16.8506947  80.9523315
  32.4392090  17.4200191  79.8107758  73.1796417   0.8661717   8.6724272
  72.6844254   0.6403159   9.4598188  73.8461075   0.1824955   8.6043158
  69.4625854  71.4899292  34.1449776  68.5927277  71.0927887  34.1882401
  70.0649033  70.7461700  34.1287308  35.4357491  59.6074562  48.9539604
  36.2204475  59.1076775  49.1791458  35.6937218  60.5222549  49.0672264
  59.1809196  37.7394371  75.1573944  59.2498169  37.2112312  74.3621063
  59.1210442  38.6410713  74.8416443  27.7425194  71.1066513  46.4731178
  26.9905663  71.6236038  46.1840477  28.0827637  70.7097244  45.6712990
   8.4157887  31.2729855  57.4246330   8.0634403  31.8431530  58.1080017
   7.6424065  30.9242325  56.9813690  32.4908867  12.1732540  76.9868546
  32.4302788  12.6817818  76.1781769  31.6066208  11.8328323  77.1225586
  21.1014118  48.7581139  64.8761292  21.6888256  48.7232285  65.6310883
  20.7283363  47.8782692  64.8220825  17.4592838  51.0795403  36.3447304
  16.8094597  50.8219376  35.6908188  18.2756863  51.1614418  35.8517685
  66.9441605  68.6503525  41.4169540  67.1893311  67.8527527  40.9479675
  67.7784882  69.0634155  41.6394691  15.8521194  64.6207428   9.3512764
  15.4593830  64.7366867   8.4860897  15.4914179  63.7930107   9.6690693
   0.8465503  10.8872995  73.5101318   1.7299236  11.1137266  73.8010178
   0.9752414  10.4616690  72.6624832  59.9403076   7.9700055   1.3535175
  59.2485390   7.3823013   1.6573198  60.5409851   8.0367632   2.0957844
  75.5567398  10.5831356   9.2846737  74.6757202  10.9285612   9.1407299
  75.4370422   9.8803015   9.9233685  42.5360603  11.1419687  61.5700188
  42.9373283  11.0993204  60.7020340  41.6744461  11.5297422  61.4167747
  56.8360252  52.1604309  59.4230843  57.5897598  52.5665207  58.9950562
  56.2495804  52.8910828  59.6192017  24.5527592  37.4882011   8.1079664
  23.8354626  38.0532188   7.8207889  24.4088840  37.3774681   9.0477905
  54.0775032   9.4177628   2.0264709  53.4264870  10.1050482   1.8848654
  54.0078735   8.8587809   1.2525698  44.0030136   2.6612272  79.7364883
  43.6359749   3.3069196  79.1326675  44.8335495   3.0434089  80.0200043
  26.2927494  49.9285431  44.7616310  27.1761169  50.2877579  44.6788025
  25.9205647  50.0029640  43.8829002  71.3815536  58.2920036  50.2309723
  71.0760193  57.5437889  49.7180862  70.9299774  58.2072067  51.0706863
  57.6961174   3.1258774  75.2785339  58.1721840   3.1254005  76.1089478
  57.6844368   4.0444694  75.0096741  24.5044537  54.5274506   7.4040551
  24.9840240  54.0112572   6.7561440  24.1069374  55.2365646   6.8987141
  42.3628197  27.6627865   2.8700867  42.5021820  27.7903633   1.9317189
  41.8869514  28.4447117   3.1500390  62.8624725  31.0768509   6.7527719
  63.6172523  30.5514984   7.0183682  62.1367798  30.7344837   7.2746768
  56.1905060  18.2309742  21.8216343  56.9394951  18.1154575  22.4063568
  55.5754013  18.7660828  22.3231716   7.8478918  37.3697472  54.2027321
   8.1112566  36.7525673  53.5201225   7.2160468  36.8846169  54.7334404
  63.5969543   1.5293819  59.5466309  62.8880119   1.9445113  60.0378532
  63.2608299   0.6597843  59.3297119  79.6263809  29.1708088   7.0114560
  79.1509247  29.1306896   6.1816592  79.9178085  30.0802231   7.0767932
  50.9915276   5.4714856  85.5972977  51.6128082   5.4671345  84.8691330
  51.4189034   5.9969707  86.2736435  85.6781769  53.2965736  52.0639229
  85.3199310  52.4175377  52.1871796  86.3899231  53.3566589  52.7011337
  54.2354240  47.1659050  46.7792854  53.4737129  47.4572601  47.2804298
  54.0379448  46.2579117  46.5495415  60.7961197  59.2231407  38.5392342
  60.7574120  60.1415672  38.8061218  60.0842896  59.1273842  37.9064941
  85.2256012  46.1097107   7.5055799  85.0151825  45.2968979   7.0459146
  85.5888214  46.6806145   6.8285503  71.6002350  65.6743240   8.1229811
  70.6995621  65.9151306   7.9060936  72.0229874  66.5037994   8.3454151
  76.0080414  59.0315475  67.1738129  75.7390518  58.4862289  67.9130707
  76.8687439  59.3671341  67.4244080  17.1737633  63.1036148  33.4006424
  16.7290802  63.6593285  32.7605896  16.5278969  62.9741325  34.0951347
  63.9483566  39.6407585   2.9873834  64.0711975  38.8601036   3.5274901
  64.4601898  39.4682312   2.1971345   3.1421669  35.3001480  64.9522552
   2.3555317  35.2900963  65.4975433   2.8581641  35.6983490  64.1294479
   7.4071918  12.1477432   0.6190972   7.4146533  11.1997528   0.4868431
   7.1770778  12.5072937  -0.2376420  62.3957443  68.8697739   1.6151645
  62.3388329  69.6718369   2.1344845  61.5988922  68.8707733   1.0848306
  27.2603035  11.4504089  57.3750801  27.3239574  11.5557795  58.3243294
  26.6380768  10.7330341  57.2549171  81.4327469  25.1680546  88.6482849
  81.6929550  25.6316032  87.8522644  80.4796982  25.2531891  88.6743240
  11.3966379  19.5803261  83.4849167  12.1806154  20.1249943  83.5552521
  10.7074385  20.0976067  83.9016342  83.3071671  38.9342766  33.1495018
  83.3548813  39.2884407  32.2615128  84.2125702  38.9434319  33.4599838
  80.8219757  19.6071663  11.4192362  80.2647629  19.3774490  10.6756086
  80.2809219  20.1888046  11.9532719  84.0612411  14.7682800  18.4564781
  84.3060837  14.4377031  17.5921860  84.7693863  15.3671875  18.6932716
  40.6388893  65.5097275   4.1023922  40.7070656  65.7524338   5.0257969
  41.2780571  66.0683594   3.6600931  10.5812244  60.2044220  44.9135895
   9.8494415  59.8348503  45.4076996  10.9935532  60.8193970  45.5202408
  74.5476074   3.9572186  40.4794426  74.1627350   4.3712220  39.7069740
  75.3275833   3.5116293  40.1488037  80.4578552  68.8599319   3.2636964
  80.1380768  69.7104492   2.9627063  80.4192200  68.9137802   4.2185993
  85.1100922  43.7603111  53.3000069  84.8936615  44.4873314  53.8838196
  86.0470734  43.8594093  53.1312599  21.6705532  67.4669418  17.3228436
  21.4604263  66.6519470  16.8669224  20.8198509  67.8680344  17.5007877
  76.0051270  33.7983856  35.1038895  75.5911484  33.2328796  34.4519234
  75.7650757  34.6860352  34.8380203   3.8362896  55.3969994  48.6074638
   3.2646277  54.6292992  48.6157379   3.4015443  56.0130081  48.0177498
  10.8197031  57.6506653  76.5819016  10.6143112  56.7183914  76.6519852
  11.0396566  57.9152756  77.4751129   8.8885708   2.2310753  45.2230988
   9.0576077   3.1695380  45.3064461   8.0229521   2.1786833  44.8178940
  38.4550018  37.6858253  53.0315971  39.3844337  37.8189354  53.2177887
  38.1619072  38.5207100  52.6664925  73.6032333  71.2700729  38.3512192
  73.5257645  71.9681625  39.0015297  73.2238312  70.5019150  38.7780800
  67.7829514  23.3699532  57.2953682  67.7229538  23.5504971  56.3572655
  68.5280457  23.8921814  57.5926056  80.2494659  63.1752281  63.9129143
  79.4174194  63.1813431  63.4397430  80.5864792  62.2873383  63.7933311
  67.0553665  59.6685867  70.3645401  67.1672974  59.3858871  69.4569168
  67.7080688  60.3586998  70.4826813   3.8720021   6.5300126  36.8638954
   4.6556759   6.0492887  36.5974503   3.5876703   6.9832988  36.0702209
  75.2676697  43.6360397  49.4951973  74.6464310  44.3566399  49.6002312
  76.1184769  44.0648232  49.4029503  83.4410248  40.3679504  88.0756073
  83.5199356  40.2056999  87.1355667  83.6092300  39.5170555  88.4804764
  80.7021103  16.0907917  23.6703224  80.5611954  15.5858622  24.4712086
  79.9510422  15.8766508  23.1169052  15.9870043  66.5219498  28.3097305
  16.6790142  66.1619110  27.7549953  16.4466934  67.0907440  28.9272938
  54.0795746   0.9846663  17.7747478  53.2058601   1.3247904  17.9675369
  54.6753693   1.6714802  18.0739975   9.6490450  43.8873405  68.5918655
  10.1984911  44.6254692  68.3282318   9.4443283  43.4365349  67.7726593
  46.9913330  26.8225670  70.1700821  47.2656174  26.4805222  71.0209656
  46.6274681  26.0642700  69.7131119  81.9257965  19.5225964  39.1282463
  81.3494720  19.2879066  39.8555717  82.7929459  19.6018906  39.5257378
  70.0817719   3.6702125   1.1928006  69.6089020   2.8391006   1.2361857
  70.9205475   3.4910152   1.6177377  13.5805397   4.0575256  25.7611465
  12.7005196   3.9682541  25.3953209  13.4364862   4.2434926  26.6889915
  11.0503426  70.7822037  29.8466835  10.3119831  70.8062515  30.4553528
  11.4271832  71.6609116  29.8924427  65.0588989   4.6463223  67.3049088
  65.3233871   3.7378049  67.1604233  65.3164139   4.8299565  68.2083435
  42.2761345  22.6061172  65.1759720  42.1936646  21.6578445  65.2770004
  41.8719521  22.7927570  64.3285980  17.3977718   1.8529066  37.1317863
  17.5488071   2.7979152  37.1123276  16.8405018   1.7151420  37.8977509
  83.6698380  18.5328026  43.1037750  83.7025299  17.6129551  43.3665352
  84.1416702  18.5610428  42.2714233  20.0778046  12.3966331  76.7433014
  19.6263504  12.6751156  75.9465103  20.8097076  13.0074234  76.8298187
  84.4914932  23.5300770  67.1129990  83.5663910  23.6982994  66.9337616
  84.7687759  24.2690697  67.6545105   0.6354666  31.0805721  81.1606216
   1.4212571  30.8519344  81.6570969   0.3703850  30.2619114  80.7413864
  40.0110207  62.6063080  22.8607197  39.6306953  62.9367676  22.0468521
  39.3877106  62.8660240  23.5391445   7.2955928  57.2385941  19.7192383
   8.0621109  57.6922607  19.3687115   6.5618949  57.5756989  19.2051563
  51.6963234  56.8045387  65.2354736  51.6462746  57.6859818  64.8656311
  51.1058006  56.8268623  65.9884872  75.6791458  41.7471123  61.7769203
  76.3274612  41.9139786  61.0927620  76.0723114  42.1064644  62.5722313
   7.8962579  46.5732193  -0.0420378   6.9752374  46.3193436  -0.1011954
   8.3568163  45.7585640   0.1590940  50.4779510  67.8757477  21.4481716
  51.3965302  68.1125870  21.5760288  50.0125008  68.3359299  22.1466122
   4.9683266  43.0174522  17.6695099   5.7544003  42.6341515  17.2804089
   5.1682081  43.9506416  17.7432423  65.4073334  21.3213863  81.8971329
  66.2777023  21.0311260  82.1699753  64.8456573  20.5591602  82.0377197
   6.7303233  59.9211998  47.7623482   6.2908993  59.4905128  48.4955902
   7.3044653  60.5674667  48.1733551   5.2090030  12.9562435  23.6308651
   5.5163178  12.5912952  22.8010445   4.6953368  13.7237864  23.3793526
  56.1269188  64.9222717  43.7883606  56.8092461  64.7716751  43.1341591
  55.3095551  64.7212677  43.3325729   4.0149336  68.3288116  67.6994247
   4.5052323  68.1835632  66.8902664   4.6859298  68.5175247  68.3554611
   4.1584606  65.9406509  12.6110096   3.9646728  65.1793976  12.0640402
   4.9552445  66.3114929  12.2317400  24.7807369  28.0680695  16.0685101
  24.3208523  28.5446167  16.7596264  25.7006073  28.0924168  16.3320999
  42.9301910  12.9829922  80.8006287  42.6427231  13.6151819  81.4593658
  42.1206512  12.5823765  80.4837952  52.7907257  26.6040783  85.1398621
  52.7746277  25.6541424  85.0232620  53.3628922  26.9214821  84.4412079
  28.7594566  47.9351845  10.5401344  27.9774017  48.0425453  11.0815182
  29.3828220  47.4811897  11.1071739  56.7346725  16.9400139  25.2265644
  56.7929764  17.7124653  25.7888412  55.8132858  16.8992233  24.9704075
  85.3017731   6.8970923   6.8318305  86.0774689   6.4661970   7.1907997
  84.7614288   6.1800270   6.5000515  72.8544540  55.2330971  88.3192368
  72.9210434  55.9839058  87.7292480  73.7163544  54.8187981  88.2778778
  63.2902489  65.7330933  15.0957861  63.5426025  66.5052872  15.6020212
  62.9765434  65.1094055  15.7506390   7.0292397  71.3493958  23.5567226
   7.2577581  71.9984512  24.2221031   6.1774797  71.0119019  23.8339119
   3.1502740  55.2236290  82.2490463   3.1805499  56.1231003  81.9230576
   2.4848917  55.2404518  82.9369507  66.5787506  12.7091684  41.1656227
  67.2075806  12.3499165  41.7915192  67.0754700  13.3654871  40.6770020
  35.6503792   9.9327364   3.5020893  36.1953011   9.6510344   2.7672851
  36.1988907  10.5521975   3.9833760   4.4139042  48.4702797  84.2598572
   5.3079247  48.6876831  84.5238495   4.4178190  47.5180664  84.1623383
  30.8336182  49.8390198  70.5303802  30.5419827  50.7506714  70.5221176
  30.5790253  49.5139198  71.3939285  82.2795258  31.6962337  67.1269608
  82.8734894  31.1230049  66.6423492  82.3361130  32.5376434  66.6741180
  31.5514221   6.8797474  29.8780174  30.8971462   6.8070655  30.5729084
  32.2737389   7.3633595  30.2787781  30.6249332  43.1109123  66.7901611
  29.7384624  42.7700539  66.9093857  30.7261524  43.7628517  67.4836731
  53.7966499  66.2587509  22.1134415  54.2442741  65.4206085  22.2291126
  53.1496773  66.2840500  22.8184376  41.9698257  15.2751722   2.0086343
  41.3416252  15.0761347   1.3143851  42.6398735  14.5964785   1.9271387
  42.3007889  59.3644829   9.7335253  41.7231407  59.7881813   9.0986738
  41.9446678  59.6150894  10.5859365  42.2342911  55.8676834  22.2509403
  42.1278267  56.7394562  22.6316109  41.4665909  55.7557640  21.6902790
  30.2896061   6.4144635  41.9869881  30.5608768   7.1097522  41.3876419
  30.6923103   5.6218467  41.6322784   1.6331772  40.2321472  80.5503464
   2.0382292  40.5278740  81.3656464   1.2747339  39.3697205  80.7600479
   9.4265137  42.8010826   9.7944345   9.0846910  41.9180832   9.9347973
   8.7249613  43.2586517   9.3310909  82.1957474  68.4050522  52.2334747
  82.7944717  68.7205505  51.5565529  82.4132156  68.9252701  53.0069771
  57.4146996  56.0495491  81.6620712  57.2644386  56.4874496  82.4998627
  57.0877228  55.1597786  81.7948456  13.4782887  30.5949459  75.1066589
  14.2143192  30.0576420  75.3995667  12.9157429  30.6711636  75.8773499
  39.4269829  40.5123825   0.7126029  40.3581657  40.3134384   0.8103355
  39.2900658  40.5590897  -0.2336024  58.6625366  65.3549500  82.0811996
  59.5851364  65.5725098  81.9481201  58.6724777  64.4504013  82.3941193
  57.1825523  47.7903671  33.0490494  57.3779221  48.2144737  32.2134666
  57.1691322  46.8551369  32.8456001   8.0417500  54.0714302  58.6002731
   7.9160781  53.4895363  59.3498306   8.4478760  54.8550110  58.9708061
  22.6665115  67.9707870  29.2751923  23.1973896  68.3739014  29.9621410
  23.3040295  67.5736160  28.6818466  54.3702354  44.9873772  18.8658752
  55.1693916  44.8097229  18.3698692  54.0752678  45.8404503  18.5472946
   0.8585999  23.1214714   2.2779481   1.5380266  23.6123867   2.7401309
   0.4624863  22.5685806   2.9514747  31.9118767   1.2227350  19.1048527
  32.7853699   0.8320020  19.0810204  31.6921673   1.2615402  20.0356884
  22.5768528  55.9562492   9.6761093  22.9648724  56.0588646   8.8071203
  22.1025562  55.1260948   9.6301231  63.3797951  29.0050278  63.5775032
  62.8497238  29.5868816  64.1222076  62.7816925  28.3011074  63.3265076
  23.9045906  69.7911377  30.7906246  24.8080616  69.5877609  31.0327206
  23.9193592  70.7227173  30.5711403  51.8715897  19.6522732  78.0018845
  51.4379196  20.4556885  77.7143250  51.6362190  19.0027390  77.3393631
  39.0912247  46.7369347  44.3159409  38.6509895  46.8871727  43.4793663
  39.9252205  46.3316917  44.0783310  24.4459171  65.2199860  49.3878174
  25.2323151  65.6972580  49.1231956  24.5117531  64.3796539  48.9342194
  85.1508484  48.6865234  83.3167877  85.5653458  49.2212067  82.6396255
  84.4530029  48.2183228  82.8584976  13.6749763  49.2961502  42.2818680
  13.4432850  49.9527397  41.6250229  13.9738674  49.8058243  43.0349464
  10.8093052  23.0835266  29.5874329  10.5543804  23.2413502  30.4964638
  11.3988657  23.8070583  29.3749466  58.4948082  16.4760227  47.8543739
  58.8514214  17.0905704  48.4957695  57.7363319  16.0878468  48.2905731
  80.3111267  31.5666370  39.5317383  79.7123337  31.5172901  40.2768860
  79.7662735  31.8721657  38.8064651  72.2896423  43.9806671  15.7982397
  72.2606125  43.6024933  16.6770878  73.0332413  44.5829659  15.8211126
  71.4382324  32.3683205  26.9239349  71.4191055  32.6123543  25.9985638
  71.8566666  33.1112213  27.3589516  36.2362900  66.3528442  56.3511009
  36.6753769  67.0464935  56.8433304  36.1614494  65.6286926  56.9725800
  22.8091297  15.5287085  88.0761261  23.3527985  15.7649736  87.3245697
  23.0777740  16.1352386  88.7661896  65.6642303   1.3207698  61.2957191
  65.2703018   0.5848655  61.7642250  65.0872955   1.4634213  60.5453606
  33.7504120  61.5134239  23.0620651  34.1434860  60.9024620  22.4388065
  34.0449142  61.2042236  23.9187412  31.8693981  47.3693542  88.9656448
  32.6074715  47.8448296  88.5843277  31.5188103  46.8506927  88.2415543
  69.3705063  36.1595955  68.0286255  69.6772461  36.2769852  67.1295395
  68.5132751  36.5851135  68.0467224  64.6962051  21.7929459  75.5275726
  64.7446518  21.5017719  76.4381256  63.7981339  22.1075954  75.4241943
  43.7816582  69.4059601  84.5064392  43.2165985  70.1784134  84.4904404
  43.9613762  69.2215347  83.5845337   5.5927129  22.2894745  11.1962547
   5.1065106  22.6444588  10.4520607   5.8082418  23.0551376  11.7287359
  66.4185715  17.8496380  77.0614395  67.3172684  17.9190750  77.3835602
  65.8918991  18.2994308  77.7221451  82.7281418  23.0634384  19.4040070
  83.3352051  23.1075535  18.6652489  81.9747009  22.5791836  19.0662937
  12.8709116  17.5023918  18.7510757  12.7964897  18.2702045  19.3177834
  13.8117647  17.4016418  18.6065845  76.7769699  32.5658646  15.1130114
  77.1334152  32.9360046  15.9205837  77.1620483  31.6911430  15.0600729
  73.2291794  24.9837208  40.0645866  72.9911652  24.2309113  40.6057510
  72.7477036  25.7165108  40.4485626  34.4510918   7.5878386  36.1498680
  35.3813782   7.4224105  35.9967995  34.4279099   8.0891399  36.9649696
  25.9976406  55.8664284  28.2424774  26.0488701  54.9631538  27.9299107
  26.3291779  56.3911858  27.5138168  35.5474243  21.3627872   1.9541134
  36.2568016  21.9278011   1.6478859  35.5121536  20.6534824   1.3123382
  18.6435127  46.5908623  27.2185497  18.6014385  45.8322182  26.6363811
  17.9874115  47.1954880  26.8718605  80.9032516  25.8234634  50.4321976
  80.4957886  26.2131538  49.6586685  80.2572403  25.9418869  51.1285324
  53.9602356  57.7668915  74.2543106  53.8593254  58.3875847  73.5326538
  54.5909538  58.1831436  74.8418198  71.3169937  70.6113663  76.7648697
  71.8018723  70.7265930  77.5820847  71.8676682  70.0309296  76.2394333
  38.4358292   1.0536925  17.2528362  37.9350586   0.3575147  16.8276367
  39.2974472   1.0168958  16.8375130  81.1472015  42.5522346  20.9741058
  80.3317642  42.4626083  21.4673214  81.1232529  41.8360023  20.3395405
   1.7917144  59.6039124  62.2189713   2.0771589  59.5261154  63.1292992
   2.6037970  59.6924362  61.7200546   9.1599751  59.6090698   4.1054740
   8.9668608  59.6887360   5.0395999  10.0012903  59.1537094   4.0728087
  22.3919868  34.5353889   9.5531607  23.1062946  34.4191360   8.9266777
  22.7399311  35.1466637  10.2024002  85.2359543   3.8709066  61.5244560
  84.3887939   3.4641800  61.7064705  85.0165253   4.7182021  61.1369362
  25.4960537  57.9563484  51.2673988  25.6818085  58.1756668  50.3543663
  26.3549557  57.7778778  51.6503677  42.0092316  29.2679710   8.6624241
  41.4190674  29.9261551   8.2953663  42.3029137  28.7608871   7.9055562
  20.3842030  67.3478241  30.7626247  20.6640472  66.5630493  31.2338505
  21.1839333  67.6805038  30.3552113  66.5340424  38.4721031  79.2613068
  65.8149033  39.1038246  79.2630920  66.4542465  38.0159836  80.0990524
  32.4593468  43.0670395  85.6976776  32.2011757  42.5592880  86.4669418
  31.6546154  43.5029640  85.4173050  23.8286495  11.2091446  59.5055847
  23.2617073  10.5587549  59.9200745  24.0789566  10.8118706  58.6714668
  68.6109543  58.6640167  48.2971649  67.8874588  59.0846519  48.7617607
  69.1158371  58.2286949  48.9840546  12.4353552  10.4330244  73.7150879
  13.2066050  10.4543400  73.1485672  11.6949444  10.5232973  73.1151962
  56.6005974  52.2339630  21.7936611  56.4290733  53.1033401  22.1555958
  57.1152382  52.4005508  21.0039654  68.9489899  30.2179718  24.9057789
  68.1580658  30.6369820  24.5665131  69.0598297  30.5888672  25.7812119
  24.4484367  56.6254807  80.1347046  24.2453518  57.5490456  79.9863129
  24.9632931  56.3676033  79.3700790  35.3122711  71.3647919  44.6816216
  35.6526375  70.7375565  44.0436859  35.6178970  71.0362244  45.5271225
  26.1484547  45.4390564  68.7460022  25.6339092  45.2796631  69.5372391
  26.7638626  46.1285019  68.9953384  55.6432686  24.8058376  19.6018696
  56.3931580  25.1157093  20.1096859  55.3608627  25.5708427  19.1006260
   9.8292274  48.0672913  14.3319044   9.0600452  48.0601959  13.7622204
  10.5098467  48.4923668  13.8100786  55.4360008  45.4504013   3.9949167
  54.9097977  46.0536995   4.5196800  56.0328941  46.0165863   3.5056446
  74.9583435  39.1934700  58.0726357  75.0110474  39.2447166  59.0270081
  75.4685974  39.9422302  57.7640305  72.5761032  13.6454105  41.1016006
  73.4691315  13.8764296  40.8459511  72.3851395  12.8468132  40.6096573
  54.6349716   2.9100981  56.0711937  54.6917877   3.1837828  56.9866753
  53.8017387   3.2684507  55.7653503  61.5203514  40.1439133   3.6568601
  61.0507431  39.8757057   2.8670723  62.4401093  39.9654007   3.4608760
  35.8749008  65.2853851  81.5702438  36.2341728  64.4655151  81.9093094
  35.5144615  65.0531464  80.7144470  22.2372036  42.4740105  10.5421143
  22.5649967  42.5489082   9.6459150  22.6395741  41.6731377  10.8781691
  18.6882076  31.0174809  84.3659134  19.4197178  31.2444096  84.9400482
  18.5980663  31.7716312  83.7833633  23.5236301  30.6124439   6.9077106
  24.2753029  31.1912518   6.7804179  23.1243286  30.9143391   7.7235851
  72.1071320  52.8958702  37.8630562  71.2023392  52.7489090  37.5874138
  72.2558899  53.8288155  37.7090759   9.6979504  54.3623772  81.9127121
   9.4062662  53.6262207  82.4505081  10.4645939  54.7054520  82.3718338
  74.3307648  27.4067478  66.3303757  74.0008392  27.7386436  67.1653824
  74.2908936  26.4544544  66.4185791  84.2288132  17.7345200  88.1397247
  84.8288498  18.2829399  88.6451111  83.6617584  17.3312054  88.7970123
  21.2550068  64.2038727  22.1376686  21.6561203  63.7069054  21.4246750
  21.2144413  65.1023712  21.8101215  22.5820274  51.4720993  55.5883026
  22.1122589  52.3033104  55.6564026  23.0046387  51.5054398  54.7300949
  46.6560326  31.3435268  14.9830389  47.3954048  31.7954922  14.5764809
  46.8549156  31.3531208  15.9193010  71.2081528  45.2991257  23.7085114
  71.7211914  45.0766640  22.9316349  71.6079025  46.1044350  24.0370026
  24.8767128   4.4913850   4.4203839  24.7105980   3.5967164   4.1233897
  25.4850349   4.8493252   3.7738121  72.7935410  37.2603607   1.4254085
  72.5873260  37.9042053   2.1030314  73.7437210  37.1559868   1.4754089
   6.3684049   2.5159023  43.9202843   6.1065001   2.4624922  43.0011635
   5.5858727   2.2583528  44.4076691  20.5991478  31.3919716  73.6070099
  21.3673973  31.4505806  73.0390396  20.6287594  32.1910439  74.1331635
  63.9215164  56.0247765  11.4230433  63.2479324  55.5073547  10.9816914
  64.7350922  55.7889862  10.9772558  31.9769840  58.5235596  83.9419327
  31.9969940  59.4631157  84.1237793  31.5327396  58.4525375  83.0970459
  21.2990189  69.6474991  14.5882921  20.9334583  70.4988708  14.3479404
  21.9022808  69.8398972  15.3061285  56.7496872   8.2998209  19.7089138
  56.6378822   9.2328672  19.8910007  57.3443947   7.9919033  20.3928299
  58.7144890  57.0765610  23.4624310  58.1058998  57.8147659  23.4323483
  58.9424438  56.9916534  24.3882065  19.3769360  62.7410736  11.7931881
  18.9479256  62.7895241  10.9388847  19.4407749  61.8037262  11.9763279
  46.5977554  60.9050140  24.6145000  46.0877953  61.7054329  24.7390079
  47.4144402  61.2014084  24.2127399  30.4970627  28.1952381   0.7409128
  30.7042465  29.1251945   0.6487891  29.7467232  28.1747150   1.3348817
  27.9451656  66.9151230  12.6287794  27.4525814  67.7309189  12.7186594
  27.4929638  66.4376831  11.9332266  51.0669479   5.4684410  62.1748238
  51.0594063   5.2031999  61.2551384  50.1428566   5.5012627  62.4222183
  86.1507568  53.5433846  19.1347752  86.8896255  53.9462166  19.5908775
  85.4038086  53.6860962  19.7161026  65.9708176  52.7986069  49.1866035
  65.1198349  53.2124062  49.0422668  66.4073029  52.8455200  48.3360100
  43.7065887  20.0918541  15.8809509  44.4309692  19.7457294  16.4022007
  42.9210320  19.7372475  16.2973461  80.5532150  54.0364304   9.9917965
  81.2425995  54.6569786   9.7553740  81.0219116  53.2348976  10.2243843
  32.8572731  12.8483915  85.0759659  32.2560959  13.3658571  84.5401993
  33.6631393  13.3644571  85.0980606  55.3005180  26.0883045  27.5060730
  55.4086647  26.8246956  28.1079578  56.1634827  25.6752834  27.4754314
  74.7319183  34.2325287  75.5492249  74.6474075  34.6797066  76.3913116
  75.2836838  34.8124657  75.0243759  82.7134705   1.2608581  17.2099037
  82.0566101   1.2545888  16.5136833  83.0758438   0.3749159  17.2052822
   3.2078583  11.0922432  11.8705673   3.9578211  11.6832361  11.9377680
   3.1436224  10.6874733  12.7355909  44.8572502  34.7567635  17.4786625
  45.7099648  35.1744614  17.3576756  44.9414940  34.2740974  18.3009567
  43.7894783  47.6479568  68.8602753  43.9822197  48.4601898  69.3286362
  43.1722717  47.1853256  69.4270630  86.3890762  39.2059326  45.9078484
  86.5835114  38.7510834  45.0883713  86.9231720  38.7572899  46.5633545
  21.7313309  39.8504524  65.3868256  22.3460255  40.5231743  65.0938568
  21.2742596  39.5804329  64.5903320   7.7051830  27.4267159   0.2711740
   6.9858065  27.6734543   0.8524222   7.5497613  27.9288712  -0.5287737
  76.4684143  14.0282221  68.4609909  76.6744537  14.7112551  69.0991516
  77.0207825  14.2312708  67.7060776  58.3986702   1.0292431  70.2380829
  58.0474052   1.4262356  69.4410629  59.0583878   0.4096870  69.9263840
  49.7880020  49.2098274  43.7361374  50.5054932  48.6635590  44.0571213
  49.1356659  49.1840324  44.4361534  84.0882721   3.2060888  74.2600784
  83.9170151   2.8298402  75.1234055  85.0392075   3.3108578  74.2288132
   4.4970918   8.0806150  28.5346794   4.2162480   7.4150581  29.1626854
   4.3513350   7.6785517  27.6783314  77.6735764  34.4042282   9.4695454
  77.4479065  34.8459167   8.6508789  76.8470001  34.3523598   9.9494562
  20.3680000  70.1988907  81.6534653  19.7091503  70.2809067  82.3429794
  20.4606991  71.0852356  81.3041229   5.4010687  67.4869614  72.5890045
   5.4765415  66.9231339  71.8191833   4.8820429  68.2333069  72.2892990
  83.2222061   7.3659925  82.0706787  83.5913544   6.9573698  82.8536148
  82.3123398   7.5509768  82.3033981  39.5593796  48.2966232   7.8727689
  39.9045906  47.9499359   8.6954889  39.9445610  49.1699181   7.8004837
   7.7819843  47.5440331  41.6825676   7.4162679  47.0358047  42.4065781
   7.2502642  48.3395081  41.6557198  10.9791069  36.0225830  82.9406433
  11.8495951  36.4161034  82.8804398  10.5268354  36.5421333  83.6052933
   8.4579849  46.9647675  84.9357834   9.3075914  47.1674995  84.5442505
   7.9153585  46.6844978  84.1987381  28.8987160  22.3173389  85.4751434
  29.2245178  21.8979797  84.6787643  28.0314865  22.6443901  85.2360153
  85.2941742   9.3728580  67.1592178  85.9529572   9.2813807  67.8476028
  85.1626816  10.3174582  67.0775452  71.2682800  64.7349319  72.6824112
  72.0702133  64.2273026  72.8066406  71.0117111  64.9975891  73.5663910
  18.7635117  22.4255810  76.4587402  18.0588226  21.8604412  76.1420975
  19.3586597  21.8323345  76.9170914  47.2470474  27.7129517  79.6410675
  47.6809349  27.5842571  80.4845200  47.2179070  26.8393440  79.2509460
  26.9902935  25.2674427  64.9433060  26.3842220  25.7163944  64.3539429
  27.6307297  25.9369736  65.1837311  81.5852356  19.7043037  80.9058990
  82.1291809  19.5120506  81.6697083  81.8565063  19.0613461  80.2507248
  36.8325195  39.4379807  55.1301270  37.0300941  39.4211693  54.1936913
  36.1140289  40.0651016  55.2121010  39.4055672   6.0308733  70.2393036
  39.7529793   5.8832874  71.1189346  38.7265930   6.6950073  70.3582611
  61.9687462  36.6120605   2.1821578  62.4937477  35.8217697   2.3088183
  62.0279236  36.7910652   1.2437085  24.6227703  23.2532825  77.7549667
  25.0560284  23.3369694  78.6043930  24.7531929  24.1033840  77.3347931
  43.5683556   2.8296669   5.6460505  43.0583305   3.5832705   5.3490801
  43.2803688   2.1094985   5.0851092  71.3467941   5.8535242  34.2397461
  70.9221191   5.6586967  33.4043312  72.0236053   5.1822505  34.3266678
  65.5459900  12.0655165  86.4693985  66.1212158  12.5606852  87.0526352
  64.6827927  12.4604940  86.5923157  80.9011078  53.4079056  52.5172539
  79.9955750  53.2062759  52.7530365  81.0005035  53.0615578  51.6304626
  32.6296501  15.7546930  64.7549286  32.5542221  15.1663408  64.0036697
  31.8231964  15.6142578  65.2510529  30.6112995  55.6469307  38.8329849
  30.5419979  55.0816345  38.0636559  31.0375977  56.4405441  38.5094452
  82.0435028  51.0223389  77.7825699  82.3928375  50.1819000  78.0789795
  82.5841675  51.2534790  77.0272675  48.2727661   3.5884488  62.3748398
  48.2197342   2.7582166  62.8482666  47.5061111   4.0808249  62.6681633
  51.7681541  38.8748589  18.4437752  51.5462875  39.6864738  17.9873924
  52.1726074  39.1630783  19.2620544  50.9689713  21.9493084  28.8312111
  50.3661995  22.4981098  28.3294983  50.5595551  21.0840893  28.8336277
   4.6513839  43.4678535  53.6534119   4.3113728  42.8244934  53.0315475
   5.1348872  42.9480476  54.2954903  14.6124477   3.5777194  31.8138008
  15.2673960   4.0429826  31.2934132  14.2249451   2.9491765  31.2046986
  59.8353195  66.7896271  51.8812485  59.9537849  66.3948059  52.7451401
  58.9787788  66.4766998  51.5903053  52.7119827  67.8493347  36.2064476
  52.3973007  66.9514923  36.3117218  53.0088272  67.8940735  35.2975388
  38.1855659  31.8568554  79.0415497  37.8516235  31.2659073  78.3666458
  37.4013023  32.2455521  79.4289474  67.4537659  65.1510391   3.9987965
  66.6142807  64.9489365   3.5856993  68.1080170  64.7876740   3.4020064
  58.1009178  52.5601387  75.3698502  57.8370209  53.4712677  75.4980392
  59.0511818  52.5989799  75.2615662  23.4658966  50.1288452  59.5900993
  23.9009762  49.6202736  58.9057808  22.7305431  50.5497665  59.1447754
  71.7112732  59.6718216   7.2889366  72.0820541  58.8455734   6.9789939
  72.2274933  59.8898506   8.0649586  16.6330395  32.7477531  12.2810526
  16.1675816  31.9150372  12.2025337  17.0036907  32.7326851  13.1634483
  20.7123299  70.6053314   1.1294173  20.1417961  70.6681061   0.3634001
  21.3620892  69.9442673   0.8905887  76.6184082  24.2379513  46.5507431
  76.6156845  25.1907120  46.6427994  75.7152939  24.0167065  46.3234482
  57.6236076  41.8554688  43.0917625  57.9756699  42.7379303  42.9753876
  57.2302094  41.8676872  43.9643021  29.1602135  18.8039932  72.2336960
  30.0514450  18.9505901  71.9167633  29.1449032  17.8810768  72.4871140
   0.9693691  37.0295906  59.4867325   1.5113533  37.8182106  59.5104485
   0.4308419  37.0852470  60.2761154   1.2184731  50.0874214   4.1321483
   1.9085029  50.5313988   3.6392264   1.4050926  50.2970161   5.0472841
  61.3772163  52.4607964  75.8949280  62.2166672  52.1471672  75.5584869
  61.1707916  51.8659172  76.6158600  50.8178101  58.5947380  28.9573517
  50.5083275  58.5089951  28.0556316  51.0783768  57.7080231  29.2064857
  65.7708588  17.7203922  53.3973541  65.9268951  16.8772430  52.9719315
  65.3562317  18.2565918  52.7214775  56.5428619  42.7057915  58.2638626
  56.3391609  43.3388710  57.5754280  56.2993469  41.8588829  57.8901291
  17.0478134  60.5855713  50.9846802  17.8924332  60.4476929  51.4134483
  17.2534199  61.1177750  50.2161026  74.5828400  24.9907513  72.0457382
  74.2416458  25.7575970  71.5855560  74.0008011  24.2767391  71.7856445
  18.5981636  67.6222382   6.8427844  18.1046104  68.2345886   7.3883719
  19.4049187  67.4618988   7.3323455  83.6788254  52.0508957  66.2746048
  83.9997482  51.4016533  66.9004898  84.3691330  52.7131691  66.2413483
  28.0344353  27.9665928   1.7565470  27.4640617  27.2297268   1.9754913
  27.4845562  28.5469666   1.2302082  78.4404068   3.8087704   6.3884139
  78.9109802   3.3219287   5.7118216  77.6509705   3.2921228   6.5499549
  57.5057716  69.9891510  53.8656197  58.0083733  69.2576141  54.2240677
  56.6167984  69.6464844  53.7731972   9.6405449  23.2745056  27.0686378
  10.2463646  23.4732552  27.7825794   9.9979486  22.4839191  26.6643276
  28.9082851  22.2687511  72.6060257  29.2200470  21.9671879  73.4593124
  28.8515186  21.4731178  72.0768967  40.5644150  23.9941196   5.5135040
  39.7235451  23.6827431   5.1785183  40.9639053  24.4491425   4.7721567
  44.6874313  23.1638393  10.0670004  44.1815071  22.7380219   9.3749380
  44.0419502  23.3706951  10.7428684  75.5590210  60.1213341  80.3960571
  75.4169998  59.1756592  80.3540955  75.6836624  60.3854942  79.4845123
  30.2270126  45.5710449  78.1552124  29.7396564  44.9203682  78.6605225
  31.0412407  45.1280708  77.9163895  57.5823517  50.4712944  15.9539719
  57.1191673  49.8926239  15.3483067  58.3699341  49.9839859  16.1957874
  15.6267252  24.9007072  67.7824936  16.4872456  25.3181801  67.8206253
  15.7989531  24.0290661  67.4263840   1.6471606  68.1004181  42.8637238
   1.9612701  68.3686676  42.0002365   0.6958759  68.0532303  42.7685242
  60.8475685  48.6648445  87.7298050  61.2119560  49.3755646  87.2022324
  60.5405235  49.0929337  88.5289841  85.6785965   3.7666466  85.1808243
  85.1442108   4.0411391  85.9260178  85.7813721   2.8218403  85.2948914
  36.0723686  59.2231102  35.3506584  36.1973572  59.9007950  36.0149994
  36.6993752  58.5390205  35.5854263  26.1675110  54.0101051  40.6361427
  27.0819969  54.1723709  40.4045906  25.9114189  54.7752876  41.1510658
  11.7393627   5.1683364  16.3541622  11.1471138   5.7988853  15.9444294
  11.1674070   4.4607444  16.6515026  30.8811016   5.0187001  36.7580795
  30.9924030   5.9336739  37.0162811  29.9443951   4.9320016  36.5811768
  75.5366898  19.5668678  42.3020477  75.2715988  19.1450825  43.1193962
  75.0114517  19.1350212  41.6283531  11.7853928   5.0868573  89.3569565
  12.1921949   5.6808152  88.7261200  10.8951654   4.9615183  89.0282974
  55.3318138  34.8091469  79.7194977  55.8266869  34.3477211  80.3965607
  55.6365547  34.4259415  78.8969879  65.7297821  41.8202591  68.5699692
  65.8506546  42.5856476  69.1319351  66.2154922  42.0297546  67.7722015
  53.6175919  70.0688705  70.1939392  53.6116524  70.4024963  71.0910950
  53.0312805  69.3125687  70.2157669  52.3305016  67.5301361  41.8306465
  52.3231812  68.2383652  41.1867638  53.0163765  67.7773895  42.4508667
  67.2152481   8.5090246  49.2140884  67.8346634   9.1962051  48.9684486
  66.3867264   8.7811594  48.8194771  -0.0412768  11.5597181  16.8111095
  -0.0296018  11.0378513  16.0087681   0.8193257  11.4141493  17.2040539
  58.2316284   1.2818936  56.7540703  57.5121765   0.9920453  56.1931725
  57.8031425   1.5943788  57.5509338  62.3896637  60.7846985  76.4036560
  62.9104843  60.1129265  75.9635315  62.5467415  61.5806007  75.8956223
  37.9184685   2.4564502  81.0965500  37.3050232   3.1511312  80.8571014
  37.7078629   1.7357951  80.5028076  67.6133881  35.7822838  59.2549477
  66.8621368  36.3419495  59.0583954  68.3594589  36.2366982  58.8636589
  66.6303635  56.3556252  23.1922569  66.2662735  55.6156654  22.7063198
  67.2386017  55.9573174  23.8148518  70.0933304  62.9695473  59.9370384
  69.9229050  62.8056526  59.0095024  71.0477905  62.9665680  60.0093613
  59.9699707  45.8087845  87.3902893  59.6735229  46.7189217  87.3910065
  59.8596535  45.5216751  86.4838486  80.1344147  48.0756683  78.9880066
  79.2564163  48.4507637  78.9197693  80.4489517  48.0363922  78.0848160
  15.8286037  49.8996353  21.7670078  15.8692493  49.3188057  21.0072594
  16.7406502  50.0030403  22.0385056  42.4725189   2.4413886   8.1919060
  41.8578873   3.1087987   8.4969091  42.8363533   2.8023839   7.3834891
  43.8625107  43.9722137  69.5722275  43.2466965  43.2398834  69.5986099
  43.5352554  44.5842056  70.2314682  46.5119095  29.4471035  88.9886932
  47.4113731  29.1205120  88.9655533  46.6035576  30.3939819  89.0947723
  15.8020220  20.3407021  18.0159988  15.5734777  19.4392109  18.2425232
  15.1539850  20.5941372  17.3586941  21.3357887   7.6644974   5.2471476
  21.6469460   8.4645052   4.8235893  21.6666985   6.9565597   4.6943769
  30.9980030  32.6370316  13.3078938  30.4238605  32.9271851  12.5990906
  31.2621746  33.4449196  13.7480736  47.9379730  19.0336742  82.1799622
  48.8567390  18.8881798  82.4056473  47.9675064  19.5007038  81.3449554
  50.4889679  41.8182602  31.4930229  51.4347267  41.6712303  31.4806099
  50.2930374  42.0403900  32.4032440  63.8661346  34.5519600  73.5039825
  62.9256783  34.4016457  73.4081726  64.1676025  33.8352242  74.0622330
  51.9152832  42.8070297   3.2330766  51.7293015  43.2390633   2.3994164
  51.1261024  42.2989159   3.4208171  17.7854004  50.6139183  23.3132114
  17.1560993  50.8717041  23.9868279  18.3838234  51.3580704  23.2471485
  79.2860260  70.6939240  13.3084183  80.1164017  70.6006317  12.8415031
  79.5342636  71.0064087  14.1784554  58.4262772  42.7987061   1.8840007
  57.5594063  42.7071800   1.4885347  58.2848320  42.6234474   2.8143291
   1.7921369   1.9490842  87.7020264   1.8316662   2.5949063  88.4074249
   2.2393234   2.3691850  86.9673386   8.0144711  55.3786354  16.4618225
   8.2695513  56.1929131  16.0281010   8.1943541  55.5345612  17.3889465
  30.7131977  45.7961006   7.6793642  29.7875500  46.0384750   7.6535850
  30.8004951  45.1129036   7.0146446  84.9396820  15.5453320  86.3850861
  84.6085510  16.0844288  87.1033936  85.3084488  16.1737175  85.7643051
   2.3995941  63.9774323  75.2828369   2.8984044  64.4197845  74.5960007
   2.0033014  63.2246857  74.8440247  70.4342041  27.8996220  21.9520073
  70.6646957  28.3698368  21.1507568  70.3173599  26.9918442  21.6717930
  76.8372574  50.0750313  48.5037155  77.7912064  50.1159592  48.4364319
  76.6608353  50.1293678  49.4429474  40.0192223  64.2977905  15.0310335
  40.4584923  64.5701065  15.8367138  40.7230263  64.2293396  14.3858919
  23.3498325  48.3504295   7.5562472  22.8080273  48.7367477   6.8681793
  23.2083244  48.9137039   8.3171215  32.0030518  25.8532219  88.3685226
  31.1081772  25.7204456  88.0557938  31.9708214  26.6853199  88.8405533
  67.9682465  55.6290741  33.1879120  68.7236710  55.3968697  32.6478615
  67.8310776  54.8656540  33.7488022  39.2804413  53.3192062  56.5467682
  38.6066856  53.5702324  57.1786461  38.8804207  52.6143913  56.0374107
  34.2547989  68.3814850  80.1091156  34.5531425  68.3163986  81.0162964
  35.0369530  68.6312408  79.6170883  55.9046822  38.5820885  40.3972664
  55.7046204  39.1979179  41.1022224  55.4952583  38.9649773  39.6213799
  13.4123859   1.7914226  83.1097488  13.7285500   2.4848382  82.5305710
  14.1621714   1.5850892  83.6678467   4.2690310  58.9978600  20.7067699
   3.9471402  58.9654732  19.8058987   4.6051917  58.1171455  20.8728065
  24.9166241  40.1653175  85.8278198  24.8940849  41.1211243  85.7813263
  24.1219215  39.8846436  85.3740616  14.8911896  47.9876137  61.4734917
  15.2825670  47.7894974  60.6227226  15.5963888  47.8359108  62.1027031
  59.8433533  29.5090752  69.2245941  60.7502937  29.2195702  69.3239670
  59.7913017  29.8287144  68.3238449  77.8157272  13.1808062  26.1745052
  78.5142212  12.8088388  26.7130051  77.8956680  12.7301769  25.3338051
  30.8746777  16.5932541   2.7740726  30.9621239  17.5091114   3.0382566
  31.7755871  16.2862358   2.6724164  65.5044098  33.7676811  19.6363869
  65.9261780  34.4067459  19.0619831  65.2221146  34.2776718  20.3956318
  46.8093033   6.6038294   3.1854870  46.5120773   7.5000677   3.3424733
  46.4565086   6.1022825   3.9204814  68.0375824  15.3435745  51.1096535
  67.1546707  15.5088959  51.4403572  68.5014572  14.9528570  51.8501892
  50.7539711  50.0817223  10.5737076  51.1423836  49.8490715  11.4170589
  50.6632500  49.2473450  10.1134710  52.6445580  63.8068810   8.9255581
  53.4993248  63.6521912   9.3276415  52.7413864  64.6439896   8.4715786
  42.1881523  12.2847071  69.0122070  41.9699402  12.9590015  68.3688202
  41.4811821  12.3301191  69.6559143  63.6876373  43.1822319  58.9150696
  63.6159973  44.0991669  58.6498718  64.4467545  43.1600304  59.4977150
  42.7671509  21.4749432  87.3963165  42.7678528  20.6954308  87.9518280
  43.6937065  21.6739998  87.2617722  20.1707611  69.0405426  52.4137459
  20.0790443  68.2194519  52.8970985  20.8292408  68.8525085  51.7449570
  71.5500870  62.2797470  26.3459988  72.0171127  63.1096306  26.4429970
  71.9314651  61.7107239  27.0145779  17.7535343  52.3481293  78.6757965
  18.3212013  51.5886841  78.8070450  17.7118168  52.7673645  79.5352936
  58.1359940  53.9284859  84.2747498  58.5246887  53.9382935  83.4000778
  58.2731361  53.0343781  84.5877762  80.7455368  36.9485893  59.0257645
  81.1690826  37.5136490  58.3795853  80.8430023  36.0647087  58.6715279
   8.1339245  52.5524178  50.8033791   7.4341187  51.9653931  50.5171814
   8.9173861  52.2240448  50.3622513  58.9940681   0.7028512   8.2648830
  59.1951752   0.7181199   9.2005939  58.1913567   0.1853700   8.2008371
   6.2245383  31.9425030   4.1596127   7.1417584  31.7844601   4.3831339
   6.2148213  31.9843197   3.2033758  48.2481461  35.6673584   7.8922215
  48.3344650  34.7165070   7.9604902  48.2447090  35.9732780   8.7992134
  49.2460480  53.2192039  52.7628670  49.5439110  53.8073349  52.0688858
  49.4585342  52.3428650  52.4417496  52.9581070   8.8490715  85.4926682
  52.9239426   9.7881193  85.3103104  53.4870186   8.4861975  84.7821655
  25.3388214  10.7420149  17.3756275  25.7272835  10.1916485  18.0556450
  24.5304737  10.2897596  17.1342316  74.1961823  27.2746811  81.3343277
  73.2983856  26.9432983  81.3539276  74.3917618  27.4905663  82.2461319
   8.1213598  36.5126648  10.1606178   7.8312464  35.6008377  10.1857500
   8.5568218  36.6487389  11.0020981   1.6341480  66.6293793  54.9447899
   2.5242658  66.9482651  54.7956886   1.1716912  66.8196869  54.1286125
  19.1238766   2.3907578  73.3824921  18.8574009   2.6709888  74.2581024
  19.9213505   1.8812922  73.5264053  41.2721558  68.3991394  54.1591721
  41.1624260  67.6032410  53.6388512  42.1474571  68.7140350  53.9335098
  49.3317871  32.3039284  51.1086960  49.7862282  33.0998344  50.8325577
  49.6011696  32.1777267  52.0184975  28.0004311  64.9265671  67.6147995
  27.8170261  64.2580338  66.9547577  28.8552151  64.6837158  67.9706039
   2.7991309  27.3760147   4.6290717   2.8343289  28.3314075   4.6761727
   2.0623798  27.1354980   5.1908379  13.3337011  57.7066307  59.9796867
  13.8186073  57.1551857  59.3656807  13.9685745  57.9188042  60.6639023
  66.3228149  45.5116005  38.6912155  66.0717468  44.7080345  38.2357140
  67.1133194  45.2749405  39.1763191  47.3341446  63.9729576  69.5673141
  46.9189873  64.1524048  68.7237091  48.0232201  64.6333084  69.6404343
  12.0797291  32.7702026  56.2324219  11.4478159  33.2589951  55.7051697
  11.7200365  31.8842773  56.2770309  34.7010727  25.1080780  14.4219828
  34.8422928  24.2112083  14.1188116  35.3670654  25.6226845  13.9660597
  63.8795433  31.6660423  71.7666702  63.3098717  32.0291367  72.4448013
  63.6475182  32.1504021  70.9743347  19.3439655  32.1654701  70.9533081
  19.3490276  32.0902557  71.9075317  19.7294235  31.3448544  70.6463165
   0.5366973  64.1193771  80.3365097   0.0013111  64.5216980  81.0204239
   0.3075587  64.5984192  79.5401154  55.0601768  29.3431435  24.1965885
  55.7865906  28.8038349  23.8840084  54.3540459  29.1794682  23.5714340
  41.4242821  64.8219833  60.3285522  40.8819008  65.6057968  60.2408714
  40.8260269  64.0958176  60.1524887  62.3012505  49.3556633  42.7867661
  62.3219147  50.1871986  42.3131027  61.3703384  49.1460075  42.8621063
   6.8673720  65.7458038   7.9110794   5.9283299  65.9289398   7.8812141
   7.1310792  65.9907532   8.7980347   7.7824244   0.5681854   2.2101851
   8.5132437   0.0048370   2.4646919   7.4913225   0.2172755   1.3685476
   8.5458727  42.4770393   0.9404550   8.9081287  43.3515854   1.0824780
   7.9096146  42.5930367   0.2347981  42.4142914  57.0146408  13.8473511
  42.4581680  57.4655190  14.6905689  43.3118973  57.0389290  13.5157681
  33.0612640  59.4593201  31.9101048  32.8947144  60.3744507  31.6841984
  33.1214485  59.4555740  32.8654022   1.9526852  58.5265541  79.9038086
   2.6623080  58.3310051  80.5157089   1.7287686  59.4402084  80.0807877
  70.9953384  30.8225441  41.7734108  71.7469101  31.3373890  42.0671921
  71.1644974  30.6598225  40.8454361  41.6055412  57.1432457  29.6317787
  42.1128120  56.8252831  30.3786449  40.8244858  57.5353279  30.0222263
   1.0477901   7.0092597  70.5634155   0.9132324   6.2219300  70.0359268
   0.6942609   6.7842932  71.4240189  12.9208946  11.7023430  18.5648746
  12.3481026  12.4095554  18.8615093  13.8001223  11.9845381  18.8169785
  26.1111546  46.5952606  59.8156548  26.7761669  45.9728889  59.5213051
  26.5855484  47.2014122  60.3846588  80.3352127  28.9988575  41.4518585
  79.7737122  28.3525066  41.0238647  79.7562790  29.7408600  41.6264877
   5.1571093  68.8773880  78.4637070   4.2661309  69.0059662  78.7890625
   5.3074913  67.9354172  78.5431366  52.7312164  39.8683586  31.8442001
  53.1659889  40.2883415  32.5863724  53.0485268  38.9654274  31.8603630
  30.1529331  68.8632126  88.5380783  30.0918751  68.0585480  89.0528870
  30.0801182  68.5721283  87.6291275  48.1767616   2.1690536  56.9623642
  47.8704529   3.0605996  57.1283531  49.0831985   2.1660676  57.2699242
  63.8205452  32.0516815   3.3942485  64.5901794  32.1318398   3.9576936
  63.1082039  31.8260288   3.9924796   6.2722039  52.9494934  79.6887207
   5.5702829  52.3748245  79.3832779   6.1715069  52.9655685  80.6404724
  85.9256897  47.5614624  41.9054375  86.3250046  48.3388710  42.2958412
  86.1902237  47.5923958  40.9860344  29.6263123  56.7474747  21.9344177
  30.4657955  56.5591164  21.5148716  29.0199280  56.1129723  21.5523968
   1.2566022  46.1762772  37.5771828   1.6717361  46.9708900  37.2417946
   1.5148314  45.4921455  36.9595146  27.2159977  43.5831337  20.3681564
  27.3822289  44.4489670  20.7408943  27.2197647  42.9931412  21.1218987
  65.5210495  66.1439667  87.9031067  64.9015350  66.8636627  87.7828445
  65.2003250  65.6783981  88.6755142  20.6945381  68.8993988  62.2557564
  21.4575615  68.3438263  62.4150352  21.0482998  69.7881775  62.2217789
  60.5012932  17.5639534  56.4215202  61.0746193  16.8634415  56.1103745
  61.0999413  18.2486629  56.7198906  70.4776077  40.8108864   6.3816814
  69.9840240  40.3590660   5.6972375  70.9059982  40.1087074   6.8712358
  77.3803787  35.1699867  52.8917542  77.8650360  35.7854042  52.3416595
  76.6807404  35.6954041  53.2799187  35.2075996   3.1321614  47.9390907
  35.3819046   3.2313669  48.8750420  34.3672485   2.6756110  47.8990326
   4.1546345  61.9172783  85.4554367   3.7226260  62.2591248  84.6726532
   3.5932136  61.1976776  85.7439041  65.5143204  36.2737045  26.9388485
  65.7392883  36.1121979  27.8551083  65.3269348  35.4056511  26.5816326
  42.3671455  45.8274117  70.8717194  41.5705643  45.5434418  70.4233322
  42.1883621  45.6718941  71.7991257  70.6758499  26.0832996  54.8761215
  71.6020279  25.9070225  55.0415077  70.5994110  27.0357399  54.9331131
  74.7965851  54.7222557  69.2554550  73.9301910  54.9221230  69.6099167
  75.2043915  55.5780334  69.1229019   4.1099238  26.0854969  68.4609528
   3.9173865  27.0023499  68.6572723   3.8285053  25.6090984  69.2420273
  74.5761566  37.5007019  46.4209366  74.0975037  36.9632797  47.0520439
  73.9081116  38.0647163  46.0312805  79.5859604  49.9270058  30.7796612
  80.3845367  50.0725975  31.2869148  79.0541611  49.3520126  31.3299427
  62.1838951  34.1620560  65.1737289  62.7913399  34.3665237  65.8846664
  62.7472954  33.9057732  64.4435730   0.4387448  54.5285721  76.5732574
   0.0490736  55.3543854  76.8603439   0.6451555  54.0659943  77.3854446
  45.2972908   3.6620145  59.4496651  45.5430031   3.4918392  60.3590050
  45.8256454   4.4189467  59.1964340   1.9774495  68.4584579  70.1933975
   1.4055809  67.7161560  70.3888245   2.5165951  68.1592026  69.4612808
  68.8573380  25.0131512  19.0122356  68.6358490  24.1184330  19.2704105
  69.6113129  25.2398338  19.5566349  23.2363815  57.2330742  87.2739029
  22.8110123  57.5497932  86.4770432  24.1704159  57.2371407  87.0646286
  45.4508095  20.8389339   7.2353930  44.6480980  20.4341393   7.5640702
  45.8316994  20.1793022   6.6557026  80.5940018  60.9752502  70.2522125
  80.7607117  61.8572388  69.9197388  81.1529846  60.9012299  71.0257034
  77.1154938  43.9364510  77.7954941  77.1658020  44.3015633  78.6788940
  76.4727020  44.4849892  77.3458710  48.5699196  14.8797731  15.6957970
  47.6934929  14.5000553  15.7584505  48.9634972  14.7165527  16.5529366
  57.8540497  28.7760601  63.0500336  57.9874191  29.3742905  63.7852669
  56.9896889  29.0051994  62.7085648  82.0517197   5.0340781  49.5138397
  82.5638504   5.8407240  49.5710678  81.8481064   4.8146343  50.4230270
  75.8488541  57.5867958   3.3762085  75.2799606  57.0104980   2.8658378
  75.2515869  58.2160454   3.7806287   9.5445776  27.8575516  85.1541367
   9.3821144  28.6855125  85.6061478  10.4731636  27.8885460  84.9239197
  15.6460352  54.4880371  61.3965683  16.2426300  53.8372574  61.7664261
  14.8930759  53.9792023  61.0959473  30.2987862   8.1693907  35.7529449
  30.8840485   8.9267435  35.7421722  29.8816395   8.2012825  36.6138802
  28.7387638  34.1462402  78.3038864  29.2438354  34.8829346  77.9597702
  27.9623089  34.1065483  77.7455139  20.2595310  41.1637993  60.3683205
  20.1350250  40.2397461  60.5847778  20.9170227  41.1603622  59.6726723
  24.4152603  71.0908127  19.1139431  24.4282532  70.1347122  19.1580410
  25.2875996  71.3558960  19.4054604  78.2213516  19.3144245  42.9704514
  78.0909119  18.5433731  43.5224457  77.3374252  19.5786076  42.7152634
  14.2956810   3.6260147  45.7521362  13.6656303   3.1926649  46.3278770
  14.8898630   4.0825205  46.3477745   5.9336658  39.1600685  88.4694977
   6.3262935  38.7156029  89.2208481   5.3671317  39.8280640  88.8555679
  19.6879807  50.1750450  72.3078690  20.2488174  50.7592697  71.7975998
  18.8832932  50.1063423  71.7940750  45.6006317  69.2799988  25.2701969
  46.0173950  69.7327652  26.0033703  45.3318253  68.4354858  25.6318245
  20.5159550   3.9855235  81.6465988  19.5707664   4.0946412  81.7512131
  20.8833065   4.2614632  82.4863281  62.5119019   5.2559338  65.4317856
  62.8812599   6.0889368  65.1386871  63.1253967   4.9425125  66.0963364
  36.5581741  10.6665125   9.1818390  36.9068604  11.2273417   9.8747463
  35.9802895  11.2395611   8.6779575  69.2253342  54.7372284  39.9239960
  69.7985764  54.9676552  39.1928825  68.6545105  55.4982681  40.0298691
  63.6308365  20.8080235  24.2019787  64.2787170  20.9494762  23.5117073
  62.8116875  21.1382198  23.8329296  58.0138359  40.7935791  37.7648392
  57.6421623  39.9133759  37.8225975  57.8341599  41.1859779  38.6192207
  47.9800072  34.1353188  20.4795589  47.6776657  35.0434456  20.4683113
  48.9344292  34.2010078  20.5110817  66.0718536  16.0664310  -0.2912624
  65.4056168  16.5736065   0.1725602  66.4455719  15.4932156   0.3780580
   2.4856889  32.5155830  22.7094040   1.9650759  31.7864742  22.3723679
   2.9288054  32.8699722  21.9385033  79.6858978  48.2046776  18.9754772
  80.3872833  48.1463966  19.6242409  79.0566330  48.8165703  19.3573704
  43.8510170  63.9281235  45.5877533  44.6317215  64.3234406  45.1998672
  43.3195343  63.6617165  44.8375626  74.8444595  67.8941269   1.5339166
  75.3625870  68.6442795   1.8255370  73.9547043  68.2364578   1.4479852
  83.8211441  24.2684727  30.2718430  83.2480164  23.7060318  29.7508640
  84.5388870  24.4931698  29.6797352  28.5009460  58.7218590   2.3381932
  28.0485497  59.5145760   2.6265869  28.4209824  58.1183014   3.0768116
  77.4792252  59.0386658  48.8790703  77.0115204  59.4487267  49.6066246
  76.8618240  59.0718575  48.1483574  79.6595001  49.4862213   1.6124721
  79.1329498  49.3337898   0.8277803  80.5336990  49.6879578   1.2788378
  55.3195992  59.6456070   4.3487840  54.4750748  60.0901756   4.4220562
  55.9113770  60.1642532   4.8937969  42.2406883  30.3693886  86.9513626
  42.8541603  30.8064671  87.5419922  42.4935722  30.6696224  86.0783539
  10.6575422  35.7711639  55.3136215  10.5236893  36.4782486  54.6824760
  10.7392855  34.9830437  54.7765808  63.6913300  21.2896709  16.4746895
  63.7934303  20.6800098  17.2055244  62.7670441  21.2233944  16.2348309
  71.4534149   8.3996258  35.6493950  71.6043625   7.4992085  35.3618240
  71.2162247   8.8697653  34.8500557   4.9309788  64.8676376  16.9458809
   5.2201843  64.0521851  16.5364552   4.8086863  65.4727097  16.2143326
  71.1262131  26.9822044  28.6990509  71.9488831  27.1891441  28.2556286
  70.7960663  26.2084198  28.2424450  12.0619545  41.9559250  14.0624189
  12.7362242  42.5581551  13.7479105  12.1830540  41.1651611  13.5368185
  73.7555542  40.1721725  19.8962765  73.3891449  39.4058914  20.3376236
  73.6747818  39.9727745  18.9635658  64.0187683  16.7825737  43.3157959
  63.1225967  17.0541973  43.1174812  64.1418533  15.9774771  42.8129044
  36.6172714  56.0270348  49.5787964  37.2116814  55.3120308  49.3514709
  36.7873306  56.1943321  50.5057907  75.2925415  55.5345573  21.0031033
  74.5929413  55.6348305  20.3575516  75.9429092  54.9833908  20.5678158
  42.1571312  40.5698204  89.1352921  42.4216690  41.4204712  89.4855042
  42.0795212  40.7127914  88.1920166   2.6889565  47.7550659  18.0376072
   3.3555279  47.5118027  17.3951626   2.9512708  47.3011894  18.8384933
  22.1860294   2.8540003  51.2776299  22.4729786   3.1962581  50.4310188
  22.6232681   3.4109063  51.9217644  48.2081871  28.2241573  10.5259180
  47.9500847  27.5207672   9.9302206  47.4689789  28.8321381  10.5131683
  23.8165169  69.0729675  69.5107269  23.4657955  68.2665939  69.1325836
  24.5112209  69.3378372  68.9078445  66.1977234   3.8581080  42.1681519
  66.1809235   4.4918661  41.4510040  65.2756348   3.6707926  42.3439102
  71.0021286  62.3620491  41.9292107  71.1822052  61.4219437  41.9319077
  70.1771317  62.4492569  42.4067001  54.7506790  13.9287825  63.5615692
  54.5263023  13.0422516  63.8443222  55.2805290  14.2813253  64.2765579
  32.6161613   4.3759394  20.5578728  31.8576565   4.2614384  19.9853401
  32.7602692   3.5104454  20.9404736  28.0344849   4.8082571  35.2829208
  28.1470890   4.0559502  34.7018967  27.9251690   5.5531592  34.6918182
  51.7859421  38.5499687  55.2379456  51.6307411  38.9721451  56.0828781
  52.3994980  39.1313934  54.7887993  63.1895180  36.3155441  81.1093445
  62.3567047  36.3619461  80.6397705  63.0437622  36.8250961  81.9064331
  57.7940865  36.4688873  29.0854359  57.0094452  36.1697388  28.6260071
  57.6494560  37.4052238  29.2217846  78.3912354  57.4223480  34.1027565
  77.9663544  56.5659866  34.0542488  78.1627045  57.7542725  34.9709892
  70.1787949  23.1577682  60.4403000  70.0686874  23.5359631  59.5679016
  70.2102737  23.9135990  61.0267830   0.0714468  40.4816170  39.3235779
   0.4512626  39.8902550  39.9733963   0.0773547  41.3395309  39.7480583
  48.3501396  68.0736771  13.9444218  48.2913132  67.2479630  14.4250135
  48.3100014  67.8178406  13.0229177  23.9112377  28.9434528  11.2407904
  24.0584526  28.3440151  10.5091934  24.4305496  28.5788040  11.9574347
   4.2982340  53.5815582  55.5161362   4.3126888  54.2485428  54.8297272
   4.1537023  52.7592316  55.0480385  46.7922859  50.9872093  41.4596024
  47.6414680  50.6258430  41.2055702  46.2821617  50.2268066  41.7385216
   8.0096359  43.8138046  47.1759872   7.6956506  43.1847343  47.8255386
   8.8880768  43.5073662  46.9508896  51.2580948  25.7668190  70.3795242
  51.6550446  25.2236366  69.6986313  50.6851425  26.3675404  69.9029846
  73.7954102  60.2234383   9.4957266  73.1720734  60.6012459  10.1161661
  74.5817184  60.7613220   9.5886593  44.4166756  42.4659996  12.8400183
  44.5604019  43.0744705  13.5648203  44.5872803  41.6020584  13.2151575
  12.3347101  24.6602917  16.9232407  11.7636328  24.9816952  17.6209526
  11.9810028  25.0520153  16.1246948   5.1471515  42.5220642  40.5195389
   4.7185302  43.3531647  40.7239609   4.4300046  41.8908119  40.4607849
  73.6862335  67.5588303  15.5979729  72.7694855  67.7968674  15.4596024
  73.7331924  67.3137283  16.5220680  40.9636192  68.9236374  89.1323776
  41.6996269  68.5721512  88.6313934  40.6794777  68.1947479  89.6839371
  57.6111603  13.0105953   0.9619403  57.0893326  12.4863634   1.5694839
  58.5156746  12.8744020   1.2439657  12.3356380  50.3626137  72.9878082
  11.6500530  49.9159698  73.4845123  13.0339413  49.7130661  72.9060059
  66.9445190  49.0391197  60.3359604  66.0838928  48.8362808  60.7025795
  67.2609406  49.7747040  60.8603897  39.1851768  61.8983803  15.6657085
  38.3522835  61.7997093  15.2044258  39.4621773  62.7937088  15.4710493
  50.5169182  58.6769447  44.1355362  49.6660042  58.9598236  44.4704285
  51.1309967  59.3398514  44.4512825  59.9300652  38.5767136   5.3205962
  59.2288361  39.2018051   5.5043588  60.4200172  38.9716148   4.5993276
  79.4832916  43.2183609  60.9482193  80.1984863  43.4110565  61.5545273
  79.7657852  43.5980606  60.1161995  86.2748184  34.5397491  61.6527672
  86.8298645  33.8751068  62.0606956  86.1981049  34.2606430  60.7403793
   9.4925261   7.0607753  80.6575470   8.8061380   7.7013574  80.8439789
   9.0183697   6.2598457  80.4341202   0.4829751  15.1942425  33.4450798
   0.5449119  16.1036510  33.1528931   1.1527334  14.7340164  32.9392662
  53.2563324  10.3713264   9.6020994  53.1901703   9.7122965  10.2931366
  52.4762802  10.2339411   9.0646267  40.0389442  60.1449280  72.2275238
  39.1638222  60.1662064  71.8403015  39.9407501  59.6050606  73.0118256
  75.1109619  59.3056412  29.7575531  75.6089935  58.4884033  29.7397022
  75.7585449  59.9849243  29.5692883  29.1319122   1.0518863  50.7461052
  28.2613811   1.0463434  51.1440697  29.7289181   1.2067870  51.4781036
  47.7498055   9.9245358  46.1924095  47.4342041  10.6107979  46.7803497
  47.3676491  10.1429329  45.3424149  74.9909897  29.7360725  75.6837311
  74.4070129  29.1071854  75.2598190  74.6640854  29.7992516  76.5811615
  48.5802116  71.7287827  85.9919052  48.2434158  71.7567749  85.0963516
  49.3284988  71.1335068  85.9478836  13.3390083  41.0375900  76.2690964
  12.4586725  40.6633873  76.2342682  13.5465441  41.2467766  75.3583832
  18.2775631  47.2159157  10.9066076  17.9662590  46.3409958  10.6745796
  18.9427376  47.0632820  11.5777836  13.6307802  54.5563889  72.6993713
  13.2858744  53.8167877  72.1991119  12.9517298  55.2277679  72.6332474
  50.5471802  71.1009140  82.6505508  51.0672531  70.3111267  82.7988510
  51.0772400  71.8089600  83.0165176  13.0317764  64.3973160  47.2470741
  12.8529177  64.8468857  46.4211617  12.4719086  63.6212883  47.2234840
  36.7198753   3.0428736   0.9294443  37.4287720   2.7029235   1.4754591
  36.0731735   2.3374469   0.9099858  39.2902832  63.6561584  20.4975948
  38.8940353  64.5274887  20.4947720  38.9481087  63.2348785  19.7091351
  42.4904518  47.0792236  73.7425919  43.1496735  46.3866005  73.6986542
  42.9692688  47.8796120  73.5273056  67.1728134  37.2538948  72.8512650
  66.9542999  37.1729469  73.7796707  68.0434799  36.8635216  72.7752075
  57.0373688  39.7012215  69.7784805  57.3784409  38.9679680  70.2905807
  56.2408066  39.3596420  69.3722305  12.5949297  13.7780275  20.3200512
  13.4613724  14.1841841  20.3434334  11.9856997  14.5062056  20.4418182
   3.5831480  47.5505142  21.8108540   3.2348945  46.6589127  21.8099575
   3.9585278  47.6601486  22.6845245  33.9323273  47.5727196  66.0880280
  34.5826836  48.2734222  66.1357803  33.7553024  47.4735947  65.1525726
   6.6356587  48.5800133  21.3265858   6.4611187  47.6705704  21.0843391
   7.3105798  48.5224228  22.0028973   8.1681929  60.4956551  40.4671593
   8.2836294  59.7826309  41.0952568   9.0479136  60.6608391  40.1279869
  34.5005951  47.9803925  29.2081852  34.4333649  48.7266846  29.8038006
  33.7697563  48.0925140  28.6002903  14.5945168  62.5593224  22.0749779
  13.9373112  62.0029716  22.4930515  14.8508291  62.0776367  21.2885208
  49.0290298  61.4918709  20.5705967  48.1230774  61.1904411  20.5026073
  49.3871498  61.0082207  21.3149529  73.5890961  19.6067028  79.0882797
  74.3736649  19.7836075  78.5692596  73.6132660  20.2586269  79.7887421
  73.8502579   2.6124511  14.1750660  73.6429443   2.3009698  15.0561066
  73.7146530   1.8494642  13.6131983  38.0288200  32.4509239  65.8463974
  37.9381142  33.0325508  65.0916061  37.2917747  32.6777115  66.4134674
  72.7172012  42.0336533  50.1630859  73.0636673  41.2320137  50.5549583
  73.4633789  42.6328964  50.1441841  62.1861458  63.4557571  80.8172302
  61.8301888  62.6568222  80.4283447  62.2756653  64.0611038  80.0811691
  82.6100311  20.7446918  63.5453072  83.0297546  21.6044369  63.5152779
  82.6721115  20.4797783  64.4630203   2.2276003   9.3014717  50.0026665
   1.8398508   8.6355200  50.5704575   3.0705035   9.5018892  50.4095802
  25.7250557  37.6120796  83.3527374  26.4274902  37.4104424  82.7345505
  25.4289474  36.7574005  83.6659088  48.9758759  50.2159271  61.4008980
  48.1975784  50.1626015  60.8462410  49.3118134  49.3200531  61.4289742
  80.9511185  18.7195129  57.5677795  80.9161835  19.1709824  56.7244606
  81.8834000  18.6835308  57.7817459  56.4751205  11.0751429  19.4413815
  55.9720764  11.8894644  19.4335938  57.3178368  11.3104782  19.0532112
   5.0488620  44.7468300  59.2499504   4.8876243  44.2150803  58.4705429
   5.9740014  44.9850998  59.1901512   6.2602401  58.8935432   0.9651026
   5.9014874  59.7695160   0.8229687   7.1962261  58.9863319   0.7874734
  28.5851402  13.1598663  88.1178665  28.7840633  14.0446320  88.4242172
  29.2478619  12.9829102  87.4502411  42.6786346  25.5992966  69.1759262
  42.8152199  24.7261505  69.5436096  41.8667183  25.5237541  68.6746140
  36.6345787  25.4339867   4.0662599  36.3051605  26.3320541   4.0317554
  37.5868225  25.5268841   4.0373883   9.0096035  51.1661530  44.5421066
   9.3622160  51.9647675  44.9346771   9.6485691  50.9269867  43.8707237
   1.8444977  42.5506783  57.5137749   1.9361601  42.5688477  56.5611458
   0.8990800  42.5436249  57.6633339  35.3202362  49.4086761  69.4538345
  36.0103455  48.9129295  69.8945312  35.6767731  49.5954208  68.5853653
  37.2270889  32.5330620  17.8980789  37.5209160  31.8171501  18.4614334
  37.4124260  33.3256760  18.4017105  37.7298355  44.2124863  19.5287838
  36.9133301  44.3002014  19.0369892  38.2706413  43.6317673  18.9935055
  36.9212494   7.0562882  73.3890076  36.1928787   7.4221821  73.8908310
  36.7850761   6.1095014  73.4248276  18.9670372  44.0927010  25.4978924
  18.8199234  43.3658485  26.1030998  19.2019939  43.6719360  24.6708584
  74.6587906  60.3378601   4.1102934  74.3922348  61.1465912   4.5474749
  75.2656174  59.9229736   4.7233710  47.7844048  38.6896629  71.8201141
  47.8464546  39.5230293  71.3533401  48.6932945  38.4417839  71.9895477
  29.2510948  19.5519466  13.0844593  29.5585365  20.4462185  13.2327452
  29.8871899  19.1780052  12.4747190  17.7293262  42.6188240  74.7078857
  18.6693707  42.4433022  74.6661606  17.3485966  41.8065491  75.0417786
   4.2649546  67.7215881  54.9224281   5.1938291  67.7649384  54.6953964
   3.8095982  67.7994537  54.0840874  54.2533913  11.2863188  63.9871712
  54.4641647  10.4342709  64.3690338  54.3298416  11.1510019  63.0426712
   6.4680924  21.8233089  44.9053612   5.8071446  22.4810982  45.1214485
   5.9758911  21.1185017  44.4843903  62.3615990  53.4811440  84.8151779
  61.8878517  53.8785019  84.0844955  61.7064781  52.9452896  85.2622910
  11.9693365   1.6355958  29.8507385  12.0786066   2.1614363  29.0584106
  11.6582365   2.2566319  30.5093441  80.1683884  39.0463905  27.9083233
  80.6872635  38.2423210  27.9300632  80.8108139  39.7423363  27.7698383
  74.7347336  53.2258644  26.4730053  74.9022598  52.3141022  26.7114487
  75.1427765  53.3274078  25.6131077  68.6276474  64.9580460  60.7520370
  69.3090591  64.3252716  60.5250969  68.1470718  64.5454483  61.4697037
  73.7349091  25.2650261  28.5854988  74.4617462  24.7819252  28.1923656
  73.5370407  25.9561691  27.9535179  18.8042297  54.1052933  85.1251526
  19.5316830  53.7302856  85.6215515  18.0222950  53.8426056  85.6107483
  82.4028625  24.6873074  14.4283123  82.9333649  25.4831791  14.4655542
  81.6264801  24.9401321  13.9287701  65.3962555  65.3298721  68.5608978
  64.8739548  66.1140213  68.3919525  66.0084991  65.2870407  67.8263626
  78.1216583  45.8559303  33.4583015  78.9095612  45.4609299  33.8316803
  77.4116211  45.2719269  33.7247849  84.0169678   2.0916553   6.6490226
  83.9990692   1.8178755   5.7319856  84.2123489   1.2901711   7.1344934
   8.8808146  35.8150139  61.6404533   8.8758068  36.7473717  61.4238586
   9.5157290  35.7379723  62.3526192  84.5737762  47.0947762  35.4292412
  84.9062576  47.7869225  34.8577309  84.3847504  47.5374908  36.2565918
  49.9477654  57.2774162  81.6999207  49.1558800  57.2633553  82.2374649
  50.6348419  56.9438171  82.2768707  72.7662201  68.2117157   7.3647776
  72.9647522  69.0451889   6.9380002  72.9654846  67.5500336   6.7024317
  65.6776199  29.8243752  62.1815224  64.9375610  29.7882462  62.7875252
  66.4314957  30.0258923  62.7358627  61.0437126  49.6259842  52.5477104
  61.1016731  48.9029884  53.1723289  60.1616211  49.5568619  52.1825142
   1.0606465   9.8110399  30.0393410   0.2019827   9.9673338  30.4324055
   0.8676761   9.5448112  29.1403885  47.1857071  63.2075500  11.9801378
  48.0307655  63.5378685  12.2850857  47.3168182  63.0395737  11.0469570
  58.2094421  49.4929161  53.3033943  57.7089577  50.0780830  53.8720131
  58.1543503  48.6383743  53.7311287  23.4821072  59.0043030  82.4136658
  24.3294811  59.3660393  82.6731567  23.3703194  59.2841263  81.5051270
  45.5029411  18.9088688  65.6800079  46.3867645  18.9671574  65.3171082
  45.0274849  18.3512077  65.0642242   7.8011737   3.8112767  68.0670319
   7.9698396   2.8928938  67.8564224   8.6580143   4.1628208  68.3088455
  16.9978104  65.8816986  41.6049652  17.2458191  66.7835083  41.4013367
  17.3886986  65.3614655  40.9029694  12.1190357  10.8748379   1.7358925
  11.5684795  10.1812735   1.3724532  12.2052383  10.6513367   2.6626332
  39.8586426  71.4207611  52.1196556  39.6385498  71.4725876  53.0497665
  39.0394096  71.1690826  51.6933365  55.1209526  44.2087059  66.5229263
  55.4932327  43.3625183  66.7711334  55.1345520  44.2048874  65.5658340
   9.2466803  10.5969076  58.6639977   9.7392035   9.9432964  58.1675644
   9.9091101  11.0518522  59.1840401  70.0308914  61.6235580  88.3536224
  70.6060944  62.0978775  87.7532959  70.5928345  61.3964157  89.0944748
   4.4737206  48.6277771  12.7428455   4.4165659  48.1692314  11.9045725
   3.8236148  49.3273392  12.6779919  27.1279831  59.0195389  72.1303864
  27.9008770  59.2253113  72.6562424  26.4171448  59.5047646  72.5493088
  45.5724297  69.2045364   1.8924391  45.4908524  69.9196472   2.5234568
  45.0616760  68.4899597   2.2728984  14.6985331  66.9075623  60.8416443
  15.0424843  67.7913742  60.7120056  14.0902653  66.9925690  61.5758209
  86.8432693  45.8016777  34.3732834  86.0267487  46.0974503  34.7758408
  86.8508987  46.2196236  33.5121803  76.4019241  56.9927750  88.8293762
  76.0629578  56.4758797  88.0985184  75.8715820  56.7236176  89.5793915
  84.2667542  23.6039085  26.7032871  84.0372238  22.9923668  27.4029770
  84.2090530  23.0835915  25.9019299   5.8542056  57.1343231  73.4929962
   6.4178581  57.6056557  74.1064835   5.3743505  56.5113564  74.0387802
  12.3822289  62.2037354  70.9132080  12.0450468  61.8110962  71.7184219
  11.6278973  62.2280235  70.3244629  35.9428711  55.6152573  79.5319595
  35.3450317  56.3519516  79.4050598  36.5027771  55.6247063  78.7556534
  73.7310410   6.3064852   4.1787481  74.4631271   6.6412010   3.6608198
  74.0098495   5.4319925   4.4503379  14.6760988  33.6882324   7.0017447
  15.0777874  33.8236923   7.8599567  15.3774061  33.8733521   6.3771391
  41.5467911   1.0683591  77.3309708  42.0293236   1.1140488  76.5055542
  40.9589577   1.8234104  77.3068695  52.0712547  35.8557472  24.7232304
  52.2629356  34.9277344  24.8584290  51.1846733  35.9695549  25.0656548
  80.0554199  44.3575134  82.7527008  79.6954193  44.6259384  83.5980225
  80.9065094  43.9746437  82.9655228  49.0200691  38.6694336   9.8010826
  49.1857948  38.6788940   8.8583860  48.6173210  37.8166847   9.9649200
  19.2696667  54.4513016  62.3684616  19.4743366  53.5836029  62.0199699
  20.1001759  54.7691650  62.7226524  32.0197563   2.4754457  24.4018669
  32.8765106   2.5639329  24.8194523  31.4158192   2.9180975  24.9981461
   4.0046458  63.4357948  67.3627090   4.3566089  63.3648453  66.4753952
   3.2175145  63.9718018  67.2660065  62.1651306  37.8438530  39.5089493
  61.6702347  38.5880165  39.1661224  63.0805092  38.0663261  39.3391838
  55.6990967  37.0897369  56.5631332  55.1265373  36.3823929  56.2663651
  56.2865257  37.2483711  55.8242188  33.6003189  59.8714523  87.3775940
  32.6445732  59.9101830  87.3418198  33.8896446  60.4143639  86.6442642
  30.8004646   8.7800112  76.2764969  30.6271553   9.6507683  75.9187546
  31.4521313   8.9279814  76.9618149  43.5492744  47.5223160  88.8716736
  44.1733322  46.7970428  88.8441086  42.8900375  47.2469749  89.5087204
  65.3151398  56.1958923  86.2929993  64.8445129  55.4630013  86.6900024
  65.4446716  56.8148003  87.0116196  69.4010696   6.7824965   8.3820362
  70.2072983   6.8134251   8.8970785  69.0659256   5.8957629   8.5147676
  40.4544449  35.9860153  18.9281960  41.0409813  35.9391174  19.6831837
  40.7400856  35.2719955  18.3582726  10.1356392   2.7322774   4.4322844
   9.3507624   2.6998200   4.9792271  10.8624001   2.7140357   5.0549545
  60.0576668   4.5114446  22.8969154  60.1112823   4.4072895  21.9469109
  60.8618202   4.9739003  23.1329250  53.1596565  28.6950111  37.1379356
  53.1384735  29.5583038  37.5508614  52.7234077  28.8217373  36.2954025
  68.8713455   9.3008680  59.8621178  68.3701096   9.5413504  60.6413231
  69.7787170   9.2600470  60.1641769  23.7577534   3.9323204  57.9880447
  24.4900551   4.0888319  58.5842590  23.6572342   2.9804785  57.9768486
  74.2158813  56.4441338  54.5961533  75.1335602  56.1958961  54.4844589
  73.9897385  56.1367149  55.4739838  50.1581612  51.4131737  17.9154282
  50.7318268  52.1734772  18.0107059  50.4883804  50.7823143  18.5551186
  75.0832367  52.0063629  37.0020180  75.1700516  52.4259071  36.1460533
  74.1560211  52.0986671  37.2210579  69.3858566  29.8868217  87.0999222
  69.0355682  29.1834354  86.5533218  69.1123276  29.6585770  87.9883575
  60.2271271   7.1173368  64.7081757  61.1058693   7.0735512  64.3311768
  60.3142853   7.7160382  65.4499207  55.6231270  21.8606777  75.7663040
  54.8738976  22.4101181  75.9965210  55.3535690  20.9745808  76.0079727
  24.8258038  46.1309700  40.8197937  24.0406094  46.5132790  40.4279480
  24.8752632  45.2507515  40.4469681   2.1099210  54.5561562  16.2278633
   2.3872864  55.4571419  16.3937531   2.9234271  54.0839005  16.0506191
   7.9081421  41.7877388  39.6858559   7.9989672  42.5221214  40.2930336
   6.9680290  41.6088715  39.6652412  35.7967567  51.8093567  20.5020332
  35.0285645  51.7916527  19.9312439  36.4445267  51.2698708  20.0486259
  30.4626942  68.9193726   7.9878650  30.4383869  69.6451645   8.6114645
  30.4815922  69.3419113   7.1291823   4.7574649  34.2282715  12.2408104
   4.7034397  33.6331406  12.9885616   5.3158150  33.7719231  11.6113462
  36.7763138  57.9955673  73.7907028  37.7251091  57.9708633  73.9148331
  36.6434021  58.6293716  73.0858154  67.1718597  27.1097012  34.8377609
  66.9645920  27.9529686  35.2404709  66.8222580  26.4604435  35.4480667
  66.7255402  30.8795757  23.4081573  66.4160690  30.1510677  22.8698864
  65.9346237  31.2234154  23.8234367  36.8306503  62.3224297  82.0700836
  37.1637764  62.1772385  81.1845474  37.2303238  61.6276016  82.5932541
  46.4525070  12.2202625  12.2824202  46.2103081  12.9795542  12.8125591
  45.7380333  11.5973692  12.4156895  67.3033752   0.1814951  59.0030174
  67.8466339   0.9176576  58.7216530  66.7285309   0.5505528  59.6735268
  61.0597878  26.2062206  46.1475487  60.1525459  26.5109825  46.1637535
  61.4197731  26.5686436  45.3380470  52.1620216  50.7208328  71.1874313
  52.5735779  51.5553551  71.4119873  52.8217239  50.0622520  71.4049072
   2.6070008  51.1425018  67.1073303   3.0637527  51.9781685  67.0110397
   2.2597735  51.1606979  67.9991455  68.1100616  46.8087578  81.5752487
  67.5787582  47.5133362  81.2044067  68.8581772  47.2558403  81.9710770
  45.2479401  61.8608437  62.0628242  45.5256195  62.6285667  61.5630951
  45.9169159  61.2011375  61.8798218  23.7996445  46.1269569  20.1002979
  22.8659668  46.2469902  19.9268932  24.1917076  46.9768257  19.8996983
  58.1153259  64.3784027  41.9321480  58.6757431  63.6030159  41.9014587
  58.6306648  65.0634003  41.5062027   3.1573472  63.2947845  44.0317307
   3.3987176  63.1256676  43.1210327   3.1351357  64.2492676  44.1003418
  70.6697006  42.4198685  34.7035179  69.8680038  42.3030510  34.1937447
  70.6471558  41.7146225  35.3503189  59.6863022   4.3779974  86.5715942
  59.7352448   3.8693106  85.7622299  60.0055847   5.2468934  86.3280640
  69.9363022  38.5688705  16.1664829  70.6458130  39.1958008  16.3071747
  70.3244400  37.7180786  16.3707771  47.9797745  61.7943497  32.9477806
  48.0611877  61.6490440  32.0051842  47.6517181  60.9631195  33.2908058
  79.1715698  59.1543655  65.4077759  78.9141006  59.3667641  66.3048935
  79.5035782  58.2580910  65.4597015  34.0097885  67.0894470  69.7336578
  33.4027481  67.0442505  68.9949570  34.8749619  67.1532898  69.3291473
  70.4818192  52.1295166   2.0776947  70.6096420  53.0775108   2.0430026
  70.7954254  51.8771782   2.9461472   3.4435120  42.3825951  86.2157211
   3.0251694  42.9979095  86.8178940   2.7424872  41.7826691  85.9610062
  76.2520752   7.0010557  58.6772728  76.6437759   7.6535149  59.2578773
  75.3195267   7.0180602  58.8924255  40.3106346  55.2856331  49.7999458
  40.7194328  54.7612419  50.4885139  39.6138420  54.7271118  49.4553223
  47.0665398  13.9635067   9.5823994  48.0075073  13.8119860   9.6710215
  46.8284340  14.4569616  10.3672819  35.1355972  22.2023602  13.5342283
  34.9398842  21.8743496  12.6565390  34.4400787  21.8428326  14.0848894
  53.4075012  68.7709961  58.0878372  54.1220207  69.1431046  57.5708923
  52.6864624  68.6750488  57.4656448   2.0203288   6.5697784  16.7704945
   2.1452527   5.9143610  17.4568272   1.6273000   6.0847936  16.0448570
  32.6255646  65.1132889   0.4604131  32.3968697  64.2335129   0.1605429
  32.8544044  65.5869675  -0.3392726  81.3279037  15.2835884  17.7729988
  80.9203110  15.9710846  18.2997341  82.2553253  15.3207045  18.0069504
  57.4277992  61.4811249  88.9444885  57.9920921  60.9054794  89.4606628
  56.6755562  60.9357300  88.7144699  25.4763985  29.6500034  78.7166824
  24.6120853  29.5829773  79.1225204  25.9202709  28.8385239  78.9630814
  60.0137062  45.8718567  50.2615089  60.3235474  46.7591743  50.0801239
  60.7490616  45.4469604  50.7030373   2.6520894  61.3272247  36.1020851
   1.8949558  61.9117928  36.0665970   2.5722308  60.7840080  35.3180122
  63.8539619  45.1523819  71.4059067  63.9181328  46.0189896  71.8072815
  63.7747002  44.5508156  72.1462173  37.4943123   4.0483174   8.1492462
  36.6399040   4.4715610   8.2334261  38.1181793   4.7041259   8.4605942
  36.5820656  -0.1268223  27.6911030  35.9508781   0.5134078  28.0196419
  37.4366226   0.2635449  27.8743439  25.2102337  20.3750305  88.0355301
  25.7674599  19.6393452  88.2894974  24.3788776  19.9710808  87.7867279
  32.4617653  56.7313194  74.2907715  32.6107674  56.4870949  73.3773193
  32.6315880  57.6729469  74.3176956  53.0703964  64.9575272  12.2533464
  52.4706078  64.3466110  11.8252544  52.9131432  64.8314819  13.1890898
  51.4445801  16.7841320  37.1426392  50.5746536  16.4003830  37.0322151
  51.4739418  17.4982243  36.5058975  78.0139160  69.2660446  76.4182281
  78.4610901  69.0066223  77.2238159  77.5059814  70.0390701  76.6645279
  59.3860588  39.5919533  82.1437454  59.9761124  40.1068764  82.6941223
  59.2886009  38.7611198  82.6089859  28.8476143  32.8371582  70.1609116
  29.4130898  33.5449486  70.4699402  28.5328178  33.1370697  69.3081589
  18.3229218  33.0305634  87.0349121  18.9700050  33.1348228  86.3373108
  18.3891392  32.1096268  87.2873383  85.9130707  12.6726980  69.4307709
  85.8272400  11.7421150  69.6378479  86.8290253  12.7772741  69.1732559
  46.2634239  34.3305168  81.1125793  45.9042358  34.3105125  80.2255554
  46.6545830  35.2004318  81.1930313  49.6177711   8.9865389  82.7915878
  50.3983879   9.4969769  83.0068130  49.4621048   9.1664000  81.8644180
   1.7465959  39.8796463  65.9566116   1.8042767  39.6141014  66.8744278
   2.6218157  40.2049789  65.7459488  65.4744873   4.7183270  84.3839645
  64.5459518   4.9343433  84.2980652  65.8639984   5.0024967  83.5570602
  45.6587906  68.3686447  38.9665527  45.7973938  67.4376221  39.1403847
  44.8984680  68.3932266  38.3855782   5.1053519  53.1930771  82.2052612
   5.5366921  53.2187958  83.0593796   4.6061811  54.0087891  82.1643677
   0.1406281  31.5194607  31.9725342  -0.5627268  30.8707218  31.9467983
   0.7551681  31.2333889  31.2967129  78.1396561  23.2582836  35.5335617
  77.8827362  24.0925884  35.1409302  77.3170471  22.8710175  35.8328438
  70.4238510  31.6897850   0.5924754  69.5161591  31.4887505   0.8203134
  70.3568039  32.3141937  -0.1299173   6.4209943  17.9835625  53.1021347
   6.3791122  18.8302517  53.5466537   7.3495564  17.7515736  53.1157494
  29.0309258  37.3029137  74.2395630  28.6081066  38.0080376  73.7493973
  28.8219032  36.5096169  73.7463913  79.7528305  24.9289112  72.4273300
  80.5012054  24.8939476  73.0231094  79.3943787  25.8087063  72.5444107
  65.6017151   6.2036328  81.5898666  64.9879532   5.4904156  81.4142151
  65.0716476   6.9978151  81.5224991  18.0311947  12.8603439  22.3545265
  17.4303856  13.5602198  22.6103249  17.5280991  12.0555296  22.4786243
  70.1059723   8.2848549  52.4391975  71.0114746   8.5859175  52.5144310
  70.0446625   7.9293056  51.5526009  35.4456100  59.1405182  84.0718307
  35.6116524  58.3011131  84.5008545  36.0792618  59.1726646  83.3551102
  57.1643829  44.1945839  86.5317001  57.7791252  43.4738808  86.3941727
  57.1861000  44.6877060  85.7115860  65.1004486  49.2784348  19.2596264
  64.2211304  49.5858688  19.4798908  65.6827927  49.8083115  19.8039970
  55.3365517   8.8206720  56.3937569  56.1371078   8.6311588  56.8830719
  55.1313400   8.0012360  55.9435959  35.7603989  45.4960289  87.9900589
  35.6141205  44.8145218  87.3340302  35.9964523  46.2716255  87.4811783
  70.7301102  56.6803627  34.2661400  70.3638382  55.7981148  34.2052002
  70.7269592  56.8768196  35.2029572  71.4976196   7.8199148  15.1424179
  71.2906342   8.4472275  14.4496937  71.2680359   8.2739964  15.9531784
  30.8727436  43.3164825  71.1610260  30.1411648  43.0947990  71.7371140
  31.5540543  42.6822586  71.3842087  61.1797104  64.0226288  84.1160507
  61.2828217  63.6730385  83.2309570  61.8029099  63.5241165  84.6445770
  84.8134995  54.4871483   2.6135120  85.4959259  53.9687576   3.0398903
  84.0939026  53.8706627   2.4780324  50.2132378  64.1948547  61.4387474
  49.2988472  63.9884338  61.6324310  50.1774864  64.7041321  60.6290588
  -0.0704244  20.3137970  24.6029339   0.3384739  20.3827610  25.4656487
   0.5717443  20.6924706  24.0025520  23.6806812  20.0767899  45.9497185
  23.7536278  19.7910137  45.0390930  23.8525372  19.2873306  46.4629974
  43.9155579  39.0641327  73.0944748  43.5765686  38.3642960  72.5363083
  43.1475105  39.3889656  73.5643845  26.9725037  56.9083824  30.4441185
  26.5180416  57.7120209  30.6968307  26.3816452  56.4847603  29.8214931
  19.8655701   7.1947031  17.1307201  20.0769215   8.0475016  17.5105858
  18.9971066   7.3125343  16.7458572  61.5084419  27.3726101   6.8091946
  62.1245575  26.8697090   7.3418522  61.2030830  26.7527752   6.1467805
  70.9738464  11.4290504  78.6092682  70.2969360  11.9167633  79.0784760
  70.6495361  11.3736353  77.7103882  70.0282593  12.0644855  12.5347204
  69.9600372  12.4000340  11.6408606  69.5548477  12.7036285  13.0672665
   1.4079661  51.1372910  11.1836700   2.1753502  50.7113419  10.8016758
   0.7973217  51.2310791  10.4525414  82.6534882  58.2846107  62.3230705
  83.2763824  57.5601654  62.3815079  81.9013443  57.9169350  61.8590431
  18.8149757   3.1129725   0.1316074  18.2672710   2.6336341   0.7532885
  18.5547142   2.7765107  -0.7258828  29.6676846  50.3138885   9.6838264
  29.1975327  49.5503807  10.0188522  30.2539997  49.9597359   9.0152149
  50.0665016   6.0979581  26.7778149  50.5929489   6.3567457  26.0214348
  49.2699051   5.7260184  26.3992233  56.2728729  30.8398647  82.0469055
  56.3332291  30.5302849  81.1431580  55.5200577  30.3733902  82.4100952
  77.9886246  62.4557762  57.1532593  78.3427811  62.2275009  58.0127335
  78.1110992  63.4028320  57.0875854   6.1002607  24.5108414  53.4792595
   7.0499835  24.3924942  53.4951401   5.7859516  24.0283623  54.2438850
  79.9581299  11.5181742  49.2505150  79.6526031  11.7738295  50.1208725
  80.7868118  11.9845734  49.1410065  68.3161240  52.0463753  31.3600731
  69.0008011  52.7149620  31.3392620  68.2581558  51.7915001  32.2808952
  49.4599571   8.4845524  44.6234779  48.8313484   9.1799126  44.8172722
  49.4605980   7.9366827  45.4083786  86.4571686  48.8341789  12.3860340
  85.8268433  48.1352043  12.5602322  86.9738770  48.5121422  11.6474266
  53.7984810  33.6882744  25.9585552  53.5651894  33.7816010  26.8821869
  54.0089798  32.7600136  25.8572979  67.2998886  22.9116707  41.5145874
  66.6245346  23.5197792  41.8151550  68.0724945  23.1364594  42.0330238
  12.2879524   4.4670491  13.3258924  12.4663553   5.3622885  13.6139040
  11.3425598   4.3642621  13.4349823  38.3703766  20.9581184  79.1576309
  38.1766129  20.7537117  78.2428055  37.6422195  20.5763092  79.6477737
  52.0010147  45.6457253  68.7800980  52.2594261  46.5399246  68.5567856
  51.3877258  45.7483063  69.5078201  56.4306793  44.6224136  17.2193985
  57.0088997  45.3109245  17.5478020  56.2217751  44.8915367  16.3248806
  12.4059114   3.0621090   1.6956782  12.1624899   3.6991460   1.0239927
  12.6232548   3.5931191   2.4618518  46.9612007  49.1449394  52.1833305
  47.3484993  50.0073051  52.0331345  46.7660522  49.1299248  53.1203079
  84.3578186  59.6417618  68.4516220  84.7025452  60.5176773  68.2779388
  85.0189819  59.2301598  69.0081100  54.7756577  33.0903893  50.4804230
  54.1959648  32.3462639  50.3177528  54.4532928  33.7771988  49.8968086
  14.1568441   6.5215836   1.8002846  13.9685030   5.8947906   2.4987762
  14.2638273   7.3586550   2.2520566  23.5062065  63.1569061  35.7905350
  23.0864811  63.6984749  35.1221275  23.4737492  63.6893539  36.5853157
  62.3433456   3.3248374  54.9571800  62.6621742   2.4272809  54.8624535
  61.4619102   3.2290924  55.3179169  48.6722679  43.3632584  29.9226685
  49.2052498  42.8263588  30.5090981  48.1723366  43.9327354  30.5074711
  79.3270187  52.1680679  56.1257935  78.9091339  52.3966789  55.2955322
  78.6391449  52.2866058  56.7807846   5.5789509  55.5085335  37.3676338
   6.4956875  55.7508545  37.2368431   5.5038800  54.6368561  36.9793434
  76.9795914  46.0716820  64.5686340  77.5244827  46.8416595  64.7312927
  76.9813843  45.5970612  65.3998795  50.9418640  55.7640114   9.0435982
  50.8590813  54.8540421   9.3287964  50.6228027  56.2775612   9.7856894
  62.4651222  38.7435837  60.3722153  62.0474434  37.8882523  60.2713089
  62.2408257  39.0161896  61.2619362  70.8074417  29.5643177  61.8633499
  70.6523972  30.0048313  62.6989021  71.6871796  29.1963310  61.9462204
  32.2704163   1.0063145  66.7649078  31.8375587   0.2528706  66.3634186
  32.1672897   0.8681283  67.7064514  24.1901646  31.5542526  10.8830366
  23.4907894  31.5402641  10.2296534  24.2978897  30.6380062  11.1382265
  40.0838547  57.1781044  64.2046127  40.4557457  56.3489761  63.9038239
  40.2955971  57.8016167  63.5098953  19.9006748  59.4604568  74.2540741
  19.3479958  60.1672859  73.9206467  20.5201645  59.2862320  73.5454712
  25.5074863   4.2052989   7.7324281  24.6528244   3.9742112   7.3685799
  25.5394020   5.1605744   7.6808410  58.8375854  45.6950188   0.9867709
  59.1490555  45.6080093   0.0858562  58.9357185  44.8189697   1.3597825
   2.0033937  22.8781624  11.8550024   2.5957668  22.2940674  11.3815489
   1.3736099  23.1672173  11.1946602  77.0384369  40.8158607  88.0587082
  77.1799088  40.6408310  88.9890747  76.0917282  40.7370262  87.9414139
  40.4305801   3.8679869  34.8113556  40.3870010   2.9140491  34.7455101
  39.5708504   4.1245704  35.1449089  49.2775421  11.3354483  12.9352093
  49.9225273  11.8453856  12.4451189  48.4317207  11.6778717  12.6461420
  55.8517151  20.2876682  65.9202271  55.0666351  20.5163002  66.4178314
  56.4321861  21.0409336  66.0292206  54.0365906  71.5557022  72.6461792
  53.7387657  70.9145050  73.2914658  54.9576454  71.7022400  72.8616104
  42.6366768  33.3509674  79.8824692  42.3249207  33.6391525  80.7403641
  41.9607582  32.7484932  79.5719910  28.8131657  40.6342583  26.8056431
  28.9235001  39.7122536  26.5733356  28.6489010  41.0735054  25.9711895
  48.7861137   1.8404350  25.4159298  47.9203224   1.5645349  25.1150703
  49.1668053   1.0528938  25.8046246   6.4806290  48.6742897  85.8589554
   7.1834769  48.0360222  85.7370987   5.9699197  48.3311043  86.5921936
  36.5269127  54.8441925  72.1326904  36.9971275  54.0662956  71.8326797
  36.8615799  55.0006485  73.0157242  64.3921356  13.2842827   2.5239832
  65.2402649  13.3735418   2.0893092  64.3538742  14.0251274   3.1288943
  12.1207962   5.1046095  62.5339127  12.4969912   4.3691444  62.0503845
  11.1778879   4.9400811  62.5247078  45.7676849  69.0084457  79.0106506
  46.4456902  69.6208801  78.7252274  46.1452827  68.5719757  79.7742920
  54.7767067   3.6014373  10.3173628  55.5631447   3.4589651   9.7906237
  54.0995827   3.8287954   9.6801481  57.7825317  27.6700478  84.1684113
  58.3336067  27.8231297  84.9359512  58.1562653  26.8908653  83.7567902
  70.1507721  57.6728401   4.3966570  69.3838882  58.1234169   4.0429616
  70.6414413  57.3926468   3.6240225  84.1705856  53.1011696  81.4276352
  84.3896408  54.0027847  81.1923904  84.3727646  52.5928345  80.6421738
  20.4942417  70.4216614  68.3488083  21.4498348  70.4763184  68.3394089
  20.2031879  71.3298874  68.4303665  27.3021393   9.5234833  71.1672821
  28.0031891  10.0126829  71.5979156  27.6729450   8.6534710  71.0195847
  57.0409431  37.0846062  53.6711540  56.5771103  37.6947556  53.0977364
  56.6883430  36.2248878  53.4413948  23.7134094  12.6585846  10.4433336
  23.3142872  12.6271276   9.5738831  23.9773636  11.7553320  10.6185293
  56.7851143  40.2615852  82.6473007  56.3035736  40.3162994  81.8218536
  57.6958618  40.1277809  82.3848648  75.3868027  71.3583603  21.2665844
  75.7186356  70.6668549  21.8392506  75.6105499  71.0656433  20.3831329
   2.4072132  58.4611816  28.7922916   1.4550631  58.3679047  28.8229771
   2.7405238  57.6052856  29.0617065  37.1297722  53.9352455  87.4234467
  37.6013565  54.1491547  88.2284851  37.6286354  53.2150803  87.0377960
  49.6019440  50.5467110  22.3657341  50.3566399  51.0337639  22.6965618
  48.8458939  51.0782204  22.6149731  15.2826710  28.1927452   2.2713015
  14.4580221  28.5863380   1.9862220  15.1481285  27.2510757   2.1645811
  30.5899200   2.5197785  41.5196648  30.8947086   1.6959680  41.9000244
  31.3831043   2.9353919  41.1814957   5.1942682  24.9738178  27.1811962
   6.1363697  25.0441761  27.3352299   4.9240751  24.2117195  27.6934814
  41.9977875  53.8091125   2.2154887  41.6031075  53.0378494   2.6224480
  41.9808540  53.6199951   1.2773094  40.5724907  63.2467346  79.7758865
  39.7891769  63.6070442  79.3601608  41.0616188  64.0146637  80.0713043
  57.2508621  46.6087685  80.4822769  57.5237579  46.0724182  79.7378998
  56.2976799  46.5234604  80.5022888  22.5677872  15.7832499  74.2853241
  21.9101086  16.0085583  74.9432983  22.1704483  15.0716019  73.7834167
  62.7814941  30.8892097  52.6344604  62.9452477  30.1313877  52.0731010
  61.8274956  30.9449501  52.6893272  18.2449455  55.2006378  78.2073441
  18.0220776  55.7051086  78.9896927  18.4858932  54.3361855  78.5403519
  49.8484344  42.6470528  71.3901901  50.4539070  41.9758835  71.0752869
  48.9792938  42.2763367  71.2372437  62.1250420  54.2831230  30.2766590
  61.5665817  53.8927040  29.6044044  62.3803940  55.1309967  29.9131489
  75.5648804  31.4318504  62.0387611  76.1633530  32.1234894  62.3210754
  74.9488449  31.8723679  61.4533768  47.1180191   0.8216306  88.2989655
  47.7197227   1.5612679  88.2145844  47.4549789   0.1676825  87.6865540
  52.3029404  62.1074791  58.7108154  52.1070633  62.9233818  58.2502022
  51.5927849  62.0145035  59.3458519  69.5275421  34.2604790   7.6893888
  69.6745987  34.5394249   6.7856221  69.8218079  35.0011330   8.2195473
  51.3083191  25.2500877  67.4241714  51.6691628  25.2489910  66.5375900
  51.0143929  26.1505527  67.5620193  70.0333633  27.7946987  46.4050827
  70.1005249  27.0678711  47.0243111  70.6189117  28.4647388  46.7578087
  37.1466751  46.9067688  29.5083179  37.6554031  47.2223091  28.7614174
  36.2515259  47.1928787  29.3264370  70.5637207  23.6459579  12.1050959
  71.4791412  23.9073238  12.0054398  70.5881805  22.9215107  12.7302437
  79.3764725  70.2171097  51.8453712  80.1139679  69.7782135  51.4214554
  78.6071472  69.9100342  51.3657112  61.8195915   6.1331978  38.6754265
  61.5752983   6.1188588  39.6008148  62.7331772   6.4188399  38.6732864
  56.6656303  42.3499680  31.5395470  57.0289993  43.1308594  31.1219311
  56.6576233  42.5595703  32.4734840  78.5923996  23.2426987  77.3032379
  78.6661301  23.7181072  76.4757233  77.8430328  23.6434708  77.7437592
   1.8403263  56.0305634   7.8849173   1.9912385  56.5615997   8.6668739
   1.3573835  56.6074638   7.2931528  27.7734165   9.0505009  74.9012222
  27.9626427   8.3492117  75.5246201  26.8682003   8.8940649  74.6322556
  76.5735245  57.8181572  60.8111572  77.1523743  57.8913536  61.5699768
  75.6970749  57.7311783  61.1860008  15.5686245  44.0179749  85.8944321
  15.9537992  44.5979385  85.2375336  15.2460794  43.2690620  85.3931122
  64.8621445  36.3078156  51.3465004  63.9670410  36.5808372  51.5476913
  64.9831238  35.4986229  51.8432961  79.4401779  59.9293251   4.1795554
  79.1363068  59.0743752   4.4844465  79.1708908  59.9658813   3.2617426
  55.3767242  32.6491547  58.8778763  54.5917206  32.1773796  58.5996056
  55.5332870  33.2859077  58.1805496  74.6896973  22.1559715   4.7369809
  75.2464142  22.1662941   5.5155616  73.9633789  22.7403870   4.9541235
  51.0187645  25.5325012  46.9789505  51.3950653  25.4492283  46.1027679
  50.7001991  24.6542339  47.1872635  20.1682873   0.5846229  37.5798798
  19.2163925   0.6670121  37.6376762  20.3117447  -0.0448391  36.8731804
  21.5044880  53.4159279   5.1243563  22.0811501  53.3595619   4.3624406
  20.6243057  53.4826813   4.7541456  86.8171844  27.0567551  87.8030090
  86.3153763  27.1819477  88.6084595  87.2334518  27.9042759  87.6459808
  66.2301254  55.2795486   5.1581593  65.5570908  55.7563362   5.6438880
  65.7413330  54.6564331   4.6205349  81.7395325  70.2918396  11.6973400
  82.2890396  69.5127335  11.6120529  81.6442947  70.6169281  10.8020878
  30.3700581   9.2257652  15.3535929  30.1952190   8.5237322  14.7268448
  29.5220032   9.3984880  15.7624931  47.7486343  43.6826897  74.6199188
  48.6386986  43.3637161  74.4706879  47.7967834  44.6211166  74.4375229
  72.3281784  54.4157600  78.8765259  72.3920898  53.5599098  78.4526596
  73.2364731  54.6733360  79.0342941  37.5420685  69.4345016  10.1486130
  36.6932259  69.8367691  10.3326654  37.4793816  68.5583191  10.5288973
  30.7754574  46.8440285  25.9163017  30.5376587  47.5770226  26.4841080
  31.2705936  46.2527122  26.4832420  18.8099804   5.6703053  54.1348610
  19.2661896   6.4477243  53.8127975  17.8829937   5.8587656  53.9885406
  58.6968994  49.8703804  75.5668030  58.2604446  50.5984383  76.0091476
  59.6044159  49.9167480  75.8676300  64.2788544  20.5548992  27.3378220
  64.2261734  20.8924522  26.4436665  65.2105408  20.5935516  27.5539265
  26.4222984  35.4590149  51.8333168  27.0150585  35.1773529  51.1365166
  25.5491123  35.3905907  51.4471893  74.6047821  14.0458755  47.0350075
  74.5192184  14.3766928  47.9291382  73.9918823  14.5747709  46.5242691
  18.4150600  64.0100555   9.5410404  17.6318665  64.5600433   9.5599518
  18.3963127  63.5961838   8.6781454  45.6851730  29.7712536  12.9678097
  45.9851761  30.3290100  13.6855402  46.0069046  28.8981647  13.1923914
   8.5030069   7.9519873  71.1213455   7.6594543   7.5016818  71.0780334
   8.3055820   8.7908792  71.5379028  72.1603775  57.8936157  63.7136955
  72.7929306  57.5170403  64.3255005  71.5891266  58.4323044  64.2611618
  76.7590027  27.4285297  87.0057220  76.4761353  28.1860294  86.4934540
  76.6255493  26.6815033  86.4223022  56.3752708  71.6302185   0.3169725
  56.2423019  70.6834259   0.3633056  55.5599365  72.0032654   0.6520741
  50.5575485  22.4939899  66.7937164  50.0392227  22.4120712  67.5942535
  51.0544052  23.3035622  66.9118805  70.1696167  37.3784218  40.1659088
  69.5151825  36.8377190  39.7236519  71.0093231  37.0043106  39.8991318
  59.8380318  62.6925812  87.6789627  58.9117737  62.4563751  87.7287598
  59.8494263  63.5154037  87.1900177  17.7857189  68.7845764  65.6962891
  17.8519363  68.6501694  64.7508926  17.2358780  69.5625153  65.7896805
   4.0447488  42.4564552   7.9969349   4.9856238  42.5096283   7.8291297
   3.9295526  41.6228790   8.4531279  86.3178253  14.0174971  84.2060699
  85.4680252  14.2390823  84.5868301  86.1082687  13.6663637  83.3406067
   3.3631191  42.7584305  69.8963089   2.9882596  42.9071274  69.0282059
   4.3096399  42.7854614  69.7563171  53.7288322  61.0150108  73.2789154
  54.1779251  61.7322464  72.8315659  53.3095818  61.4285431  74.0335312
  16.1233387  39.4118729  49.0715981  15.2502728  39.1649628  48.7666016
  16.2903214  38.8320580  49.8146744  47.5213470  57.4610291  86.4987488
  47.0428734  56.6560364  86.3005524  47.1285324  57.7791901  87.3115845
  78.6027679  29.7706261  22.9528561  79.0433655  29.2626076  22.2716637
  79.2917252  29.9690628  23.5870438  26.0243893  24.2243347  44.2669907
  26.1518040  23.4448185  44.8076859  26.6191998  24.1023960  43.5270157
  17.3058357  15.8879967   6.6739941  17.3197460  15.5100126   5.7946949
  17.7461548  16.7325439   6.5786471   0.3039779  30.9077797  15.4557734
   0.4775538  30.7547169  16.3845768  -0.6374884  30.7632065  15.3610554
  29.5648766  58.9420471  73.2979965  28.9355202  58.9379883  74.0191956
  30.4204559  58.9194717  73.7266083  65.7069550  68.4895477  22.0190563
  66.0529556  68.3284607  22.8968735  64.8441238  68.0751190  22.0219307
  62.5554848   6.1130662  23.2500057  62.6591644   5.8145995  22.3464584
  62.6490211   7.0643840  23.2002277  79.4407272  25.6801548  23.0945282
  79.9815903  26.0013752  23.8159981  78.9652634  24.9362698  23.4643936
   7.8553801  13.1010332  69.0256958   7.3075967  13.8624325  69.2165833
   8.4551964  13.4025202  68.3433762  34.9562950  41.3059731   0.2892571
  34.7331352  40.6379547  -0.3589608  35.2436562  40.8095703   1.0555720
  42.0265427  29.0951614  64.2914505  42.5994606  29.5651455  63.6855545
  41.8201828  28.2767792  63.8399048  27.2998333  16.7561760  75.4464111
  27.6866398  15.8806381  75.4394302  27.2643509  16.9949703  76.3726654
   7.4135418  21.1930046   6.8494020   7.0178795  21.8285103   7.4459047
   7.0471287  20.3508778   7.1192079  14.4149694  43.1621895  12.7221909
  14.2419796  42.6744003  11.9169769  15.2954216  42.8910332  12.9820194
  14.3334599  36.6993484  68.1545410  14.6922264  37.1532402  68.9171066
  15.0855465  36.2525368  67.7660141  39.6309013   5.9367428  29.0129814
  39.9875374   5.2439985  28.4569721  38.6825180   5.8673038  28.9035187
   5.0665293  32.0666351  62.9038353   5.9088163  31.6192245  62.9851303
   5.2763696  32.8961220  62.4747086  12.0318003  32.3386688   2.1886663
  11.5970631  32.9327469   2.8004711  11.3269463  32.0140915   1.6282535
  53.3249702  53.0790825  61.0019226  54.1611137  53.3668098  60.6354370
  52.7200661  53.7956581  60.8099709  14.0348730  44.5337143  19.3251286
  13.4855499  43.8769875  19.7531281  14.0382605  44.2787018  18.4025288
  15.1483850  20.6334686  72.6716003  14.7655306  19.9167843  72.1656189
  14.5581493  20.7422142  73.4172745  13.3422050  40.8541260   2.0277531
  12.8241739  40.0573730   2.1420259  12.9964848  41.4605789   2.6826746
   6.4014955  22.5156937  47.5508728   6.4923763  22.0526352  46.7180748
   6.6845698  21.8815670  48.2096481  21.7656384  24.7522488   9.1815605
  22.6888657  24.9757957   9.2995100  21.3141918  25.2206421   9.8837242
  39.7056351  49.3056183  17.3776321  39.2320671  49.3365326  16.5463619
  40.3976784  49.9601746  17.2835178   9.0958939  42.8736343   4.8608203
   9.1243830  42.2010651   5.5413175   8.3563051  42.6230659   4.3072348
  73.6370468  18.0534344  85.6535950  74.4333801  17.5904827  85.9139099
  73.6579666  18.8675098  86.1566544  74.0357056  65.5073242  25.4217949
  74.0192566  66.3697891  25.8366699  73.4249039  65.5825195  24.6886539
  71.1780624   3.8096027  82.3417892  72.0298996   3.3732166  82.3288574
  71.2169418   4.4323659  81.6159210  64.4688339  49.8202972  46.5775185
  64.8037949  50.2651405  45.7989655  64.2577667  50.5285492  47.1858521
  60.6893692  57.1478500  29.1004410  60.9028587  56.6863022  28.2894974
  60.2779655  56.4833221  29.6530571  64.3827362  19.0075359  30.5988274
  63.9541702  19.8170853  30.8766651  64.7576752  18.6470470  31.4023857
   9.9698858  23.6289291  66.2538605  10.7753735  23.1754608  66.5024338
  10.2380610  24.2297802  65.5586700  85.5235672  40.6814575  70.6089249
  86.4548798  40.5837898  70.8072891  85.1602783  39.8037376  70.7266388
  20.3691025   3.1173096  59.2795639  20.5994129   3.8846815  58.7557983
  20.7253361   3.3044322  60.1480751  29.8760929  27.9174099  15.5038509
  30.4552402  28.5184097  15.9724865  30.4680653  27.2959805  15.0800266
  10.5474052  70.7405243  76.7807159  10.0623903  70.3869247  76.0350876
  11.3170481  70.1763077  76.8551254  25.4821720   7.5045772   8.8662701
  24.5970173   7.7866731   8.6357183  26.0502167   8.1951962   8.5247984
  18.6644726  20.6167698  60.8350334  18.8043098  21.4093933  61.3531342
  17.9672451  20.8509521  60.2224464  80.3528595  66.9280853  73.9723282
  81.2441864  66.7591095  74.2776413  80.2071457  67.8553238  74.1599960
  73.5551605  12.3061857  21.5723343  72.9741058  12.5895596  22.2782383
  73.6482468  11.3625259  21.7029991  58.0012970  25.8982906  42.3721504
  58.7559471  25.3873634  42.6648788  57.5120773  26.0836697  43.1737328
  66.7282410  43.0867577  72.7499924  67.3344498  42.5297890  72.2615891
  66.3339539  43.6518478  72.0855789  65.0773697  45.4110947  67.4146194
  65.0678482  46.3582611  67.2767181  64.3115387  45.2412148  67.9631424
   5.5943804  14.4249573   4.8619099   4.7443385  14.0467176   4.6369753
   6.2282434  13.7487030   4.6228924  19.8896313  23.1987324   6.9547439
  19.6574211  23.5801430   6.1080823  20.8329220  23.0463123   6.8981490
  35.2405357  40.7534561  77.0829849  35.6225014  39.9059753  76.8547058
  35.5089264  40.9006462  77.9899216  14.5907278  71.3918533  40.9428329
  15.3508053  71.8120346  41.3452759  13.9048443  71.4498672  41.6079903
   1.8160974  67.2812347  66.2437134   0.9378913  67.6620026  66.2449341
   2.3250260  67.8510895  66.8203354  28.9099960  45.5967407  44.0579987
  28.3207798  45.4828873  44.8037186  28.3807011  45.3604202  43.2962685
  73.6755600  33.7631531  50.7030258  73.7186661  33.4691658  51.6129379
  73.2595062  34.6239853  50.7489090  58.7326508  34.3560066  84.9241638
  58.0984459  34.3257294  84.2078552  58.3448524  33.8130989  85.6105270
  20.9279423  61.0737419  65.9859085  20.5964851  60.2569809  65.6127243
  20.1587467  61.6406059  66.0427856   4.9337845  14.6186152  85.3609543
   4.9942951  15.5566492  85.1802292   4.2145166  14.5413771  85.9877930
  58.1567001  30.6734924  -0.0872896  58.2777557  31.2528477   0.6649914
  57.2889404  30.2908306   0.0422926  40.2131195  56.3339310  69.8442535
  39.3801689  55.8639488  69.8834381  40.5816689  56.0976028  68.9930496
  55.1493874  19.5214748  36.5723686  56.0409851  19.5758228  36.2283745
  54.9514313  20.4106808  36.8662338  17.9878902   6.0496435  65.1269226
  17.0485382   6.1582780  65.2753983  18.3877602   6.2357888  65.9764404
   3.7720678  39.6295471  57.2614708   3.2243314  39.3291626  56.5362244
   3.2344086  39.4907303  58.0411415  83.8140945  18.4554596  57.7095795
  84.2550278  18.2659321  56.8813934  83.8819733  19.4054565  57.8051376
  25.1037807  41.2684555   3.5018191  25.0256386  40.9717216   2.5951357
  24.4168930  41.9281311   3.5979793  47.0288696  54.6688080  56.9192963
  46.7275314  54.7487488  57.8243027  46.2970695  54.2584229  56.4585571
  34.8875618   8.9951620  17.3821182  34.5092735   8.1803312  17.0516968
  34.1470642   9.5995398  17.4333210  84.2307739  42.5741081  39.7486115
  84.0123367  42.0100975  39.0067139  84.0618896  42.0321846  40.5193443
   3.5955734  27.1118679  86.7262650   3.5172775  26.2446918  87.1238861
   3.9993660  26.9489231  85.8738327  39.7585945  68.2642899  47.0876617
  39.9692688  67.7387772  46.3158569  40.4708519  68.9011383  47.1455002
  50.7918892  41.2625618  57.2758026  49.9427567  40.9754448  56.9399834
  50.5826340  41.9791069  57.8749733   6.6315446  70.7779465   4.3438663
   6.7948813  71.0498123   3.4407365   7.2963638  70.1114960   4.5173373
   6.7639613  17.1239185  18.3525429   6.7499843  17.3673058  17.4269085
   7.6209488  17.4152451  18.6638851  22.4028244  28.8236885  72.0960007
  22.3473301  28.1105423  71.4599380  22.8901329  28.4516239  72.8310699
  37.0545692  47.2174988  17.7360668  36.6007538  46.4969673  18.1732407
  37.8319817  46.8126488  17.3514099  77.1480560  60.6314163  19.0535831
  77.2655029  59.9873314  18.3553085  77.7474518  60.3481293  19.7440262
  48.4508133  44.9681396  64.0404282  47.9158554  44.4426575  63.4455185
  49.3423004  44.6451492  63.9094467  62.8492088  54.3856583  56.9746208
  63.2334442  54.2067909  56.1163673  62.1448555  55.0088806  56.7965279
  84.7659836  43.4952126   6.5165110  85.0374374  42.7194595   7.0071731
  84.0563812  43.1862030   5.9532914  13.2183046  62.7428322  43.8383179
  13.0944700  63.2975960  43.0681648  12.3563843  62.3581390  43.9974823
  43.3503609  33.2794380  64.8625336  43.4175262  33.1357689  63.9185600
  43.1120148  32.4235420  65.2187119  43.8354492  65.6442337  35.0423241
  44.3798447  66.4279633  35.1173744  44.4123840  64.9884567  34.6507416
  68.2831497  45.7652130  84.3175430  69.1761932  45.7714996  84.6620255
  68.3927307  45.8007736  83.3673019  71.6619949  36.3956184  25.4022980
  72.5968475  36.3829041  25.1970577  71.6023254  36.8952560  26.2165661
  51.3287086  49.5613861  47.2713547  50.9191933  49.5570717  48.1365166
  50.9312057  50.3072014  46.8219261   8.9348688  21.2967739   4.5168667
   8.2051764  21.2576847   5.1351328   8.8649788  20.4863472   4.0123305
  16.5474701  60.3254471   6.6142945  17.4804573  60.4216194   6.4232016
  16.1085453  60.5998535   5.8091373  73.9545212  69.2105713  80.0959625
  73.5792542  68.7408676  80.8407974  74.9009552  69.1404266  80.2207565
  78.9047089   1.1709728  51.6721420  78.0252762   0.7979786  51.7330513
  79.4906235   0.4216393  51.7790794  86.1051025  67.8298874  48.9178429
  85.8581009  66.9413223  49.1741180  86.7334671  67.7079620  48.2061424
  44.3762856  25.1094875  74.3733292  43.8680420  24.8131695  75.1283875
  43.8861237  24.7917023  73.6150513  44.0237770   6.4357233  11.3794708
  43.6226311   6.5442066  10.5171804  44.1743393   5.4936051  11.4567757
  42.4944496  12.5085745  12.9199305  42.6100807  13.3386383  12.4574852
  42.9191628  12.6450348  13.7668238  80.0290451  54.4863586  75.0033569
  79.1319656  54.5946922  75.3191757  79.9478378  53.9075928  74.2452927
  42.5000801  58.1072426   5.5127325  41.8803215  58.8125420   5.3264914
  42.3212242  57.8649445   6.4213223  10.5121689  10.5271702   8.7015200
  10.2959700   9.5947056   8.7021751  11.4626350  10.5527401   8.8119392
  50.5798225  53.8123207  78.3546371  50.9775314  53.1292839  77.8147125
  50.0221596  54.3014679  77.7496719   8.9580145  19.0423355  26.4736805
   9.0913525  18.0955048  26.4293747   9.1971283  19.2761745  27.3705502
  79.9008331  69.0206604  39.8598213  79.6873322  68.7203217  38.9763947
  80.4741287  68.3399353  40.2122078  66.4793320  64.0721817  42.6947060
  66.2094040  63.8443413  43.5843468  66.1982574  64.9805069  42.5843506
  19.7244205  68.4436646  71.0456314  18.8109665  68.1612244  71.0002136
  19.6808681  69.3996429  71.0244446  47.5099373  31.3814697  85.9506378
  48.2896996  30.8548412  86.1263351  47.0039558  30.8597832  85.3276978
  27.7138920  69.1908493  33.0142479  28.1133080  68.4991150  33.5416985
  26.8350563  69.2933044  33.3794632  71.5404663  35.6173096  43.9961395
  71.1832047  36.3068619  43.4365692  71.1292343  35.7631416  44.8481102
  58.0193367  11.9337511  76.8430557  58.1652641  10.9918928  76.9316025
  58.8938026  12.3003426  76.7121124  25.8704166  11.6409321  27.5981216
  25.3285866  11.5323954  28.3797035  25.2675419  11.9731483  26.9329853
  32.5829697  61.4786263  44.1392670  32.5552864  62.0673485  43.3850327
  33.4924583  61.5119209  44.4358406  75.6098557  56.2915611  86.0744858
  74.7293243  55.9874191  85.8545151  75.6910858  57.1338272  85.6270218
  20.6879902  11.9578428   1.9010018  20.6435051  11.8772078   2.8537614
  20.2667751  12.7962704   1.7116650  24.4020329  56.3542252   4.6218367
  23.4716091  56.4531670   4.4199576  24.8504467  56.6077042   3.8150492
   3.6497087  63.2152023  25.4557686   3.7798190  62.2977867  25.2156601
   2.9698887  63.1924248  26.1292343  16.2472343  61.0216408  66.8345184
  15.3653994  60.8787537  66.4907379  16.1108952  61.5001297  67.6522522
  53.3422585  52.9645348  42.7813568  52.5507126  52.4286995  42.8319664
  53.0250168  53.8660622  42.8346481  60.6415901  27.8342972  11.9169741
  61.3709335  27.2143936  11.9201927  60.2913971  27.7967319  12.8070211
  70.9784546   1.6958114  71.0028000  71.5218964   1.1395907  70.4446640
  70.3090439   2.0445983  70.4141846  62.8735580  14.5382032  60.9365921
  62.3906860  14.8273277  60.1623344  62.5049553  15.0526838  61.6546974
  71.1876678  52.7758331  40.8790627  71.3618011  52.5968056  39.9550133
  70.3219223  53.1840897  40.8849258  53.4473801  42.1859207  41.8067665
  53.9581985  42.9828911  41.9486847  53.0823441  42.2887268  40.9278984
  48.6212921  11.6676683   8.2505722  48.5219536  12.5410690   7.8717098
  47.7912140  11.5051413   8.6986666  66.4134369  41.8374329  44.6569901
  66.2831726  41.8407135  45.6052780  66.9224701  42.6290398  44.4824142
  85.1955643  71.3430710  64.6929703  84.9358978  70.5277176  64.2640228
  84.3855667  71.6814575  65.0745850  35.5040741  55.6178513  68.7787933
  35.9417725  56.1076469  69.4750443  35.6870003  56.1174393  67.9830704
  75.9256973  71.5949326  63.9770088  76.1925278  70.7241669  64.2716293
  76.1742630  72.1772690  64.6948776  55.3103790  29.7589703  66.2306747
  55.1590958  29.0189095  66.8185959  55.1190910  30.5309677  66.7632751
  71.6932907  13.2955379  23.6086712  72.2703018  12.9337416  24.2812748
  71.1804276  13.9617920  24.0661697  16.7648163  55.2436180   9.0907230
  16.0352840  55.1477356   9.7029495  16.3588409  55.1967354   8.2251492
  34.2241669  24.7585983  89.0384598  33.4138336  25.2532730  88.9164352
  33.9592133  23.8420506  88.9611664  65.2896729  27.8196964   1.3357774
  64.5804367  27.1910534   1.2015116  64.9249191  28.6570625   1.0494083
   8.2628460   1.6159235  87.7027283   8.0790634   1.0282505  86.9698639
   7.5391212   2.2423344  87.6947403  17.7762489  24.2220917  23.2216415
  18.3200607  24.8857327  23.6459980  18.3708134  23.4879303  23.0675926
  73.1114655  29.0886307  14.1135445  73.8487320  28.7777443  13.5881748
  72.8384857  28.3234100  14.6196594  52.3175545  68.6999130  78.2897034
  51.7003441  69.0193176  78.9479294  53.0274620  68.3071671  78.7976608
  81.4829941  22.5930653  26.3569107  81.0052032  21.8651314  26.7544746
  81.3745346  23.3164177  26.9743481  20.5762806   4.7948723  45.9053535
  20.7108002   4.9857888  44.9770813  19.8089046   5.3131628  46.1477203
  15.2260561  60.8727646  83.8304367  15.1858034  61.2703896  84.7002106
  16.1619778  60.8005829  83.6431580  69.1216583  70.3844681  41.0525131
  68.7758484  71.2596741  41.2276192  69.7609482  70.2357178  41.7492294
  13.1396255  18.0662594  87.3461227  13.4354448  18.8886051  86.9556503
  12.2884722  18.2761459  87.7304611  71.8486557  70.5924988  14.5986090
  71.2363815  69.9362411  14.9313116  72.1057892  71.0941391  15.3722153
  66.5140686   3.6981750  27.7055702  67.3661346   3.7366562  28.1400108
  66.4572525   2.8040969  27.3684826  84.2454224  54.7676125  50.3589439
  84.7724533  54.8187561  49.5615425  84.6603546  54.0774918  50.8764343
  22.9735565   2.5559473  83.1672668  23.3906631   3.2067518  82.6027222
  23.5984097   1.8315699  83.1999664  68.0600967  10.3739386  38.2689171
  68.0263748  11.1898632  37.7695580  68.7691803  10.5072289  38.8979378
  48.5955315  53.4707451  59.1811485  48.0084381  53.6096916  59.9242821
  49.3815842  53.9711685  59.4000778  54.5875969  48.2307472  34.0104332
  54.5939751  47.7926712  34.8614807  55.4432106  48.0298462  33.6312218
  76.7938232  55.2082558  13.4792385  77.4886932  54.7714005  12.9867458
  76.5980148  55.9950905  12.9705362  36.9032135  51.9728508   8.7394342
  36.2099953  52.0095367   9.3984737  36.9720497  52.8703995   8.4140072
   8.1214256  68.3685226  15.7734690   7.9002318  67.5695572  15.2949715
   7.2754617  68.7387466  16.0254860  54.5780373  67.7028351  38.7338905
  53.7395859  68.1334534  38.5671577  55.1744461  68.4177551  38.9561844
   6.0460525  24.9234657  64.6840439   6.8062582  25.4577732  64.9139023
   6.3255653  24.4278202  63.9143410  27.3769073  57.2702446  61.8463783
  28.1462650  56.7035828  61.7896767  26.6471004  56.7104988  61.5812378
   3.4396451  63.0090752  41.2753716   3.8556356  63.8369217  41.0348473
   3.0536811  62.6891670  40.4599457  30.8435268  56.9730682  54.6718864
  30.2331390  57.1251183  55.3933716  31.5319214  57.6259117  54.7989349
  17.4362164   4.5144367  36.7183189  17.2160454   5.4059172  36.9885368
  17.2961216   4.5096827  35.7714386  32.5262070  62.6276855  78.4082031
  33.2573700  62.5479698  79.0208054  32.5662003  63.5344543  78.1042252
  65.0033035  31.0245819  47.2827835  64.2618561  30.6827583  47.7824287
  65.3338165  31.7509575  47.8113403   6.7722378   9.9906349  76.3145828
   7.5254941   9.4701061  76.0354996   7.1518269  10.7092161  76.8203354
  76.7034836  68.1277542  60.9026184  76.9551773  67.6695862  60.1007690
  77.5082397  68.5538025  61.1977081  43.4071617  31.0848637  10.1226292
  43.0872154  30.5412788   9.4026423  44.2644997  30.7173958  10.3375092
  64.1913071  59.8357353  67.5748978  64.3862839  60.6011848  67.0342484
  63.5916328  59.3129959  67.0425720  51.7305756  15.4787989  52.0245819
  51.6697617  15.9215508  52.8710480  51.2254295  14.6737661  52.1385269
  10.6270742  17.1258526  84.9000397  11.1178217  17.9317226  84.7388840
  10.3467846  17.1945610  85.8126984  71.9610367  61.4258118  78.3391953
  71.2982407  61.3638382  79.0270157  72.5212555  60.6619835  78.4768982
  54.7380981  42.5022278  22.7343063  54.1225433  43.1151466  22.3322468
  54.2054596  41.9951935  23.3470421  79.7634354  62.8139343  66.7053833
  79.4909210  63.5425415  67.2631454  79.9576111  63.2189674  65.8601151
  27.5797024  25.6283760   9.4312477  27.9448051  26.5123901   9.3931894
  28.3047676  25.0585365   9.1747456  34.7149467  69.5735931  57.7692566
  35.3500328  68.9148865  58.0503197  34.8486481  70.3068161  58.3698769
  13.8397293  42.4369240  84.4772491  12.9777012  42.7532043  84.7476349
  13.8973465  41.5549507  84.8447189   3.0576737  10.7471952  57.4766579
   3.1942976  10.8031588  56.5309143   3.7398760  10.1493254  57.7822456
  31.9999695  59.8026009   2.0210171  31.3629360  60.5143738   2.0826478
  31.6267605  59.1003532   2.5537429  27.0851841  13.8527946  55.8529015
  27.5674019  13.0649385  56.1038628  26.6269665  14.1174097  56.6505547
  20.1910706  66.3377609  14.1710587  20.8659763  67.0129242  14.1011305
  19.5832901  66.5318451  13.4575005  45.3541107   1.4097892  45.4429245
  46.0691986   0.7806508  45.5381432  45.7911034   2.2545547  45.3350296
  26.0785046  39.0212936  11.7985115  26.7114487  39.1949577  11.1017656
  26.3351688  39.6107750  12.5076437  15.8862171  37.0922546  64.5175400
  15.4782314  36.2406425  64.3609009  15.5204239  37.6612740  63.8403091
  51.6043396  12.0362568  75.0698853  51.1148491  12.7103500  74.5984726
  51.4816170  11.2426958  74.5488968  11.4712162  54.5503082  34.5486221
  11.7322359  53.7515755  34.0902290  10.5165396  54.5643921  34.4806061
  34.5605583   0.8626708  69.9874191  34.1583710   0.0935866  69.5837021
  34.5604286   0.6687856  70.9247742  18.2246037  57.0746346  80.1091232
  18.4120464  56.7466125  80.9886093  17.5271969  57.7176895  80.2369232
  14.7549009  56.1331177  86.0086594  13.8004971  56.0846291  85.9539413
  15.0567293  55.2837639  85.6865921  77.8566132  30.3491535  48.4767494
  78.8122101  30.3144321  48.4335632  77.5795898  29.4371490  48.3887901
   3.2084398   8.7956991  83.2085114   2.2900910   8.8029804  83.4783478
   3.1837845   8.9820881  82.2699509  33.5820007  52.5367661  53.8327408
  32.7426720  52.0766792  53.8238106  33.4807701  53.2066116  54.5089760
  26.9203110  35.7234344  14.3722544  27.2450924  35.7475281  15.2723475
  26.9985008  34.8050804  14.1139145  72.4095612  66.1266632  79.8439560
  71.6009445  66.1721802  80.3541489  72.3303299  66.8356552  79.2057648
  83.2787018  47.2633972  69.3251419  83.4072266  46.4745178  69.8518219
  84.0669098  47.7845230  69.4780655  12.4564447  28.4900551  64.4228897
  12.0051870  29.1238480  63.8652992  13.0842781  28.0627537  63.8402443
  17.0559807  49.7180595  59.7402840  17.5658989  50.4998856  59.5282326
  17.3323784  49.4849358  60.6265640  25.3867970  34.5891342  83.9800491
  25.1744251  34.3301773  83.0833435  25.4092941  33.7660103  84.4680939
  73.6580582  50.1800499  24.4779701  74.4586868  49.8669853  24.0570049
  73.1567612  50.5833359  23.7692432  60.2536583  62.4173698  10.5144930
  60.3270187  62.6873779  11.4298868  60.2598343  63.2378502  10.0215359
  62.6921539  56.4751244  16.7773743  62.2906799  57.3401680  16.8595161
  62.8773422  56.3848038  15.8426132  76.4841766  12.7693167  81.2277451
  76.2282944  12.6467257  80.3135681  77.1670380  12.1149454  81.3751526
  70.6466599  54.2697144  30.4953461  71.1998901  53.4947929  30.3970413
  71.2623749  54.9847221  30.6562576   2.9949553  35.7113953  39.4050674
   3.6645341  35.0623894  39.6211319   2.5885329  35.9249573  40.2449760
  12.4118910  44.3921204  30.6672859  13.2877178  44.7180557  30.4601040
  11.8243704  45.1009331  30.4053059  42.8917999  69.0578461  27.5136051
  43.5509529  68.4767456  27.8931770  42.1018448  68.5201340  27.4582176
  33.3827591  52.7196999  30.0085392  33.7359581  51.8389626  29.8829002
  33.4576111  53.1327400  29.1482906  78.2877731  47.7885323  60.3099632
  78.2221832  47.2858658  59.4980164  77.4922180  47.5667877  60.7938652
  14.6471214  65.6641312  36.8882866  14.3104267  65.1511917  37.6229706
  13.9113073  66.2167740  36.6248627  19.6669044   7.8274040  57.8564224
  18.9356422   7.2098131  57.8647156  20.2988186   7.4586906  58.4736481
  76.0016861  42.8085251  38.2144928  75.6409302  41.9541817  38.4515266
  76.5516357  42.6328201  37.4510040  65.8183212  24.8291016  28.2176533
  66.2834930  25.4568825  28.7705898  65.8030701  25.2375622  27.3521137
  50.0809784  50.1753540   7.3342652  50.0174484  50.7124901   6.5445323
  51.0027809  49.9210930   7.3774724  84.0032349  11.2924795  82.7586060
  84.8067627  10.8296690  82.9960480  84.2729111  11.9049168  82.0741882
  75.0335083  19.8140068  36.2813416  75.9415741  19.5126076  36.3096352
  75.0846252  20.7478237  36.4853172  72.3844910  46.4610138  64.1468582
  72.9314423  46.6658783  64.9052200  72.9174118  46.7120094  63.3923836
   0.4498464  27.4090004  76.1976166   0.6445006  26.4726200  76.1584396
   1.2831080  27.8354282  75.9974518  23.0295830  21.1028214  79.9925385
  23.0626888  20.6102428  79.1724777  22.3483067  20.6682644  80.5056229
  71.3981857  45.9958076  56.6247253  71.6284561  46.1028137  57.5476341
  71.9019394  46.6723251  56.1721878  77.5291138  26.5493164  28.3367710
  77.2223282  27.3453369  27.9026451  77.1248856  26.5784473  29.2039413
  23.9857464  58.0438309  47.8160095  23.3725681  57.5319939  48.3435211
  23.4300766  58.5278091  47.2050896   6.0812893   7.6151152  49.1920357
   6.0070848   6.6915798  48.9516029   6.7895346   7.9496822  48.6418686
   0.6452847  17.9241982  57.7268181   1.0195237  17.6952038  58.5775452
   0.4373058  18.8556957  57.7995567  12.1587772  58.3436241  47.5000954
  11.4516439  58.8497124  47.9001770  11.9719229  57.4369850  47.7436676
  51.3691483  64.4171219  50.7592278  51.7261238  63.5997505  51.1066551
  51.5984344  64.4027786  49.8300056  22.1366653  24.9035797  47.0536957
  22.6283684  25.0433903  46.2444267  21.2925320  25.3268890  46.8972321
  67.2824707  47.6102524  88.7301102  67.5193481  46.6830482  88.7504730
  66.7566910  47.7405205  89.5193024  19.7940044   1.7604476  48.8990479
  20.3496628   1.0204934  49.1438828  19.4778061   1.5427060  48.0222130
  41.8500481   3.9259984  74.6853790  41.2325706   3.2012098  74.7835312
  42.4106140   3.6657522  73.9544373  74.4953079  23.9698563  51.3147011
  75.2891922  24.0351715  50.7839317  73.7841034  23.9163780  50.6762962
  41.4695930  22.1324692  73.5801468  41.1064720  22.1572266  74.4654465
  40.9038811  22.7145939  73.0728683  43.8600769   7.6053629  88.5593719
  44.2148628   6.7273135  88.6986160  44.6271057   8.1468668  88.3731766
   9.7309427  16.4944248   5.2470617   9.1718321  15.8472395   5.6769199
   9.8929358  17.1556473   5.9199462  57.7969666   0.3638805  40.6122131
  58.7529030   0.3436570  40.6570511  57.5983734   1.1348652  40.0808220
  48.6633835  27.0853348  81.8453445  48.3478508  26.2017193  81.6558838
  48.8902931  27.0644264  82.7750244  58.4122772  67.7563705  54.9139137
  59.1051712  67.1102905  54.7771263  57.6010513  67.2499847  54.8724670
   2.6509273  66.5795898  36.7058487   2.1708789  66.6444016  35.8802681
   2.0786943  66.9978943  37.3491211   1.4893168  20.7346077  85.3583679
   2.1730194  20.7458973  86.0281830   0.7064592  20.4345379  85.8202362
  37.2472343  11.0944471  66.2588577  36.6082840  10.6212244  65.7259064
  37.4195213  10.5125933  66.9991226  59.0117722  15.8926458   0.7690331
  58.5412827  15.0683355   0.6450015  59.7906990  15.6507998   1.2700479
  62.9017792   0.6483983  54.0916519  62.8456917  -0.2134165  53.6789055
  63.6757889   1.0520953  53.6990089  74.4633942  40.6429558  42.7925644
  74.8693542  39.9627266  43.3298874  75.1192093  41.3389816  42.7515411
  83.2227859  22.6164474  85.3083954  84.0979538  22.9483681  85.1080246
  82.7822266  22.5749683  84.4596176  61.1093407  70.6775360   6.0293627
  60.2398720  70.4010773   5.7398400  61.6763840  70.5123062   5.2761064
   6.3581166  31.0854511  31.8340893   6.6947422  30.8737030  30.9634113
   6.8931794  30.5627861  32.4313812  44.7234344  67.5741653  63.6639748
  44.3891907  67.8197937  64.5266342  43.9791374  67.1592484  63.2279739
  70.7468567  46.9209442   5.5811224  71.1834183  46.1604843   5.9649801
  69.8274612  46.8187866   5.8271055  79.0788193  25.4243889  80.5970993
  78.1465912  25.6410370  80.6129990  79.1568146  24.6599102  81.1678238
  75.4607315  28.7394066  24.8685646  74.8290482  28.1827106  24.4132671
  76.3150787  28.4072342  24.5929222  72.1365280  68.5015564   2.1211376
  71.6009979  68.0344009   2.7623899  71.7485352  69.3754425   2.0762258
  78.7318268  37.9443703  12.0670662  77.8385315  37.7385674  11.7915688
  78.8199539  38.8846512  11.9110718  30.2953415  58.2497292  46.6395645
  29.7370167  58.8957367  46.2069244  31.1229496  58.2891121  46.1602478
  72.6440277  31.4152012  18.6311226  73.0621109  32.2326775  18.9016361
  73.0343323  31.2168140  17.7799244  57.8968086  32.8880959  69.3077393
  58.7037125  32.4156570  69.5125351  57.8067017  32.8078461  68.3581772
  53.5505600  19.9470539   1.1091286  53.0131378  19.2767601   0.6870912
  54.3561401  19.9684200   0.5925879  38.5584755   1.0820012  67.5420837
  37.6572304   0.9232776  67.2613831  38.6845055   2.0232344  67.4219666
   2.1263587  25.8608360  45.3301888   1.1768616  25.7441216  45.2975655
   2.2585628  26.7949104  45.1681442  44.4071159  50.4487152  44.6677055
  45.0087891  51.1887169  44.7490616  43.6879768  50.6580887  45.2637215
  20.5064259   9.3029985  12.8914204  19.7481270   9.7585058  13.2571077
  21.0519199  10.0001640  12.5272388  34.0378914  59.7681389  12.6057854
  34.3068695  60.6002388  12.2165718  33.2537498  59.5176201  12.1173239
  22.3638496  68.8683701  50.6607285  22.4359589  68.0131531  50.2368927
  23.1426697  68.9279022  51.2140121   2.4374261  15.6056376  74.9792252
   3.2469254  15.2736855  74.5909576   1.9675773  14.8207779  75.2611313
  61.7870255   7.5203691  36.2441139  62.0246620   6.9392619  35.5215683
  61.9818611   7.0140271  37.0327148  75.2205276  27.4853916   5.2421055
  74.9064255  26.7004261   4.7933273  75.6802673  27.9809494   4.5643954
  80.8686523  13.6215572  52.0008965  81.5006561  14.0708380  51.4396935
  81.1394882  12.7037182  51.9796219   1.5086898   4.7444162  76.9862823
   1.0652461   5.3850603  77.5423126   2.0062935   4.2008262  77.5971298
  56.7594032  71.4679413  78.1693192  56.9852638  71.4654007  77.2391510
  55.8302650  71.6971207  78.1895523  85.4841995  57.9569740  54.6790771
  86.0871201  57.3257179  55.0718117  85.4470749  57.7098312  53.7550774
  54.3501625  12.3767538  75.7181473  53.4153481  12.1839418  75.6462097
  54.7780075  11.6739368  75.2290344  64.8319473  45.1386032  75.5440903
  65.6212845  44.7568474  75.9280853  65.0148392  46.0773315  75.5043640
  65.4318771   5.0022187  34.9995499  64.6679230   4.5988131  35.4117088
  65.4674683   5.8833823  35.3717308  33.2217979  51.1910019   1.0206171
  33.8094635  51.8488655   0.6490001  33.6103020  50.3532143   0.7688059
  12.8048267  24.1221600  69.6437149  13.4346247  23.4375801  69.4180222
  12.7258863  24.0703983  70.5962448  67.3315506  43.3591537   1.9937534
  66.5813751  43.1174622   2.5369496  68.0766068  42.9221039   2.4061849
  58.6454010  44.9176140  60.3488235  59.4036903  44.5047264  60.7620430
  58.9358368  45.1151466  59.4583969  61.0384598  40.6332703  38.0291328
  60.9980659  41.0907860  38.8689423  60.1407394  40.6605759  37.6980896
  57.2585640  70.8088150  48.2157974  56.7527199  71.5822906  48.4649773
  57.3509064  70.3110886  49.0281868  11.3929167  61.8125954  20.7382736
  11.3073902  62.7474899  20.5514927  11.9541025  61.4788666  20.0383263
  70.4336624  58.7049179  32.6004524  71.1977158  58.9012451  32.0583229
  70.6219940  57.8455276  32.9775581  57.0067520   7.9732122  13.2459850
  56.2273750   8.3793612  12.8667154  57.2565041   7.2984591  12.6146660
  77.9785995  18.0407238  72.6445084  78.4710007  17.3980999  73.1552124
  77.9195786  17.6569576  71.7695999  86.2747345   2.7939551  11.3763084
  85.9832916   2.2577155  10.6389198  85.4970245   3.2883928  11.6350279
  55.9348183   6.7349653  53.4294014  55.5245552   5.8709497  53.4667206
  56.8110085   6.5692353  53.0814667  58.0766411  54.9470901  55.6797180
  58.2228317  55.4090958  54.8542442  57.1511917  54.7036209  55.6572876
  61.6161880  38.7489204  72.8319168  62.5550079  38.9245338  72.7686310
  61.3820801  39.0153732  73.7209778  22.1273727  55.2386818  62.1314850
  22.2756195  54.2977219  62.0373993  22.8219032  55.5328178  62.7208443
  79.3452759   3.2554369  17.4237576  79.2155075   2.9645262  16.5211163
  80.1774445   3.7280929  17.4057827  51.8591042   1.3076563  28.6267281
  51.7425003   1.6482210  27.7397938  52.0418472   0.3761757  28.5035191
  84.1404343  56.6968193  21.2213497  85.0847397  56.7505531  21.3684425
  83.7563324  56.7955017  22.0925312  68.4897995  45.2125320  27.2575607
  69.0345688  45.1308327  28.0403652  69.0720291  45.5914688  26.5990486
  49.8182945   4.6817608  32.5110168  50.3337173   4.5182004  31.7211971
  48.9434547   4.3572102  32.2975922  82.2602844  25.4470291  27.8466053
  82.9730301  25.1294384  27.2921963  82.5255432  26.3329391  28.0936508
  16.8473701  38.5069084  45.9563675  17.2205334  38.7949448  46.7894440
  16.7274189  39.3139648  45.4558601  80.5391006  69.6719666  81.9418869
  79.7103348  69.3259430  82.2730103  80.6604691  70.4956970  82.4140854
  68.9832458  41.2889328  19.1384392  68.8584137  41.4328918  20.0764809
  69.9312973  41.3319817  19.0135975   3.7657866  33.5123940  31.2478962
   3.4748881  34.4242020  31.2626514   4.4145017  33.4792976  30.5448265
  33.7911377  30.0368919  87.3690720  34.4401779  30.7248192  87.2216644
  32.9594727  30.5046101  87.4452820  20.3874054  47.1672745  53.9663315
  20.6371784  46.3252411  53.5857735  19.5144520  47.3399773  53.6136894
  39.0524902  35.4118309  67.9705887  39.8519249  35.1038437  67.5436401
  39.0579567  34.9836578  68.8266602  72.9267731   4.8060265  42.5761070
  73.6985550   4.4840999  42.1103249  72.8970184   5.7409229  42.3728485
  25.3198147  25.0874519  58.7548370  25.8860340  25.7720623  59.1111183
  25.4484005  25.1391182  57.8077202  59.5594978  66.4606247  40.6045570
  60.4522209  66.7423248  40.8043671  59.4699364  66.5993576  39.6617088
  59.8594666  57.7886581  10.5190010  59.2144623  58.0342140  11.1822519
  60.5552559  58.4398346  10.6088972  85.9458466   1.1838866  86.2010193
  86.4221725   0.8828781  86.9748001  85.7466431   0.3831520  85.7158585
  38.6511650  33.9261894   6.8388472  39.2846489  34.5957603   6.5807748
  38.1927071  34.3063583   7.5881953  38.5834732   5.2410035  64.2356415
  39.4948463   4.9708719  64.3481750  38.6294479   6.0057735  63.6618385
  80.8446426  56.5242119  61.2864075  80.2184143  55.9851685  61.7696342
  81.6163940  55.9662857  61.1897316   7.6669841   4.3371205  84.6893997
   7.9073939   5.0160046  84.0588837   6.7259245   4.4538293  84.8198547
  33.9711151   7.0990582  39.1969681  34.5463066   6.9629579  39.9498711
  34.3616333   7.8360705  38.7273521  42.9899483  57.1325645  19.5196209
  42.1484070  56.6868401  19.6164055  43.4718094  56.9101181  20.3162117
  52.4217529  24.9293022   8.7361307  52.7338791  25.8100929   8.9435358
  51.6708717  24.7987366   9.3152332  10.3860092  42.7236710  48.3599625
  10.7997818  43.1350861  47.6011734  11.1161661  42.4865379  48.9316864
   4.5334682  63.1465492  69.9498901   4.8494806  62.2430916  69.9613953
   4.3885779  63.3378334  69.0232620  79.8889389  68.6570206  78.9321365
  79.7396469  69.2008820  79.7055435  80.8327560  68.4975586  78.9300232
  53.9028282  37.0175667  70.6784058  53.4636612  36.9113731  71.5222626
  54.1602478  36.1300049  70.4290009  60.3322906  34.3521347   2.0539806
  59.7242470  34.4499626   1.3212129  60.1751747  35.1224289   2.6000555
  57.0943794   6.9486294  16.1862144  57.4699936   6.0753136  16.2978668
  56.8562012   6.9902978  15.2600574  21.0972881  52.4741058  71.5807800
  20.8733292  53.4024239  71.5151901  22.0169601  52.4677620  71.8461075
  49.1811180  67.1143341  49.6729774  49.7929306  67.8442459  49.7686386
  49.5482254  66.4207077  50.2210083  74.5551910  24.7960415  16.7572250
  74.7416916  23.8627815  16.6548996  75.0863037  25.0656853  17.5065155
  18.0471706  16.6405907  17.0226517  18.5698071  16.6660938  16.2211323
  18.6739845  16.8212452  17.7231503   5.8041248  45.2381058  88.0647964
   5.8601518  44.2911797  87.9366455   5.0213871  45.3612251  88.6018219
  82.4522934  42.4772682  58.4708176  82.7364120  42.7063293  57.5859222
  81.7177811  43.0654182  58.6463127  86.3494263  68.0646439  41.0552254
  86.7824478  67.6766663  40.2948303  85.7312393  67.3944550  41.3466377
  85.6952438  10.5176134  75.2555923  86.3071594  10.6530027  74.5320892
  85.9533463   9.6768723  75.6334381  58.2402992  62.7046471  18.6875858
  58.1477242  62.7907829  17.7387733  57.8191528  61.8703651  18.8945675
  59.6091461  36.4420891  72.9096146  60.0654640  37.2639313  72.7291107
  59.0808716  36.2845802  72.1270828  23.3520489  31.6301861  72.3940582
  23.6378288  30.7883720  72.0392227  23.8942871  32.2769470  71.9424973
  76.1440506  38.2982674  17.3052082  76.6941376  39.0493736  17.5276279
  76.7147141  37.7274666  16.7906590  79.7940140  71.3440781  88.5859985
  80.2288132  70.5547638  88.2632523  80.1713257  72.0545120  88.0671921
  17.9240990   3.2891262  25.0249081  18.3611908   2.5236874  25.3981190
  16.9902496   3.1020954  25.1207161  59.0002327  61.5813522  63.9004555
  59.1144447  61.1124268  63.0738411  58.7304382  62.4622726  63.6407967
   7.0683150  43.4096603  43.9527512   7.7981167  42.9814796  43.5052223
   7.1269488  43.1002655  44.8566666  28.1338921  54.9779892  33.0625153
  28.4628296  55.7562943  32.6127701  28.9215660  54.4948006  33.3121834
  45.0881767  48.1184769  62.5696526  44.3147545  48.6626129  62.4214478
  44.8646317  47.2732620  62.1799507  53.7801170  19.8958397  86.6879807
  54.5740242  19.5744324  87.1153412  53.5751190  19.2299919  86.0315857
  84.1505814   5.8310766  37.4060898  84.5477524   5.0862479  37.8574448
  83.3701477   5.4686465  36.9868011  65.0280609   2.5361056  12.1900005
  65.3210526   2.5929828  13.0994787  65.5757980   3.1663682  11.7220469
  66.2504807  30.6451435  88.2081757  66.7832260  31.4388447  88.1586151
  65.6234894  30.8209496  88.9097519  27.9091148  65.7351379  76.7920609
  28.7557144  65.3113480  76.9331512  28.1204357  66.5418243  76.3221359
  23.9222717  65.8982086  70.0416641  24.0274658  66.2659988  70.9191055
  24.6496639  65.2826157  69.9512100  79.8371811  14.8877954  11.9663954
  79.6721725  14.6495905  11.0541115  79.6304474  15.8213234  12.0113392
  23.4242001  39.1233635  62.8585396  23.9248314  38.5373802  63.4261894
  24.0756130  39.7297440  62.5061226  76.6898117  36.5227509  34.4667206
  77.0937195  36.5955353  33.6019669  77.4287491  36.4923134  35.0744095
  83.6469421  70.4820099  73.4096603  83.9656448  70.6706161  74.2923203
  83.9056168  71.2454147  72.8933945  45.9764481  11.2422485  31.6746807
  45.4163208  12.0178308  31.6436424  46.2994614  11.2159777  32.5753479
  17.7408981   4.8312755  43.9028091  18.3341732   4.9860969  43.1677666
  16.9648304   4.4365139  43.5051765  70.8226395  26.9256248  33.6101151
  70.9247437  27.3342533  32.7505608  71.4813614  27.3524265  34.1579819
  23.4502010  51.9755096  44.0931892  23.3227730  52.8110771  44.5424309
  23.0118504  51.3338165  44.6520348  61.2628059  47.0054932  26.7459240
  62.1483688  46.9295311  26.3906193  60.7003441  47.0746613  25.9745064
  43.2265663  13.6621695  87.9786301  42.2971497  13.7937260  88.1660004
  43.3572617  14.0652666  87.1203384  63.5342064  11.8396292  81.8518982
  64.3106232  11.9378071  82.4030533  62.8010483  12.0441599  82.4323044
  28.2972870  48.2375374  27.6892967  28.4561539  47.8676910  28.5577488
  28.3905258  49.1824226  27.8106518  57.2707634   3.4317219   8.8017330
  58.1577759   3.7850132   8.8697090  57.3096085   2.8279877   8.0599594
  83.7811279   4.7129912   6.5286255  83.6928940   3.7603712   6.4976239
  82.8816071   5.0350947   6.5863953  70.8358078  45.7782898  81.5191498
  70.3379593  45.6889992  80.7064896  70.3723526  45.2230682  82.1461792
  84.8597641  32.0151825   8.1486225  84.4870453  31.3028870   8.6681890
  84.6612625  32.8063126   8.6495667  33.5130959  36.2406616  88.4628830
  33.8512726  36.3099785  89.3556671  34.1495857  36.7151833  87.9281464
  62.1092339   2.8889587  76.1475143  61.6772499   3.4220712  75.4801178
  62.5906296   2.2272632  75.6508789  67.2357483  43.7858009  76.3955460
  67.2936401  43.4016342  77.2703552  67.7450485  44.5941010  76.4547272
  49.2321320  52.8203964  87.5570221  49.7010422  53.5325317  87.9920044
  48.3935204  52.7704239  88.0157852  40.9026031  63.0135956  33.7591362
  40.1313324  62.4508286  33.6908417  41.5117912  62.6650810  33.1082458
  62.1052284  57.3842888  79.7903137  61.9130363  57.2448502  78.8630371
  61.3558693  57.0054321  80.2498398  65.7307892  10.6631927  22.5992031
  65.2940979   9.8268089  22.4379787  65.6072083  11.1579714  21.7891712
  20.3911076   3.8208914  11.6773777  20.2926960   4.5474982  12.2926741
  20.2769585   3.0360615  12.2133293  80.8493118  38.4597244  13.5338631
  80.2976532  37.9625816  12.9299126  80.3714600  38.4437294  14.3631029
  77.4375229  13.8843918  18.7696285  76.7831421  13.2067413  18.5998974
  77.0199356  14.4670839  19.4039173  61.1106377  41.4163361  61.4797974
  60.5850525  40.7550430  61.0295944  61.8964272  40.9473534  61.7605476
  73.6577988   1.8344011  16.9654217  73.3062973   1.1875513  17.5771942
  74.6053543   1.7022002  16.9953194  55.2280464  64.8277740   5.4781222
  55.5432281  64.5109634   6.3245978  54.6063385  65.5214539   5.6983972
  62.5692368  51.9078751  33.9778671  61.6180496  52.0094299  33.9437981
  62.7405510  51.0952721  33.5018806  14.1163254  69.5767975  43.0861702
  14.3869677  70.2945023  43.6587868  13.7558479  68.9189301  43.6807289
  65.6653442  56.0963058   9.0932989  65.4567184  56.4663506   8.2355280
  66.1146851  55.2743149   8.8966751  86.2884369  62.7112846  49.7905807
  86.0556793  62.3609505  50.6504173  86.3155212  61.9441643  49.2187233
  56.7179413   6.3558259   3.5470908  57.2946587   5.8339863   2.9891381
  57.2404213   6.5372925   4.3283181  46.9350128  36.7966766  20.3455181
  46.3734169  36.8921165  21.1147594  47.4211235  37.6200104  20.3002281
   2.3720877   8.4237862  21.0900421   2.4134386   7.9355927  21.9123497
   3.2871046   8.5931063  20.8657513  69.5858612  30.8121777  14.6253395
  69.8262482  30.6710987  13.7096214  68.6335754  30.7164497  14.6404572
   7.8739204  65.3081741  50.0873489   8.2139225  66.1965714  50.1940613
   7.0000443  65.3377762  50.4768295  50.0268631  47.9914970   2.0546055
  50.8935242  48.1473465   2.4298921  49.4220848  48.1270294   2.7840600
  60.8011856  62.9006348  19.6084404  60.0084648  63.1479416  19.1323509
  60.5043793  62.7498856  20.5058880  17.0601006  27.1753063  15.7404385
  17.6405659  27.5232849  15.0635319  17.4249992  27.5051327  16.5615921
  41.4552116  53.4874954  88.4716187  41.8844604  53.9942322  87.7822800
  41.4327583  52.5926819  88.1324387  46.7988091  68.4793320  83.6879196
  47.4055557  67.9518814  84.2074203  45.9551659  68.0372314  83.7830734
  22.2387047   5.7201042  16.7516594  22.5896187   6.0671320  15.9314985
  21.3673229   6.1097274  16.8232212  45.3619041  55.0725174  17.3362675
  45.4335060  54.6477547  16.4814701  45.9048080  55.8571701  17.2600422
  33.3855362  55.8834648  63.7360573  34.1302757  55.3837852  64.0705948
  32.9713707  55.2995682  63.1006355  63.6634750  45.9478455  25.2876587
  64.5166168  45.6732864  25.6238098  63.0637932  45.2534409  25.5604458
  25.4876842  52.4315872  46.7193909  25.7806282  51.9748764  45.9308281
  25.9778576  53.2537498  46.7160530  37.4171791  12.6840305  69.3600845
  38.2219353  12.3301105  69.7386932  37.0020638  11.9334192  68.9352417
  29.4281921  55.3453102  61.0122757  29.1336708  54.8714905  60.2344666
  29.9743156  54.7161026  61.4835281  61.7416306  61.1394157  78.8705292
  62.5562172  61.2424011  79.3625412  62.0236626  61.0050430  77.9657516
  46.0222473  10.6997290  50.3418694  46.5058784  11.1328402  51.0452538
  45.1975479  10.4323721  50.7476006  70.2740784  32.3032227  44.6378860
  70.1770935  32.6876640  45.5091095  69.7862244  31.4809284  44.6832809
  73.0783234  42.9067192  62.5241203  73.7713852  42.7295418  61.8881149
  72.9407730  42.0698090  62.9678459  79.8339005  38.8839607  65.0873566
  79.3995209  39.5260544  64.5258713  80.3449707  39.4102898  65.7021866
  75.3431015   1.1096991  31.7067966  74.7885971   1.8761495  31.5608177
  75.5370255   1.1293651  32.6439438  42.4820633  48.0902710  14.7666559
  42.9780731  47.8739510  15.5562181  43.0484924  47.8161888  14.0453606
  33.9865952   6.2346220  71.5602036  34.2864189   6.2003245  72.4685898
  33.2225113   6.8107686  71.5817719  69.4871750  16.8904076  31.4555283
  69.1624832  16.9654655  30.5582104  70.1364594  17.5892715  31.5345421
  54.4876518  32.7190819  73.5048294  54.2462540  32.7228546  72.5785751
  53.8244171  33.2647667  73.9274139  71.9429932   5.5632315  23.8517647
  71.0200882   5.7456455  23.6751499  71.9983978   4.6078868  23.8736439
  80.9234467  52.0409241   5.0889864  80.2576065  51.3733788   4.9238615
  81.0483170  52.0250931   6.0378747  86.7800598  40.0447807   1.1973288
  87.1543808  40.1347046   0.3209539  86.5638504  39.1152534   1.2712035
  64.3941650  37.0956879  11.4474545  64.2738342  36.8268890  10.5366850
  64.8114319  37.9552536  11.3903618  37.1789551  49.5123062  36.7003860
  37.5017891  50.0564194  35.9820900  36.4115143  49.9804153  37.0292320
   7.0509748  40.2428589  43.0571098   7.9046769  40.6249237  42.8535118
   6.7576733  40.7138214  43.8371086  40.2434006  44.3515968   0.5404925
  39.8102875  43.5130081   0.3810686  39.6034546  45.0079041   0.2648827
   7.2333598  11.5305529  63.7578201   6.7275791  11.0440369  64.4087601
   7.2818642  10.9427118  63.0039482  46.1623268   7.3740878  69.2799988
  46.2036057   7.1626091  68.3473663  45.3803596   7.9191375  69.3676147
  47.3338928  47.1889801  59.4165993  47.2667923  46.4144440  59.9750175
  47.1058273  46.8741112  58.5419159   1.5624642  46.3693428  50.5356178
   2.4979191  46.3195953  50.3389435   1.4493467  45.8106537  51.3045807
  40.8975182  58.6323776  76.1406860  41.7530327  58.4583702  76.5331726
  40.7720985  59.5752411  76.2479477  60.9368057  29.6699047  28.6092186
  60.3291245  29.9714890  27.9339371  61.2209854  28.8070488  28.3076344
  53.4252777  25.7800350  54.5568123  54.1999092  25.9988937  55.0747719
  53.6140594  24.9128208  54.1982956   7.2880039   2.9015141  63.1719246
   6.5420508   2.8706386  62.5728951   6.9397783   2.5829976  64.0046997
  30.0078926  35.7262878  65.9951782  29.0837936  35.5510559  66.1728516
  30.4337292  34.8730507  66.0781479   3.9376245  54.0551910  88.4145889
   4.6312995  53.4652748  88.1195450   3.5285420  54.3666039  87.6071777
  27.3793945  10.8443432  60.3527184  26.8572693  10.9000702  61.1530380
  27.3300438   9.9229174  60.0982208  49.3164597  59.0146599  37.3360939
  48.4045982  59.2461739  37.5125694  49.8242950  59.5838013  37.9143753
  79.6956558   6.6222758  19.3054256  79.5196762   5.9171801  19.9284039
  80.6506424   6.6720319  19.2635059  51.6729889  37.4793472  80.7781982
  51.9556732  38.2858810  80.3471298  50.7815552  37.3373299  80.4597473
  49.6132889  27.2377911  15.9535294  49.5367355  27.1428738  15.0041285
  50.5230560  27.0095539  16.1444721  77.9166718   8.4783754  73.7073288
  78.6677628   7.9832978  73.3802185  77.2293625   8.3274498  73.0584412
  69.0586929  17.4080639  78.0191040  69.0676651  16.8645420  78.8069763
  69.6917038  18.1028519  78.2002182  18.3076057  55.6105118  70.6800156
  19.2147541  55.4847603  70.9583969  18.1119366  54.8404350  70.1462250
   3.6575837  64.0115814  22.1577301   3.7446661  63.0625000  22.2465858
   3.0763144  64.2668762  22.8740978  11.5102596  39.9410973  82.4513855
  12.0858335  39.7917976  81.7012787  11.4347935  40.8935432  82.5095444
  13.7421942  38.9025688  58.2971878  13.5781298  38.4167900  57.4888992
  12.9097166  39.3335342  58.4907913  55.9570694   8.6578197  67.3682480
  56.6330261   9.3122311  67.5444870  56.2745361   8.1871033  66.5976181
  21.6235600  70.5957413  84.5265274  22.4398880  70.7223969  84.0429993
  21.5441799  69.6462250  84.6179276  13.9731998  45.6416702  33.3351440
  13.3339748  44.9464531  33.1792755  14.0952873  45.6463356  34.2845154
  39.6033134   5.8394146  81.7916489  39.7923813   5.8178983  82.7297440
  40.4641495   5.8745790  81.3745651  85.7723236  60.4520073  48.1792030
  86.2202072  59.6392670  48.4139137  84.9734955  60.1659393  47.7361794
  70.9528732  50.8444481  46.6916580  71.5112076  50.4107742  46.0463524
  71.5063934  50.9308434  47.4677925  60.8209229  60.3782501  34.5861015
  61.7274933  60.6149254  34.3902817  60.4015121  60.3066750  33.7286644
  15.9243450   1.1817600  43.1365051  15.5274887   2.0060782  43.4179955
  16.7457352   1.4415518  42.7193031  67.5679398   6.4953709  21.5260315
  66.9340439   6.3677344  22.2318058  68.4026642   6.2129955  21.8998394
   8.4343357  63.6513405  67.5444336   8.3792143  63.1622353  66.7234726
   7.7109661  64.2766190  67.4997330   8.9429846   1.7056005  48.6498337
   9.7210636   1.2137147  48.9122696   9.2486868   2.2812405  47.9488220
  70.6859665  24.5331306  35.3296890  70.9585800  24.8966980  36.1721458
  70.6589737  25.2872868  34.7408333  50.0885201   9.1063499  79.8398361
  50.4365845   9.9929047  79.7444153  49.5535431   8.9735603  79.0572739
   1.9196489   7.4697876  23.6019058   1.2358917   7.9779000  24.0384026
   1.4432702   6.8065143  23.1025429  86.0010300  68.3795547  66.6459427
  85.6582565  67.8018341  67.3278275  85.3489151  68.3377380  65.9464951
  63.3811417  41.7076530  21.8096523  62.9326782  40.9037971  22.0721989
  63.5292664  41.6032372  20.8697643   4.8737755  57.6172600  61.8463783
   4.9053717  56.6764183  61.6730270   5.5222321  57.7555084  62.5367584
  49.3970108  29.6505489  53.0239525  49.5676651  30.3138294  53.6926575
  48.6684036  30.0056877  52.5147934  25.6686382  56.7839699  85.1405411
  25.2182827  56.3557816  84.4124832  26.3962402  56.1982841  85.3498154
  52.1464882  44.3493996  37.8782997  51.2173882  44.5117989  38.0414810
  52.5891418  45.1258659  38.2209167  42.0826836  54.1557770  81.4108047
  41.6984558  54.6361771  82.1441650  42.8709145  54.6506004  81.1870270
  33.6638489   4.7973061  37.0707321  32.7181473   4.9380517  37.0252304
  34.0428848   5.6586490  36.8956566   4.1837711  71.6702957  18.9843922
   4.5571933  71.4049225  19.8248482   3.2411835  71.5411148  19.0896244
  55.2309456  25.0808716  33.2346649  55.5274620  24.9732361  32.3309364
  55.6690903  24.3788414  33.7157173  42.2319908  59.3907738   2.5643773
  42.1204262  60.0416946   3.2572591  41.7556496  59.7524452   1.8170309
  65.7735519  11.1377630   8.4139423  66.5239639  10.5435438   8.4097004
  66.1039276  11.9378738   8.8224888  77.7416763  34.2376099  37.2265015
  77.7204971  33.5427361  37.8844795  77.0620956  33.9933357  36.5982208
  33.5308533  64.0115891  57.3940659  34.0546265  64.8064880  57.4941940
  33.9483032  63.5388031  56.6740379  55.8113594  51.5487976   9.1633120
  56.7237358  51.4987869   9.4484406  55.7444992  52.3953972   8.7216864
   5.0343003  28.0538063  77.8799667   5.9775176  27.9456329  77.7580109
   4.9444637  28.9035721  78.3113098  51.5517616   3.9185188  60.0388680
  51.6912041   3.2540407  60.7135963  52.3825836   4.3916917  59.9933701
  25.7274075  14.8591213  57.9566307  25.4639034  15.7781906  58.0025558
  25.5617580  14.5182590  58.8356094  49.0814819  60.3587837  64.6382599
  49.3135376  59.5109482  64.2593689  48.6170769  60.1409225  65.4464035
  71.3380585  65.0355530   0.7192122  72.2204437  65.2505112   1.0215640
  71.3757935  65.1498108  -0.2303951  26.1347637  56.6487541  71.3247604
  26.6800365  57.4168701  71.4947815  26.2844620  56.0773010  72.0779343
  79.2478409  18.2875938  87.8035507  79.6127167  17.4035759  87.8436432
  79.2647476  18.5950241  88.7098770  62.6361618  58.6744614  85.9155045
  63.3861313  58.9938431  86.4172745  62.7706070  57.7283859  85.8598404
  13.7782602   8.5666285  33.6603966  13.0056419   8.7392845  33.1223602
  13.4635477   8.6385660  34.5615158  62.9646454  36.2996674  30.9401264
  63.1877251  37.2293282  30.9870739  62.1365700  36.2759819  30.4605808
  71.2625046  47.0722694   2.9030106  71.4840927  46.7687149   3.7833416
  71.8336182  47.8268051   2.7590070  67.8671875  20.2886677   1.1610603
  68.2098236  19.4706039   1.5210640  67.4306335  20.0290318   0.3497407
  50.6769714  11.6760559  77.9532318  50.7555580  11.8828220  77.0219345
  49.9768944  12.2482748  78.2673721  84.3721848  29.3304291   1.4282584
  85.0835953  28.7854729   1.0918907  84.5527496  30.2028656   1.0782838
  48.4772873   5.4983444  60.1600418  48.1368980   6.3555417  60.4161263
  48.5930405   5.0298896  60.9867134  64.0117264  68.0133820  10.8131084
  64.2737350  67.1832352  11.2111464  64.2893906  67.9393997   9.9000597
  75.4857635  22.4768505  81.5687714  75.6211395  23.2993259  82.0393448
  76.2680435  22.3800411  81.0257263  80.6781845  35.9219284  25.1174202
  80.1068802  35.5954857  24.4222374  80.5748672  36.8730011  25.0855045
   0.0191329  70.8249359  67.4234467  -0.1393159  69.8860779  67.3250580
   0.6945114  71.0231247  66.7747421  75.8530502  18.3984032  48.4927940
  76.3644257  17.5938053  48.5785065  76.5046997  19.0993271  48.5098724
  53.8210793  55.3557243  86.4491653  54.6532402  55.4421120  85.9841156
  53.1888313  55.1261063  85.7681580  40.8527260  60.2934914  17.3642864
  40.3352661  60.6585579  16.6465149  41.0586281  59.4023399  17.0820007
  13.1973133  66.9844513  30.7943363  14.0418787  66.5984879  31.0266628
  13.1105757  66.8231201  29.8548260  50.1126289  57.1926689  67.6349716
  50.8836212  56.8293724  68.0706482  49.7641335  57.8307686  68.2575531
   7.0888786  55.7352943  43.3547745   6.9081612  56.0046730  44.2553368
   6.2488146  55.4132538  43.0279541  86.2185822  15.0351372  59.7781944
  86.5050888  15.3406467  60.6388969  86.9610291  14.5324011  59.4431381
  12.6202087  20.7372742  77.8430710  12.7484426  19.7938004  77.9412766
  13.2813015  21.1294956  78.4134598  50.2512474  23.9364071  58.8851509
  50.4076042  23.7795353  57.9539261  49.3034325  23.8495598  58.9868279
  25.3494148  65.5450287   1.5155061  26.2026405  65.4426346   1.9371135
  25.1999702  66.4904175   1.5037769  27.9324780  35.7855759  16.8369827
  28.5534382  35.5729141  17.5337009  27.1562538  36.1048203  17.2971897
  51.1334648  17.2163048  61.1395111  50.5947304  17.5477066  61.8579597
  51.7104225  17.9466858  60.9161339  18.1720772  61.3798256  30.4057884
  17.2631073  61.2457085  30.6741524  18.1226482  61.5377579  29.4630032
  17.7525520  46.6965523  53.3930168  17.2941513  46.3385468  52.6327972
  17.3160706  46.2975426  54.1456833  69.9450226  59.3177185  83.3371658
  69.3682861  58.9891090  84.0268173  70.1811295  58.5399704  82.8315964
  30.3161182  65.5328827  81.6517868  31.2068920  65.1825256  81.6535645
  30.4183979  66.4486008  81.9110641  16.7311192  41.4828377  18.5415173
  16.2046261  41.2306366  19.3000908  16.2861786  41.0792313  17.7962914
  27.8006630  30.0636406  83.7595291  27.9356556  30.3728676  82.8637695
  26.8741684  29.8255787  83.7936630  22.5096836  45.4250793  84.1245117
  22.1828823  44.8307686  84.7999573  23.2622833  45.8566513  84.5289459
  63.2765083  69.3967285   4.4156194  62.7048149  68.6295090   4.3877044
  64.1628571  69.0355988   4.4012947  30.0322075  63.9970589  76.3163223
  30.2005215  64.0820389  75.3778839  30.8917713  64.1017532  76.7242737
  83.9113159  55.0475121  85.0322723  83.3661575  55.6947861  84.5849838
  84.7785568  55.4507408  85.0713425  69.7732315  21.0854149  54.7506866
  70.4196320  20.9298954  55.4393158  69.1107101  20.4080620  54.8866768
  76.6366119   7.0279431  42.5929260  76.7546158   7.0727654  43.5417671
  77.4170761   6.5735545  42.2757034  51.1239815  38.1490288  83.9564362
  50.3149796  38.6279068  84.1364822  51.1519127  38.0761566  83.0024185
  58.8763657  46.5294037  57.7241211  59.2104225  47.1640816  58.3580132
  58.2758865  47.0330734  57.1745987  10.6614847  41.2247887  26.9846611
  10.8871889  41.3685303  27.9036961  11.4796019  40.9375076  26.5792141
   1.1458194  16.2569904  72.3917084   0.6000738  15.4820080  72.5251083
   1.5183796  16.4389629  73.2544479  25.0542068  29.9900131  84.1478729
  24.6217117  29.7432213  84.9653473  24.6679230  30.8351574  83.9181976
  10.7647247  18.8587437  16.7909832  11.4590321  19.1741982  16.2124882
  10.4507704  19.6442909  17.2388439   6.3867188  37.2579994  78.4984207
   6.0354819  37.9417992  77.9280853   6.2582526  37.5959587  79.3847122
  20.3348846  57.6105766  62.9031296  21.0607624  57.0721855  62.5877419
  20.1702061  58.2305565  62.1926842  71.0606155  34.0302200  66.2858963
  70.2497864  33.8269501  66.7522354  70.8270950  34.7528725  65.7032471
  85.3581848  18.0457153  28.8040504  84.7737503  18.5896626  28.2760448
  85.7311249  17.4210873  28.1819668   2.5438793   2.8411326  69.9215088
   1.7556702   2.7137341  69.3935623   2.5640154   3.7815623  70.0987625
  84.9003372  16.9896927  21.9794407  85.7291412  16.6369781  21.6555424
  84.8532257  17.8704510  21.6075859   2.5516939  49.9160004  56.3506927
   2.2169883  50.1025314  57.2278519   2.8538666  49.0089569  56.3975105
  14.8387136  41.0859184  59.4091797  15.2891607  41.5365753  58.6948700
  14.4254827  40.3297272  58.9924698  14.7868671  61.5710373  42.0103531
  14.7434254  61.9232826  42.8993263  14.3255529  60.7339058  42.0616188
  18.3355064  71.2724838  32.4140053  18.1323452  71.7144394  33.2384033
  18.4413319  70.3522720  32.6553154  57.1721077  30.4719925  84.7330322
  57.3161583  29.5261650  84.7628860  57.1212540  30.6771717  83.7994614
  80.3908463  58.9733505  73.3883743  81.1943893  59.3801079  73.0641785
  80.6747742  58.1300774  73.7412338  13.7939806  62.2979965  78.7048798
  14.2127151  62.3241959  77.8445282  14.4342155  62.6955070  79.2950592
  26.5242138  54.4871407  18.3682613  26.3456039  53.6511841  18.7989635
  27.2747078  54.3090134  17.8014622  23.0393028  51.9772034  35.1441650
  22.7382259  52.0568962  34.2390518  23.2175255  51.0434074  35.2559586
  20.6960182  71.2565613  20.9385433  19.9711609  71.8679886  21.0687904
  21.3129692  71.7315979  20.3818188  82.3562317  55.4858780  64.5789108
  83.1392517  55.9224052  64.2434158  82.5009537  54.5581436  64.3929138
  80.6506424  34.8939285  62.1183853  81.4370041  35.3100395  61.7652359
  79.9305267  35.2819405  61.6212807  38.6298714  58.2978668   8.4969053
  39.5290604  58.6253624   8.4760313  38.4731560  57.9716263   7.6107683
  38.7293129  29.8219051  72.8717651  38.7711029  29.3382969  72.0467758
  37.8115616  30.0821896  72.9505920  69.9637451   2.1225975   5.3847451
  69.3262558   1.7519993   4.7744184  70.2840881   2.9112184   4.9469213
  18.1230583  53.8312149  34.3977013  17.9810314  54.1287422  33.4990692
  18.8279839  54.3892593  34.7261772  83.1314926  38.7689438  17.2699127
  83.9687271  38.3144913  17.3634052  82.5576706  38.1294708  16.8479805
  48.4578323  19.9038372  25.3191338  48.6931915  20.3293457  24.4946442
  47.7910728  20.4744339  25.7013397   6.7452579  15.4932184  58.5533867
   6.3150253  16.3261490  58.3601036   7.6105013  15.7405863  58.8795662
  72.6928711  38.1167564  20.9145660  72.1177597  37.4377708  20.5617733
  72.1316833  38.6258049  21.4995193  23.2462044   3.9266961  85.3134308
  23.0546665   3.4415481  86.1160355  23.0334721   3.3158967  84.6078033
  52.7123451  63.7841377  86.8823242  52.0677605  64.0086594  87.5533905
  52.7634850  64.5635529  86.3290329  72.2399063  10.5043106  87.2182922
  72.9114227  11.0398855  87.6407394  72.5808105   9.6111498  87.2660370
  16.0553665  52.1690674  25.1726551  15.6034822  52.4950562  25.9509640
  16.7745037  52.7860947  25.0371857  63.2043076  52.6468239  16.9547348
  63.1786232  52.8690491  17.8854275  62.4628906  53.1185875  16.5752964
  39.4186211   8.9456053  77.7639084  40.2007294   9.2809839  78.2021561
  39.6908340   8.1033802  77.3995056  65.7223892  46.1400146  57.3111382
  66.5824127  46.5588264  57.2766342  65.1602936  46.7825394  57.7440796
  76.6629181  50.6505814  15.9929447  77.0618896  49.8392220  16.3072033
  77.1812439  50.8905029  15.2248220  67.6159821   8.9807053   8.8104210
  68.4202042   8.4716663   8.7087269  67.0177841   8.3936396   9.2727451
  84.5447006  47.1816254  52.3921127  83.9430618  46.5002785  52.0920601
  84.3191299  47.3116417  53.3132286  46.6084137  41.6239471  67.7415924
  45.8985100  42.2630653  67.8031616  46.1651001  40.7764130  67.7043152
  33.5236168  70.8652191  22.2107944  34.3019257  71.2797546  22.5831165
  33.7066612  70.8109436  21.2728271  66.4591293  31.4170647  10.1843252
  67.2000504  30.8421898  10.3761435  66.8602371  32.2324677   9.8835535
  21.2401562  31.6441078  68.0565186  21.2794704  31.0891094  68.8354034
  20.4567623  31.3496933  67.5919266  10.2808352  57.8376007  36.6189919
   9.7625723  57.0370064  36.7007523  10.1645765  58.2848320  37.4572639
  29.0209980  54.2739639  20.6913643  29.4542618  54.1575432  21.5369167
  29.0730228  53.4135857  20.2751064  80.4469376  27.7068939  31.6005230
  80.6460419  26.7709141  31.6234779  80.7241135  28.0318089  32.4571648
  61.4309464  44.7937202  52.4896393  60.9008179  45.3866692  53.0221901
  62.3120537  44.8651047  52.8567657  73.3814392   8.3381453  63.3463287
  73.1948166   9.2420206  63.6001244  74.3262634   8.3224325  63.1937218
  56.5942421  20.8189106  49.4974442  57.5424652  20.7054749  49.5625153
  56.3469963  21.2442303  50.3185425  15.3081961  41.0693016   8.0565176
  14.8807144  41.7766914   8.5393114  16.2292137  41.3272934   8.0191431
  86.0940170  70.6580200  70.3039932  86.3237305  70.6014786  69.3764877
  86.8198929  70.2290421  70.7571030  35.8924789  60.8761787  37.6148758
  36.4867172  61.6197815  37.5140419  35.0613480  61.1829033  37.2524109
  72.8255768  49.7239761  72.8716125  73.0298538  50.3054466  72.1392212
  73.6616516  49.6028023  73.3216324   0.8269870  21.7015572  14.1390839
  -0.0332300  21.5021915  13.7696095   1.3848017  21.8571224  13.3769331
  12.4583378  42.0480232  43.1826668  13.2099352  42.5891075  43.4246635
  12.5906725  41.2278557  43.6581078   1.0167087  20.4777756  21.4444160
   1.6025975  20.8197937  22.1196861   1.2819713  19.5643101  21.3374157
  45.2412720  39.2492943  65.8341675  46.0420418  38.9495468  65.4038773
  45.4549026  39.2454643  66.7672119  80.1132126  57.0065613  32.0185661
  79.3328934  57.2809525  32.5002708  80.5112991  56.3336639  32.5708046
  69.2488556  59.7834969  43.4607010  69.4090881  59.6599960  44.3962784
  69.0180206  60.7086983  43.3773193  33.5907822  53.6056786  47.1753693
  34.2256508  53.9605484  46.5530815  33.0111046  54.3415642  47.3720360
  32.1585846   9.2056999   7.0463109  32.5600357  10.0575686   7.2177429
  32.7035370   8.8175125   6.3617916  42.3485947   4.2153878  48.3250885
  42.6610146   3.5988662  48.9873047  41.3957214   4.1269326  48.3460808
  57.3945847  36.3851891  68.0347061  56.7476578  36.4716873  67.3345337
  58.1072617  36.9694061  67.7758255  71.1738129  37.8811646  79.7196808
  72.0831528  37.9965096  79.9954071  70.7483139  38.7083321  79.9454575
  82.4295883  60.6722412   1.8129942  82.1932831  60.5472641   0.8938789
  82.2443161  61.5955467   1.9845157   9.8700666  39.8600006   1.2515395
   9.8275747  40.8077507   1.1242871   8.9735231  39.5582657   1.1052607
  72.4649200  35.3879242  62.8074341  73.1636429  35.6662064  63.3995323
  72.7627945  34.5452614  62.4647675  34.6832848  36.1407356   1.6989543
  34.6614227  35.8174896   2.5996571  35.6023941  36.3594513   1.5452237
  21.8363457   9.9189758  60.9207840  21.6347637   8.9956903  60.7686615
  21.8861790   9.9994678  61.8732910  27.3430920  52.1953964  14.7887774
  26.6526375  52.8492203  14.8983917  27.2673740  51.9178467  13.8758335
  37.4557037  49.5659142  19.6952057  37.6161957  49.1572418  18.8446388
  38.3279610  49.6922989  20.0686035  41.6610565  54.2671738  13.8480072
  41.3537102  54.2107430  14.7527637  42.3008308  54.9791069  13.8563471
  70.0616760  28.7261944  74.3666229  69.5888062  28.6496105  75.1953354
  70.9730225  28.5404282  74.5928268  50.4703445  69.6741028   8.2096958
  51.0217285  69.9429245   7.4748893  49.9410133  70.4467926   8.4071770
  77.0304947  31.7135639  23.9247627  77.6103210  30.9963093  23.6686802
  76.1514359  31.3966370  23.7173061  65.6419144  23.1497250   6.1676207
  65.6447830  23.8722935   5.5398307  65.9321136  22.3911686   5.6610575
  14.9796753  51.8525352  87.0941010  15.4373531  51.1375961  86.6518097
  15.6789827  52.4166069  87.4242859  62.1074562  12.1179609   8.0272398
  61.2634430  11.7471104   7.7696738  62.7037392  11.3693075   8.0413275
  74.3961411  68.8393784  35.5634842  73.8756943  69.5914154  35.8459702
  75.1973038  69.2229462  35.2067757   9.7370090   3.7728140  75.1485367
   9.7983103   4.2811484  74.3397903   8.9341297   4.0838928  75.5666885
  65.0109863  59.9562645  55.6401482  64.8493652  60.5513687  54.9080544
  64.6888733  59.1081238  55.3349838  65.8333817  63.9875488  85.0670319
  65.4965897  63.3186646  85.6631851  65.3134842  63.8819618  84.2702942
  50.3280945  18.2994823   5.4536567  49.9717255  19.1283646   5.7733231
  49.9531784  17.6376190   6.0346961   7.4524465  43.7945786  32.1789932
   7.8485093  43.2169838  31.5264969   6.5220780  43.8073578  31.9543076
  29.7407570  23.7998085  82.6294098  29.3844528  24.4173317  81.9907074
  29.0911999  23.0980434  82.6722260  59.3227119  26.1240025  23.5931568
  59.8943176  26.8872585  23.5098648  59.9020576  25.3746758  23.4549580
  39.4276390  23.2574577  66.2473984  38.9173355  22.4479675  66.2707748
  40.3357201  22.9658718  66.1661987  49.6397171  15.9936714   1.1823618
  48.8459473  16.2030182   1.6746348  50.3356285  16.4683609   1.6369044
  75.9354706  69.5720062  23.2430553  75.4792099  70.0868683  23.9086189
  76.8249664  69.4753189  23.5831680  36.9415474  53.4664268   1.8297548
  37.7150841  53.9220200   1.4976267  37.2054520  52.5473900   1.8739880
  60.7206497  65.6283875  66.9994354  61.2638969  65.4142685  66.2409668
  59.9361839  65.0905914  66.8916550  45.4445534  11.6854210   2.7625442
  45.4233131  10.7284565   2.7626970  46.3365250  11.9052362   3.0314353
  17.5189133  45.7488976  56.0657845  18.0200577  45.3186684  56.7585945
  17.6687031  46.6836967  56.2070198  10.4613867  52.1871719  66.4677658
  11.3127947  51.7917595  66.2807236  10.4526653  52.2985039  67.4184341
  28.3024940  13.3296423  82.6475830  28.2475224  12.7438593  81.8925552
  27.7231712  14.0591316  82.4274368  44.4470406  54.1823006  51.7423172
  44.5731049  53.2616844  51.5125237  43.8080101  54.1659889  52.4547806
  44.3272057  60.3165588  34.9978638  43.6546631  60.1719666  34.3322754
  43.9634628  59.9291725  35.7940102  21.2829418  41.2402725  87.7997055
  20.5426426  40.8384285  87.3450470  21.5396595  40.5938263  88.4572983
  38.3212433  34.4065666  81.2775879  39.2452049  34.5620537  81.4734268
  38.3034096  34.2204437  80.3388290  24.8085766  19.1533108  49.4343529
  24.6292858  18.6188126  48.6607895  24.4520245  18.6462402  50.1637230
  37.9819412  58.3213387  48.3126335  38.7160492  58.0928688  48.8828316
  37.6440163  57.4791183  48.0081673   4.3671808  47.5429115  74.4468689
   3.4178028  47.5839462  74.3318558   4.6658783  46.9452972  73.7613983
  55.6318665  26.0551701  12.3715506  55.3503723  25.8013821  11.4925823
  56.4916649  26.4552517  12.2415066  82.5967102   4.1651750  55.5292435
  82.3568192   3.3485136  55.0913544  82.0417099   4.8286834  55.1194115
  46.0481377  66.2893906  53.0414124  45.3531303  66.2296906  53.6968727
  46.8587151  66.2821884  53.5504723  46.0878334  55.5351486  46.5588417
  45.6417389  55.8362312  45.7672729  45.3950157  55.1414604  47.0891685
  70.3329773  33.2252731  47.2041359  70.2145996  33.5967827  48.0783195
  70.7347641  32.3704948  47.3595505  51.0304031  16.0307255  54.8080902
  51.7264442  15.7036800  55.3779984  50.2903938  16.1815987  55.3961830
  69.0258713  37.8607063  63.2075272  68.9551086  36.9294701  62.9977150
  69.1099472  38.2920914  62.3571930  51.6112022   5.2272053  12.3078365
  51.0468025   5.1541028  13.0774736  51.0522575   4.9676661  11.5754089
  59.8787422  65.3231888  70.6311722  60.1232643  66.0942230  70.1193619
  60.5700684  64.6863937  70.4500885  32.0493813   3.4788802  75.4286880
  31.8639584   4.4079056  75.2917175  31.3119431   3.0248063  75.0209732
  61.9690704   7.4089050  -0.3558474  61.3817635   7.5868907   0.3787431
  62.8282051   7.2874846   0.0483571  30.6446381  62.2389183   1.5294288
  29.7135525  62.0342903   1.6156850  30.7613506  62.4365158   0.6001469
   4.1392570  71.0295334  62.6529388   4.1255822  71.9588013  62.8820648
   5.0413504  70.8635864  62.3792191  47.7711906  39.7267036  49.2222481
  48.5452423  39.1703453  49.3090820  47.2582397  39.3164444  48.5259743
  66.4330215  38.2946434  20.9849968  66.5750961  38.7479820  20.1540146
  65.9579773  38.9267120  21.5244904  43.6906776  25.3728390  16.9732533
  43.3626137  26.0363827  16.3663635  43.8000031  24.5889778  16.4348831
  37.8604813  52.8888779  64.4016342  37.6941109  52.0975075  63.8894958
  38.5797997  52.6492348  64.9859161  27.2458744  71.5943069  19.9048824
  27.7549934  70.8113403  19.6951466  27.7905750  72.3218002  19.6043968
  78.8704376  43.1206856   4.1207080  79.0418625  42.3920326   4.7172861
  79.2385788  42.8368607   3.2839637  28.6979046  61.9688683  36.6222267
  28.7988834  61.7814598  35.6889992  28.0989952  62.7149086  36.6532707
   6.8283262  41.8491898  48.6431351   6.0759978  42.4357338  48.7218819
   6.4790392  40.9824638  48.8505402  44.3262367  59.0454712  56.4038849
  43.9596519  59.3409004  55.5704765  43.5737877  58.7093925  56.8908157
  16.8516903  28.1911545   4.5218410  16.2318363  28.2459126   3.7945070
  16.3007793  28.1116581   5.3005643  15.2995682  24.3613281  28.4770355
  14.3687639  24.5826626  28.4479141  15.5334339  24.1890221  27.5649776
  13.0537462  14.2821560  85.8382187  12.1801310  14.6156616  86.0426788
  13.3250294  13.8193541  86.6309662  12.3284836  53.2339325  84.2588043
  13.2398434  53.2861481  84.5467834  12.3229675  52.5326996  83.6072922
  22.0548344  62.9152794  28.6185055  22.6314201  62.1659622  28.4691429
  22.6483612  63.6619453  28.6987762  14.0765800   7.0953526  72.2343140
  14.5769930   7.6734047  71.6584015  13.2454958   6.9636273  71.7780533
   0.4007497  47.8725967  85.5725555   1.0959706  48.3382568  85.1077347
  -0.3256108  47.8431168  84.9498520  82.1725311  39.2930069  40.3209686
  81.4265289  39.1841202  39.7311707  82.9309769  39.0321732  39.7985191
  71.6466217   9.6592436  48.9334068  71.6295242   9.9511709  48.0219688
  70.8574829   9.1259918  49.0289536  67.1917725  53.3175774  59.1059761
  67.1583099  54.1736679  58.6791000  68.0914001  53.2437630  59.4244919
  80.2428131  34.6300125  38.1528740  79.3034821  34.5140190  38.0099602
  80.6487808  34.3129425  37.3460999  78.7347565  14.4686966  31.1060829
  77.8018951  14.2685080  31.0290871  79.0033798  14.0480013  31.9228363
  72.3498306  30.0178413  49.9333572  72.0894470  29.1925659  50.3424454
  73.2900314  30.0821228  50.1010475  17.4299889  46.1899605  32.2812195
  17.9451103  45.6398087  32.8713150  18.0454464  46.4462280  31.5943623
  41.8265419  67.8882065  20.4651451  41.5475845  66.9942703  20.2669086
  42.6625786  67.7830734  20.9192581  78.2140732   8.4147329   8.9548464
  77.8977432   7.5224690   8.8133144  77.9537125   8.8892136   8.1653471
  66.8782196  23.6076126  10.7173328  66.6875839  22.8097210  11.2105427
  67.1568832  24.2385979  11.3809881  48.1451607  58.4921150  69.5663376
  48.0456390  59.4073639  69.8283615  48.6405563  58.0910530  70.2804565
   0.3377341  65.6570282  29.2464695   0.0804613  66.1847458  30.0024815
   1.1111964  66.0998459  28.8973293  46.8439331  66.1081848  45.3948784
  46.4305840  66.7772293  44.8492165  46.7315826  66.4265900  46.2905502
  62.4075584   5.4954925   8.7513981  61.8783798   4.7097783   8.6140804
  61.9246445   5.9978271   9.4076653  49.6962662  55.9400482  57.3298225
  49.4664421  56.8168259  57.6375160  48.8552704  55.4955444  57.2231827
  68.4864960  33.4043274  52.9579315  68.6283264  33.0909996  53.8512077
  69.0629883  32.8620834  52.4195480  61.9960709  59.6537056  60.7224884
  62.3057594  58.8110313  61.0544891  62.3241997  60.2947845  61.3530235
  26.0334072  52.5801315  76.7945175  26.5157490  51.7622643  76.9156342
  25.9735012  52.6844902  75.8449097  11.3186779  34.2941589  67.0278625
  10.9680538  33.6634712  66.3989563  10.9103289  34.0550003  67.8598938
  57.1342316  67.7564392  44.1321373  57.2321014  66.8096085  44.2329826
  57.0874023  67.8929520  43.1858788  24.4905949  34.8523788  65.1370010
  24.4633141  33.8978195  65.2026291  23.5721931  35.1143875  65.0728302
  15.9735928   6.4508553   7.1619782  16.8587799   6.7056713   6.9017010
  15.8909483   6.7597747   8.0641813  26.8785248  66.2892075  64.8419800
  27.3373756  65.4512253  64.7830887  25.9761600  66.0535507  65.0574646
  66.0415573  58.7678566  25.0006638  65.2601624  59.2533340  24.7361584
  66.2846603  58.2637939  24.2240963  56.9862823  67.4754486  41.3250885
  56.9175453  68.1145096  40.6157837  57.6178818  66.8307419  41.0062370
  86.0422287  59.8412552   4.9023132  86.2543564  60.4351311   4.1822124
  85.2251663  60.1850319   5.2635126  15.9210005  32.9591599  71.7703018
  15.3090382  32.4154015  72.2663422  15.3660431  33.6004601  71.3264618
   1.8328389   9.1152954  40.2643661   2.0280981   9.4215288  41.1499901
   2.4919271   8.4427004  40.0927544  14.1555176  12.0214262  79.8865356
  13.6175003  11.7405796  80.6267395  14.4694242  12.8909216  80.1348801
  70.8631821  65.1889725  57.1424713  71.3773956  64.6273651  56.5624619
  71.3643570  65.2142563  57.9575882   1.6201820  37.4068336  46.9149818
   2.5035560  37.5638008  46.5814476   1.2486125  36.7608757  46.3142242
  84.3820343   7.6863389  23.5218887  83.8283234   6.9344621  23.3113670
  84.1263580   7.9304805  24.4114151  11.0462837  46.9136963  79.5031357
  10.2075348  47.3723984  79.4549408  11.4498405  47.0619469  78.6479187
   3.8739786  45.7256165  52.2216682   4.5001965  45.2529488  52.7700043
   3.9342124  46.6338921  52.5177116  45.7350349  51.2463951  11.6718988
  45.7011948  51.8946686  10.9684591  46.6366730  50.9253044  11.6585302
   7.1056137  26.2762756  15.0367737   8.0287275  26.2145023  14.7912617
   7.0853205  26.9384613  15.7276640  22.8456173  50.3392830  21.8090630
  21.9256535  50.2671013  21.5547218  23.3062477  49.7502403  21.2115002
   7.9640656  19.8246098  69.0076141   7.7179461  20.1940041  69.8556747
   7.3308344  20.1944447  68.3924179  33.3299828  58.5989037  21.3727055
  32.7743301  57.9748688  20.9057274  34.0279465  58.0629692  21.7493343
  53.0674248  10.7466669  79.0522461  52.4137077  11.0180902  78.4078751
  52.6510429  10.9088087  79.8987503  85.2734604  40.0340347  59.1184769
  85.7548065  40.6517105  58.5680084  85.6949768  39.1900444  58.9565125
  76.7190628  26.1634846  30.8898506  77.6276398  26.1891956  31.1899357
  76.4626083  25.2457905  30.9809685  36.3875427  57.3034515  66.7932434
  35.9887085  57.8287277  66.0995178  37.1424637  56.8887482  66.3756943
  80.8131180   8.5113268  61.5438385  81.2472229   7.9688339  60.8854446
  81.1468201   9.3942289  61.3845940  31.6198082  53.7873726  14.8433475
  31.0736847  53.3920479  14.1638622  31.1382198  54.5694885  15.1127872
  52.4075356  68.9309769  83.5419083  53.2844849  69.2802582  83.7006607
  52.3675232  68.1344681  84.0712509  52.8051949   3.1941926  77.3476944
  52.7203026   4.1424351  77.4469986  53.0294647   3.0690653  76.4255905
   7.1202431  63.2186356  71.2006836   6.5197787  63.8803825  70.8575211
   6.8930888  62.4195175  70.7252426  30.8736191  23.8105259  11.2313747
  30.8463039  23.1913929  11.9608669  31.8020382  24.0201778  11.1297998
  14.5649920  34.5334930  69.9391632  14.9559107  34.2743416  69.1047440
  15.0091782  35.3497849  70.1684952  65.5429306  46.3645782  19.1471405
  66.3544617  46.2527504  19.6422672  65.3855743  47.3087196  19.1552620
  29.7605801   4.8597279  83.8926544  29.4608841   5.4850645  84.5524826
  30.0701199   4.1081152  84.3981247  78.2695847  28.1361713   9.0831900
  77.4748459  28.5564251   8.7545452  78.8992920  28.2217026   8.3673782
  29.4636211   8.0262833  22.3903408  29.7358322   7.1425180  22.1431732
  29.7743721   8.1298695  23.2897491  69.3843842  10.8892870  86.6235886
  70.3276520  10.7367620  86.6802216  69.0120773  10.3485975  87.3202057
  54.2635498  20.6547852  28.5563126  54.6789207  19.7924213  28.5613098
  53.3973007  20.5012074  28.1791420  13.1314611  67.7534866  44.9430847
  12.2572231  68.1386414  45.0030632  13.5087948  67.8791504  45.8137512
   4.1141458  47.8571014  15.5752258   4.9844003  48.0263405  15.9361238
   4.1298923  48.2663765  14.7100792   2.7208762  63.4033928  63.1568604
   2.2506740  62.8743248  62.5124779   2.0942552  64.0794296  63.4148254
  64.2901840  52.6451607  73.1528549  63.4634171  52.1734467  73.0520020
  64.6882172  52.6195793  72.2827072  59.1064224  20.5888691  49.9995651
  59.3958549  20.5940590  49.0871849  59.9168015  20.5527039  50.5077095
  27.6343994  43.6855621  85.0420914  27.2512627  42.8134918  84.9475708
  26.9672222  44.1912727  85.5061646  79.2289734  21.4000416  83.9052811
  78.6725769  20.6572113  83.6710663  79.7568054  21.0823326  84.6378708
  83.4127731  25.2681580  46.6417999  84.1062622  25.2857723  47.3013458
  83.5199585  26.0880508  46.1595993  27.7270107  21.8711643  81.8930588
  27.1659508  21.3724422  81.2991638  27.1174641  22.3096809  82.4866867
   3.2339289  53.0653343  12.8516073   2.3867340  52.7046967  13.1132050
   3.8594635  52.3642960  13.0345926  60.6045380  54.1719894  69.4757462
  60.0196114  53.6830254  68.8969498  60.3484230  55.0867310  69.3579025
  82.8500977  28.8232841  61.5574608  82.7899933  29.7319794  61.8522339
  82.3826828  28.8110123  60.7222328   6.7023149  67.8619308  20.7707691
   7.3757911  67.2094879  20.5784607   6.9855046  68.2635193  21.5922070
  32.2065468  71.1858292  25.9632339  32.5304871  71.7001801  26.7026539
  32.9219971  70.5837784  25.7585335  69.0136490  32.4503212  55.5249023
  68.5134811  31.6513424  55.3584785  68.5697708  32.8605232  56.2671585
  49.3078766   5.5743852  54.8778725  48.7417984   5.0672150  55.4597397
  48.7531509   6.2903962  54.5682907   7.7083521  23.2303524  73.9285889
   7.3296480  22.3986416  74.2133179   7.0125918  23.8718987  74.0719986
  63.8310394  67.1875229  67.6119080  62.9598351  67.2718582  67.9993668
  63.6652908  66.9601746  66.6969910  25.7216511  66.7977600  51.1763649
  25.2115326  66.2293396  50.5993843  26.3974934  67.1697540  50.6097107
  17.5129757  65.5369339   5.6167126  17.1092281  65.1502075   6.3936715
  17.8993111  66.3549271   5.9295454  70.3032990  31.6457920   7.3524661
  70.0382843  31.3540630   6.4801750  69.9207611  32.5188980   7.4395146
  57.6612129  68.0997009  11.9031286  58.3161812  67.9662552  12.5882854
  57.9473839  68.8924408  11.4493532  82.0278702   2.1086738  36.6834030
  81.8785400   2.9394894  36.2320938  81.1545029   1.8190182  36.9471436
  74.3965073   3.7873724  71.0864868  73.5319138   4.0621443  71.3917999
  74.5779266   2.9832525  71.5730209  75.7864532  49.2017860  50.8946877
  75.0333023  48.6877518  50.6035461  75.4075699  50.0177078  51.2217102
  18.1727886  41.8793144  44.5727463  19.1094666  41.9870529  44.4076538
  18.1008663  41.8378944  45.5263405  53.9900589   8.9319868  45.0609589
  54.1877518   9.8500957  44.8759575  53.8083611   8.9107237  46.0005112
  83.4510269   3.0453351  24.4504089  83.9284058   3.1456990  23.6268368
  82.6485138   2.5836778  24.2073498  34.8047676  64.5991287  44.6815758
  34.4228363  65.4064941  44.3373032  34.5103951  63.9180450  44.0768433
  55.5563087  51.7555084  57.0143547  55.6211624  51.8203392  57.9671516
  55.1922684  52.5975914  56.7412186  23.7709789  43.5838470  78.3716812
  24.6969051  43.5593147  78.6131134  23.4028454  44.2879486  78.9054871
  34.4870453  33.7117844  11.6758490  34.1697083  34.3331871  12.3311281
  33.9163208  32.9494476  11.7725153  55.0559464  17.9066868  80.9586563
  55.0316544  17.1062298  81.4829788  54.1376305  18.0927677  80.7629471
  78.1473312  22.5974445  71.7790909  78.8082504  21.9443932  71.5490112
  78.6075439  23.4347382  71.7209702  52.9740067  15.1628761  31.9223213
  52.6358643  14.4504490  32.4648514  53.8923416  15.2447290  32.1796036
  26.4430733  24.8396339  70.4824829  26.0478535  24.0152817  70.7661667
  26.4104805  24.8043804  69.5264893  50.9166527  52.9817810  10.5717506
  50.6788216  52.1207314  10.2278566  51.0456161  52.8379860  11.5092592
  75.3895187  23.0275860  69.1396942  75.9430618  23.6120300  69.6576309
  75.2334137  22.2761955  69.7117767  19.9996967   1.6789125  77.8900375
  19.3200245   1.4056911  78.5061798  20.4054546   2.4409344  78.3034592
  50.3628654   2.7302542  68.9824448  49.8821297   1.9084549  68.8835983
  50.0718231   3.0780947  69.8253784  23.7593288  19.4952564   4.0659995
  23.6700687  20.0581608   4.8350267  24.1457005  18.6873837   4.4040670
  52.4808922  55.5441818  23.4280777  52.2643509  55.0580711  24.2237148
  51.7415619  55.3848419  22.8413620  44.6282387  40.4068871  87.3825684
  44.1901550  39.6350517  87.7411575  45.3963318  40.5273628  87.9409180
  51.4981995  39.3424721   4.8585758  51.1781998  39.9971008   4.2378550
  52.4480247  39.3441353   4.7400107  48.0220299  63.2688599  48.9352760
  48.1462555  63.5188942  49.8508568  48.8712234  62.9194489  48.6650772
  19.2694530   2.5031383  44.9949608  19.0829163   2.8272791  44.1138420
  19.6271973   3.2606182  45.4580765  85.5954590  57.4359665  38.2778435
  85.6003799  57.7705421  37.3810349  84.6678696  57.3288612  38.4884377
  48.0565910  50.9625740  84.4809036  48.3776283  50.4619522  83.7308731
  48.8429337  51.3522720  84.8630447  34.7536545  56.4727554   5.6786375
  34.8774223  56.0098000   6.5072412  35.3926277  56.0774231   5.0856323
  53.4924126  23.3494987  29.1202908  54.1927719  23.3023643  28.4695168
  52.8310738  22.7332497  28.8054829  33.1147690  22.9588528  77.2002182
  32.7875366  23.5252666  76.5014191  32.4498711  23.0165062  77.8863831
  78.2665253  15.5314169  87.5570297  77.7505493  15.3497248  88.3425217
  79.1719055  15.5596313  87.8664169  66.1848526   4.2049403  46.6127968
  66.6191330   4.9652934  46.9994392  66.4791718   4.1984668  45.7019920
  44.7141266  27.0043240  19.1054726  43.8809547  27.1993389  19.5344543
  44.4681282  26.6971073  18.2329273  66.4155121  25.2570343  73.5658646
  66.3552551  26.1948547  73.3839493  66.2481842  25.1840897  74.5055008
  65.3843384  66.1766434  71.7839355  65.5725479  66.9552841  71.2599869
  65.3307495  65.4655228  71.1454544  14.9438457  39.7764969  70.2583466
  15.8612366  39.8639717  69.9995575  14.6250095  40.6770363  70.3183899
   7.6994443  68.3698120  71.1675949   8.1228590  67.7299576  71.7399063
   7.5418854  69.1275864  71.7307968  74.1086044  26.6538658  21.2776527
  74.2683029  25.8021202  20.8711338  74.9502258  27.1066246  21.2236061
  67.6963043  23.6854591   7.9124961  67.3785706  22.9706478   8.4641504
  66.9526901  23.9028969   7.3503647  58.2182121  64.7317581  57.0168839
  58.7145844  64.6551437  57.8317299  58.4046593  63.9197464  56.5456009
   6.2211862  38.3851204  57.1593018   5.7024784  39.1812592  57.2747726
   5.7561040  37.8921852  56.4833221  15.8122711   0.7051716   6.3807068
  15.7717972   0.3879664   7.2829118  16.4336300   1.4326825   6.4102550
  45.2616539  70.7796478  31.4902325  45.4178276  69.8353271  31.4999447
  44.8133163  70.9567871  32.3171844  58.0634384  34.0070763  11.6066599
  58.1332359  34.6937561  10.9434624  58.9640541  33.7125206  11.7421541
   5.4964170  40.9584694  72.1446991   5.6085911  41.5348091  71.3887329
   5.2132182  41.5406227  72.8497696  17.5979137  43.6097069  29.2544975
  18.3717117  43.7068024  29.8095131  17.8994713  43.0851898  28.5127583
  82.2945862  50.3531036   0.6041183  81.8586044  51.1968498   0.4848031
  83.2285538  50.5624199   0.5930126  16.5691509  58.9113045  56.4316483
  15.9331827  59.1480179  55.7565575  17.3982754  59.2709122  56.1162605
  54.2448387  23.6757450  26.5798740  54.4009895  24.6186447  26.6326847
  53.3620911  23.5990696  26.2177868  71.2852859   2.6180172  51.2152557
  71.8050232   2.0431397  51.7770576  70.7869263   3.1621385  51.8250084
  84.4901962  25.6335602  71.4255066  84.4244003  24.6802769  71.4816666
  85.1649628  25.8650799  72.0637207  72.1201019   8.8914948  18.8066158
  72.9027023   8.5032854  19.1978474  72.4432526   9.6607513  18.3375187
  42.8093796  53.8103409  76.5460587  42.6792603  53.9305687  75.6054001
  43.4727631  53.1232910  76.6102066  67.1807938  53.2545624  14.1263742
  67.0099335  54.1496849  13.8334637  67.7776871  53.3550224  14.8678970
  11.9155207  15.9796391  28.1429291  12.3524790  15.1642199  28.3886757
  12.2038078  16.1447353  27.2452297  16.7418003  31.0637722  15.2977285
  16.0924950  30.4096012  15.0394745  16.4052219  31.4244823  16.1179943
  45.7634773  39.8599854   8.3849277  46.3772659  39.2351685   7.9987936
  46.3063507  40.6099014   8.6281300  26.2776642  60.7412872  11.4509459
  25.7989578  59.9775238  11.1288557  25.6394424  61.4540405  11.4211607
   1.5302227  32.9027214  40.8986053   2.4648767  33.0588188  40.7633743
   1.3873838  32.0120010  40.5785408  66.0112076  33.0749626  48.7101898
  65.8161774  33.8899193  49.1728325  66.7115555  32.6705589  49.2222481
  82.6253891  10.8460760  72.8130493  82.1763382  10.5112734  72.0368500
  82.2924576  10.3095455  73.5324478  37.5935593  68.5789719  65.6947479
  37.8737717  67.7597656  65.2865524  37.5927505  69.2149887  64.9794083
  51.6053925   9.3154125  69.5779037  51.4498634   9.2694988  68.6345444
  51.3764114   8.4440069  69.9010925  52.9567795  48.1687279  78.3942413
  52.3049774  48.8499451  78.5595398  53.6928482  48.6331482  77.9958115
  67.3928299  39.6321716  53.7980919  67.4946823  40.4658508  54.2572670
  67.7137985  39.8053894  52.9131050  15.9544535  66.2158737  31.7753754
  16.2458267  67.0850372  31.4999123  16.4493160  65.6110306  31.2226448
  85.9530640  26.6037750  19.6864758  86.0390091  27.0638504  20.5214443
  85.0085983  26.5376072  19.5455818  22.0005779  53.7784653  15.9722147
  21.8935604  53.2225266  15.2003908  22.7286320  54.3588867  15.7502289
  30.7079964  56.9179459   6.8214512  31.1446590  57.7470894   6.6263223
  31.1219158  56.2852936   6.2343769  81.6905975  64.8430557  25.0644665
  81.5050125  64.1490784  25.6970673  81.4854431  64.4535065  24.2145271
  66.6414566  64.8865814  31.4026642  66.6493683  64.0170898  31.8028488
  66.1674194  64.7671738  30.5797043   1.0477023  45.1529503  46.9557037
   1.9161605  45.0743523  47.3504639   1.1373041  44.7417908  46.0959625
   0.5355558  19.3091850  29.9657059  -0.1786395  18.7981529  29.5849152
   0.1806321  20.1945896  30.0452099  86.0774078  25.0337601  47.9512672
  86.4597092  24.4615612  48.6166000  86.0916138  25.9048882  48.3477097
   8.4165602   2.3715811  81.5912247   8.8433180   2.6884880  82.3872681
   9.1265011   2.2926245  80.9540634  76.9175262  30.3640404  64.7592316
  76.4365768  29.6442490  64.3508072  77.2565765  30.8736000  64.0232773
  62.1203384  21.1556358  13.3679361  61.6684875  20.3337555  13.1766825
  61.5935860  21.5643539  14.0547504  18.0281906  19.8114147  16.3412094
  17.8158913  18.9354801  16.6635456  17.2279625  20.1074371  15.9073429
  10.0055208  62.3334885  39.0217514   9.2817345  62.4166603  39.6425972
   9.6267748  62.5799294  38.1779175  17.5496349   9.7001791   4.9088798
  17.5702667  10.5734863   4.5175490  16.9031010   9.7677717   5.6114864
  52.3198700  34.1524124   1.2329785  52.4444656  33.2041512   1.2717837
  51.7963753  34.3571014   2.0077605  45.2146111  -0.0842378  36.0122223
  45.4300804   0.8332614  36.1795540  45.3200951  -0.1863793  35.0663490
   9.4496107   6.3027277  54.3171196   9.1707172   7.1108775  53.8866043
   9.7171259   6.5784140  55.1938553  30.6803951  65.1543274  56.3021965
  30.2677364  64.3110046  56.1158028  31.4301262  64.9368896  56.8561401
  49.9594116  36.7082214  17.2209473  50.1838264  37.6387215  17.2144852
  50.7665253  36.2690468  17.4891319  53.3688545  40.5806503  64.1160660
  53.9859810  41.0872269  63.5880814  53.1413841  41.1617165  64.8419113
  67.7935638  54.5693817  50.1953468  67.2921066  53.7587814  50.1076164
  68.4100189  54.5500832  49.4633369  45.9504585   6.9298630  21.4478378
  45.5023804   6.7188787  20.6287251  46.7397156   7.3979354  21.1754150
  46.5255280  19.1118813  13.9455957  47.2660141  19.7132893  14.0244513
  46.8624954  18.3843307  13.4227619   1.0026624  55.9970589  67.0496216
   0.4826895  56.4502182  66.3859100   0.7969214  55.0707436  66.9237671
  23.0962276  50.8513603  29.5048943  23.5844879  51.6563339  29.6776619
  22.5365143  51.0662003  28.7587070  27.0723095  30.4014168  11.2723913
  26.3064003  30.4343853  11.8455648  27.7400513  29.9521008  11.7905293
  62.0327339  18.6526833  48.6049995  62.0668030  18.3205986  47.7078972
  61.5884857  19.4973145  48.5310249  37.3498917  56.6045723  63.8146935
  38.2008247  57.0421219  63.7883530  37.0159798  56.6761551  62.9204865
  48.4954300   4.8235188  74.9064331  47.7518044   4.6251636  75.4755630
  49.2636375   4.5762453  75.4211655  68.8551178  55.1780243   1.7589409
  68.8644714  55.3346367   0.8146862  68.3237686  55.8903351   2.1146173
   3.5889862  68.9661865   5.5072775   2.7080033  69.3086319   5.6583934
   3.6214643  68.7956543   4.5659518  14.4726524  -0.3430296  13.1623869
  14.4451523   0.4535620  12.6323709  14.7199917  -0.0408282  14.0363035
  40.7878456  39.8644409  52.3956490  41.4827690  40.4814110  52.6251259
  40.9292603  39.1173134  52.9770546  34.3638229  51.1739922  40.5761719
  34.5548706  52.1087265  40.6536484  35.2228928  50.7520294  40.5896111
  55.6976662  29.3886395  16.2030144  55.0239487  29.2337189  15.5409451
  55.7132912  30.3396149  16.3108711  50.1811867  26.9571552  84.2274780
  51.0451508  27.3342972  84.3934860  50.2759628  26.0321465  84.4546432
   1.2729694  27.2167320  80.2246552   1.5776576  26.4556808  79.7304916
   1.4751401  27.0068855  81.1364212  16.9787216  24.1654091  77.9068146
  17.0652256  23.4093018  77.3262482  16.4620152  24.7953129  77.4043503
   5.5575743  12.6839037  57.9658051   5.0253181  12.8790913  57.1945457
   6.1245694  13.4486561  58.0653076  21.8600082  11.8332949  14.9239368
  21.8903675  12.1764307  15.8170042  22.2782459  12.5108442  14.3926792
  36.1556931  31.2715111   4.2205863  36.0696564  31.6204395   5.1077600
  35.2964706  31.4130459   3.8231747  82.4303818  57.6687317  17.3515358
  82.0115204  57.3003120  18.1293888  82.3843460  56.9686241  16.7004147
  64.9778366  19.1526241  75.0854340  65.6561127  18.6393948  75.5244904
  65.1115417  20.0462551  75.4013062  70.5565186  26.2967415  24.4226475
  70.6903763  26.9672470  23.7527695  71.1486969  25.5873089  24.1731281
  58.2096977  15.6691866  70.2744827  58.5708046  16.3899536  70.7905502
  57.8229179  16.0933323  69.5084915  58.2889938   5.8729639  48.1126404
  57.6608315   6.5914879  48.0393791  58.6590309   5.9668946  48.9904137
  70.5000381  70.1776581  43.8715477  70.0411987  70.9187698  44.2670860
  71.3193665  70.1136551  44.3623047  75.4010315  12.9438162  35.1500168
  74.7635651  12.3858109  35.5955505  74.8708572  13.6046133  34.7044868
  76.8924637  13.0374565  10.8768597  76.0445099  12.6231861  10.7168827
  77.0106201  12.9828072  11.8251657   0.9794606   4.5514617  23.0782127
   1.5474827   4.0353336  22.5062027   0.9501594   4.0561938  23.8967991
  84.8777084  31.7578621  89.3487473  84.6345291  32.2137337  88.5429764
  85.8227081  31.6255627  89.2732315  28.5237370   2.9322641  75.7874146
  29.3478298   2.4479597  75.8379440  27.9624920   2.3925500  75.2306900
  24.1760540  49.9609795  17.2845364  24.6891842  49.6605568  16.5344181
  24.6381092  50.7399521  17.5942688  63.3170433  63.0357857  51.5670395
  63.6928291  62.5072174  50.8630257  63.0411186  63.8454704  51.1374969
   3.8836687  40.0840378  47.8877106   3.7172463  39.3822899  48.5170593
   4.1727252  39.6315308  47.0952988  59.5508728  44.2056618  13.2303152
  59.0003319  44.9769897  13.0954638  59.0851555  43.6913033  13.8896885
  40.3498535   6.1537600  11.9590521  40.8858261   6.1203475  12.7514219
  40.1592903   7.0839348  11.8378401  27.6328945  37.5436020  79.7534409
  28.4957218  37.4719429  79.3452454  27.5383987  38.4752426  79.9517975
  50.2764969  41.8752708  24.5217495  49.6908455  42.0891685  25.2480373
  50.0273132  40.9869385  24.2667828  49.0043526   7.5757008  40.2322655
  48.2042274   8.0302792  40.4956856  48.8333397   7.2904873  39.3346901
  28.5513725   4.0651865  28.6315556  28.7121334   4.9989238  28.7676506
  27.7221470   4.0319457  28.1545734  21.0019875  32.7899933  85.9065399
  21.4540997  32.9014931  85.0702438  21.5207996  32.1352615  86.3738632
  57.5052185  44.4590416  51.1088829  58.1313515  45.1044884  50.7808762
  58.0473289  43.7256050  51.3994255  55.1256180  42.8979759  50.6883888
  55.0176811  42.2575951  49.9851875  56.0680542  43.0624123  50.7200127
   1.5383893   0.4098844   3.3668468   1.1910735   0.2220354   4.2388082
   2.2328498   1.0509124   3.5186346  49.5763817  45.2931633  84.4624023
  50.2093735  45.6638260  85.0773544  49.7510452  45.7455444  83.6371307
  32.4622650  59.7414703  26.8108215  31.8626919  59.1685143  27.2888031
  32.5294762  59.3461761  25.9416504  52.5380745  39.7114754  36.3184319
  52.9817314  40.0627403  35.5464134  52.4065399  40.4713058  36.8855209
  71.3513260  55.9179382   2.5879009  70.5307999  55.5473061   2.2629497
  71.5670090  56.6085205   1.9611523  22.4897652   1.2435082  10.9124908
  21.9678612   1.9368612  10.5086212  23.3454857   1.6449547  11.0635309
  66.4627914  22.1561680  53.1234131  66.4188614  23.0657635  53.4182625
  67.3973007  21.9888802  53.0011787   0.4381166  20.6315231   9.5253763
   0.3104099  19.7016869   9.7133350  -0.1807746  21.0796280  10.1019249
   1.2408634  46.1170082  31.4575634   0.9989968  45.2087517  31.2764492
   0.8105887  46.6216469  30.7673206  81.7245483  32.2126732  19.6489697
  80.8074646  32.1372948  19.9126129  82.2194138  31.9638367  20.4296246
  38.2020493  66.0680618  20.4542141  37.9154816  66.6825104  21.1299076
  37.9055901  66.4599838  19.6327877  12.0787153  55.6633034  85.9893417
  12.0575933  54.8278732  85.5226059  11.4455366  56.2122002  85.5267105
   8.0418196  34.8608284  40.3414040   8.0843840  34.4477043  41.2038155
   8.1900406  35.7906609  40.5136681  48.8573380  29.8190346  78.9455261
  48.6093788  30.6163673  79.4135132  48.1986237  29.1746368  79.2045212
   0.2974930  15.4424496  38.8596268   0.9400158  15.2815886  38.1685982
   0.2045859  14.5984335  39.3014832  70.2291794  12.5374575  66.8530579
  70.8762665  13.2142000  67.0518723  69.9137955  12.2486706  67.7094269
  34.2383766   1.9719915  75.4696426  33.4520912   2.5178556  75.4742279
  34.3311043   1.6779597  76.3758316  48.4750252  68.8829575  39.0169678
  48.8832855  69.3564835  39.7417641  47.7036667  68.4698639  39.4050293
  65.7303619   2.0597231  40.0045776  65.9596024   2.9879248  39.9585228
  65.9897003   1.7924327  40.8863564  65.7662277  15.2017231  52.3455009
  65.9133301  14.6956558  53.1445541  64.8171082  15.1847353  52.2225571
  72.8276215  11.0038757  64.1498032  73.2786942  11.3244429  64.9308319
  71.9623184  10.7413530  64.4637604  14.7352800  42.3686409  26.8054829
  14.9072084  43.3082390  26.8673668  15.5590019  41.9945068  26.4928551
  44.0947990  59.0875435  27.7119751  45.0390968  59.0153503  27.5729809
  43.7938995  59.6700821  27.0145950  70.9978867  25.1865578  38.0718231
  70.6683350  24.3618317  38.4288254  71.7543488  25.3989277  38.6185417
  36.5375214  54.6559944   7.7892637  36.7449684  55.1688652   8.5703926
  37.3772659  54.5502548   7.3421798  17.0250244  45.6079941  23.9191875
  16.7746964  45.1573105  23.1126823  17.7611637  45.0993462  24.2592010
  68.2860413  11.0693121  49.2860603  67.5222473  11.5268431  49.6375008
  69.0309296  11.4623604  49.7409019  12.7092209  47.2563248  29.0254116
  13.4652138  46.8595810  29.4581928  12.0572491  47.3495522  29.7200146
  38.6947479  70.4735947  58.5091782  39.2197723  70.2580261  57.7383919
  38.6635437  71.4302521  58.5178070  28.3929882  33.2402954  83.5372467
  28.3536377  32.8320503  82.6723633  29.2617931  33.0143471  83.8694458
  78.5773239  41.0898209  41.9695930  79.5213623  41.0458717  42.1215134
  78.2506332  40.2324982  42.2425461  27.9003277  10.4911737  10.3980885
  28.4303818   9.7577600  10.0860319  28.5310459  11.1950073  10.5498962
   0.9971710  32.6856995  62.9414291   0.7799720  32.2344742  63.7571831
   1.4800942  32.0365715  62.4299088   2.8690994  53.2057610  34.6471786
   2.7322836  54.0287743  34.1779633   2.1445448  52.6467514  34.3665352
  54.5361443  59.7540398  55.0955200  53.6380157  59.4466934  54.9724960
  54.4423141  60.5952377  55.5425301  57.5969582  23.4847755  34.0382156
  57.9331093  24.2901306  33.6449776  57.8459091  22.7955227  33.4224358
   3.9012365   3.0144391  83.2701263   4.4181514   2.3378193  82.8328400
   4.0011349   3.7880921  82.7154083  67.7343216  70.1348419  79.3096390
  67.5512543  70.2677460  80.2397232  67.5633926  70.9866257  78.9077911
  68.4484711  46.1509361  76.9161682  68.1560898  46.9144440  77.4139633
  68.8106232  46.5157852  76.1087265  69.0419388  57.5416107  55.1798706
  68.4802933  58.1723633  55.6303596  69.7035522  57.3034248  55.8293076
  28.3578377   8.0111189  53.7935524  28.8329525   8.8137665  53.5784836
  28.9724979   7.3066444  53.5882683  67.5950012  66.9839935  35.0700722
  66.9576492  66.6610718  35.7070465  68.4206696  66.5746307  35.3287735
  65.8765411   7.1269798  10.7560205  65.5188904   7.4293871  11.5908070
  66.4218979   6.3751311  10.9873981  77.7755203  10.4744387  32.9155083
  77.9458237  11.0808592  33.6362572  77.0199509  10.8478785  32.4617462
  58.4791374  53.8019791  41.6078453  57.8494377  53.7985954  40.8869438
  58.7254448  52.8832436  41.7150307  29.7847710  18.6932068   6.4044251
  29.5273170  19.1880531   5.6265583  28.9628944  18.3437805   6.7488856
   4.0173097  68.6855545  22.8662052   3.9316556  67.9813995  23.5089016
   3.8324172  68.2664948  22.0257092   3.3788471  38.3084831  83.9137039
   3.4013491  38.5658302  84.8353806   4.1370344  37.7340584  83.8068390
  24.5824547  61.7078857  85.5935593  24.3751259  62.3742218  84.9384003
  24.1238956  61.9968681  86.3825150  57.7733192  55.3388519  17.1697731
  57.9105606  54.4916420  16.7459431  58.6043015  55.5255203  17.6066437
  36.8334045  47.7481499  76.3442764  35.9072189  47.6001015  76.1532593
  37.2868080  47.4995651  75.5387573  59.7346649   0.2646132  15.2029819
  60.1184883   0.7790084  14.4928360  60.3157387  -0.4907157  15.2927599
  36.0688667  57.1667709  61.3602638  36.1165161  56.5198822  60.6563454
  35.7714081  57.9680939  60.9294167  31.9097633  51.1066399  80.4186935
  31.8961067  51.9872894  80.0438538  31.0991611  50.7021637  80.1095810
  12.8501911  20.2629280  15.7595987  13.1486979  21.0850430  16.1485100
  12.4054022  20.5266209  14.9540806  60.7796440   3.5210254  80.0421753
  61.3686295   2.8441796  79.7086945  60.5320358   4.0259199  79.2675705
  55.8502960  24.1869984  84.3843689  55.7510300  23.2946072  84.0526886
  56.7149963  24.1951637  84.7948151  56.0812416  69.5180359  56.7838287
  55.9006424  69.0915375  55.9461479  55.8868027  70.4423752  56.6288147
  38.0496750  23.9709301  77.5077972  37.3219223  23.4362259  77.1904678
  38.1647072  23.7021999  78.4192734  73.2437668  12.6441355  25.8164883
  73.6985931  13.4861259  25.8367920  73.8322525  12.0429487  26.2730942
  50.3336525  24.0247898  31.5175152  49.8389359  24.3085632  30.7487774
  51.1989708  24.4179478  31.4040031   1.1879505  61.1995049  80.5980759
   0.8728418  62.0824165  80.4046707   0.4804166  60.7977715  81.1022949
  46.9845963  22.8942795   2.7016656  47.5243454  23.2784595   2.0107899
  46.7966156  22.0077038   2.3936427  19.9044247  28.8876495  80.0070343
  20.3273907  28.4098415  79.2935715  19.4678574  29.6230240  79.5770721
  69.3566284  48.2451401  62.2587395  69.5861053  47.3601189  62.5421219
  69.3987122  48.2091179  61.3031464  34.5644341  41.1938324   5.6958313
  33.9334450  41.3472824   4.9925966  35.2074394  41.8961372   5.5981393
  45.3964996  16.0857677  40.3479652  45.7362213  16.9699917  40.2102394
  45.9576149  15.5271292  39.8100967  83.5542526  35.1910820  43.7570496
  83.6352310  34.3144875  43.3812103  83.6212234  35.7807922  43.0060616
  63.4434052  24.9094429  85.4127808  63.4111900  24.2462234  84.7233353
  62.5710678  24.8884621  85.8062515  34.9450226  13.5857716   2.7347841
  34.7596092  14.2770700   3.3703623  35.8794708  13.6763630   2.5481405
  42.2736397   4.9382105  86.2532425  42.8174858   4.2158313  85.9391861
  41.8058281   4.5762129  87.0057983  81.8194656  56.8555336  41.8654327
  81.7283401  57.7484741  41.5328941  81.3550949  56.3137856  41.2273827
  80.0932999  26.3383427  46.1987648  80.1746292  25.5290737  45.6940880
  79.6217651  26.9360657  45.6185760   5.7239347  61.6674538  42.3592606
   6.0313282  60.8611488  41.9449921   4.9043660  61.8709106  41.9085426
   0.1922236   9.6932297  69.1640549  -0.5115767   9.7308531  69.8117294
   0.6802410   8.9003782  69.3864441   3.2808495  13.8091812  38.6148262
   3.8168914  14.6010742  38.5724373   3.0762472  13.6092749  37.7013664
  65.8428268   7.3793659  36.2387466  66.1880264   8.0506620  35.6501617
  65.5252457   7.8673248  36.9985275  34.9920921  55.3726845  45.4143677
  34.9148712  56.1853294  45.9142456  35.4757195  55.6211128  44.6265755
  64.6068192  61.9599419  53.6032753  65.4466476  62.1967506  53.2097740
  63.9562302  62.4249916  53.0772552   5.6431489  22.4705906  70.2995758
   5.5555472  22.0105228  69.4647751   6.5251627  22.8417759  70.2770844
  74.0105438  36.1881447  41.8865013  73.4863205  35.5538940  42.3755264
  73.5182953  37.0065041  41.9514008  82.1186981   0.7229122  32.2478790
  82.8519821   0.3858602  32.7625847  82.2102051   0.2990527  31.3945332
  36.1150856  52.9926376  41.6954689  36.6801453  52.9423752  40.9244843
  36.2832680  53.8618279  42.0594215  27.8032627  37.0356369   0.8712379
  27.0083389  37.1126137   0.3436015  28.4681244  36.7218056   0.2582927
  86.3380127  61.8792763  68.6104202  87.1056671  61.6222382  69.1211700
  86.5324249  62.7695351  68.3173752   2.1929095  48.9722977  87.6558609
   1.7609661  48.1605797  87.3898315   1.6274383  49.6665421  87.3174896
  75.6386719  58.7078018  76.3044205  76.0435257  59.4198036  76.7997742
  76.3299713  58.4008217  75.7178268  85.3034744  19.4424515  12.9887896
  85.5445175  19.0198097  13.8131123  84.6364136  18.8688564  12.6116362
  20.7249355  64.6255188   2.4719212  20.9935837  65.4770966   2.8167090
  21.5432606  64.1396561   2.3693874  22.0605545  58.3322105  11.0267448
  21.8846645  58.0931282  11.9367638  21.9702168  57.5118866  10.5418367
  53.8039169   2.3304100  36.2199364  52.9589119   2.2025826  36.6510506
  53.6491928   2.0773640  35.3098488  66.6820450  25.0927010  36.7692680
  66.3322754  24.3970299  36.2125511  67.3589325  24.6632919  37.2923965
   7.9891949  18.4853630   7.6367054   8.3209724  18.2865486   8.5122786
   7.4817963  17.7116528   7.3914475  65.1910172  38.4623871  65.6959381
  65.2458115  39.3714066  65.4011307  65.1985092  37.9479561  64.8887558
  42.2083855   5.2312760   4.5577230  41.4820061   4.6181121   4.6701336
  42.3206863   5.2982974   3.6094995  16.0999451   1.9515834  75.2675018
  16.9255829   2.3926163  75.4676132  15.4555845   2.6580441  75.2234039
  61.7309303  22.9571743  37.7637444  62.3802147  23.5298977  37.3555145
  61.7676811  22.1497288  37.2509956   0.5186051   4.9438987  15.0791759
   0.8422077   4.1643453  14.6277237  -0.2822922   4.6529870  15.5152559
  39.8744812  59.3620605  14.4706354  39.4682693  59.8776627  13.7739429
  39.1472168  58.8858566  14.8713179  81.6903076  21.2181187   7.0282650
  81.6033630  22.1648369   7.1396189  82.5061722  20.9980011   7.4778657
  82.6938858  36.2472763  67.2978134  83.0963669  35.4068260  67.0789948
  82.7273712  36.7482681  66.4828720  30.9121990  33.7890511  84.4776001
  31.1812515  33.8070641  85.3960266  30.7351437  34.7046661  84.2618866
  19.3849602  58.8671913  85.2232666  19.0353413  58.0736504  85.6285934
  20.2940826  58.6501236  85.0168533  40.1272621  44.9056358  10.3491831
  39.9435883  44.7392693  11.2737474  40.8109207  44.2748260  10.1235237
  55.3696632  69.8368378  67.7305298  54.6518555  69.4404297  67.2367172
  54.9555283  70.1772537  68.5235214  74.3254318  30.5037136  31.7506676
  75.0865250  30.4274044  31.1752129  74.1766205  29.6138000  32.0702629
  55.9027443  57.4613571  56.7419662  56.5575981  57.8784981  56.1821556
  55.0840569  57.9082222  56.5267944  26.7999649  29.2877884  68.6165466
  26.5106449  28.6519966  67.9620972  27.2149506  28.7584877  69.2976151
  41.7257271  49.3849030  67.8472595  42.1331749  49.8774529  67.1347885
  42.4203339  48.8102379  68.1689911  16.9647598  13.8744974  25.1997681
  16.3312626  14.1706114  24.5461388  16.6754494  12.9918680  25.4310608
  72.0056915  61.2882385   0.8205439  72.8591690  60.8576813   0.7713130
  72.0200653  61.7535820   1.6568953  68.7772751   0.3363675  87.6719513
  68.7393188   1.1139364  87.1150131  68.8625641   0.6820817  88.5604553
  62.4770317  66.7967224  39.8647270  62.5497398  67.5343246  40.4704399
  62.6144257  67.1827469  38.9996567  76.2992325  61.5628586  77.2395096
  75.6963120  62.2628632  76.9890823  77.1100235  62.0162544  77.4703140
  66.7478638  30.7711201  20.0091152  67.5903473  30.6496563  19.5712814
  66.6461487  31.7207146  20.0735836  37.5080566  13.6156101  65.1627502
  37.5781326  12.6759577  65.3311996  36.6094627  13.8364849  65.4076462
  57.7269897  30.9324799  31.7421799  58.1282425  30.2750206  32.3104897
  57.0435371  31.3302708  32.2815132  24.4243832  55.5614738  16.6805840
  24.9576588  55.1407776  17.3550186  24.2934399  56.4539375  17.0008831
  76.9256287  36.3859367  29.1925430  77.8355789  36.5826874  29.4150677
  76.9463806  36.1822777  28.2574902  20.4798050  42.4486542  74.3481674
  20.5332184  42.9614639  73.5416870  21.3390484  42.0340195  74.4256973
  28.0938339   1.7920004  86.0203934  27.2342701   2.2096019  85.9656982
  27.9116402   0.9107097  86.3465347  38.1573677  48.9117813  11.9510078
  38.7830505  48.7927284  12.6655569  37.9885216  49.8538361  11.9349642
  67.6513443  14.3612385  76.9449844  67.5794449  13.7408857  77.6704025
  68.5821838  14.5815144  76.9095764  63.9489822  33.4799347   6.4664588
  63.5424805  32.6526947   6.7246513  64.7483826  33.2211494   6.0079675
   7.4824033  30.4628792  80.4913712   6.7785954  29.8355637  80.6567841
   7.1049314  31.0888977  79.8734360  79.5834885  58.8280945  60.4370766
  80.0397568  58.0494690  60.7561302  78.6630936  58.5678787  60.3997040
  86.3210907  51.2924805   8.7695055  85.9088593  51.0683327   7.9352040
  86.3753128  52.2481041   8.7607651  55.0693436  67.9400635  72.4371872
  55.8055420  68.5109863  72.6569519  55.1911392  67.7385788  71.5093918
  85.1730118   0.5554115  47.2490158  85.9278946  -0.0292300  47.3166580
  84.7022934   0.2500435  46.4735069  83.8675232  60.2246819  80.1948700
  82.9818726  60.1421394  79.8412552  84.0699158  59.3548470  80.5393448
   3.5202937  67.8738022  30.9118538   4.2913499  68.1856232  31.3856411
   3.5624835  66.9204712  30.9867306  11.5309687  69.8429565  79.9103241
  11.6150131  70.4327316  79.1611023  11.7262573  70.3915176  80.6700516
  72.1406631  62.9403687  17.3721809  72.6841431  63.7235413  17.4587765
  72.0784760  62.5924339  18.2617340  78.7388229  43.7997208  24.5155315
  78.2358780  44.5031586  24.1051083  78.2873611  42.9976501  24.2526703
   8.8811550  38.7102737  82.3943100   9.1029663  38.1447296  83.1340408
   9.5909328  39.3516769  82.3619308  29.6122456  67.7548904  52.7122192
  28.7046776  68.0551529  52.7611656  29.6434975  66.9917679  53.2891884
  80.6576462  33.5929108  43.9451218  81.3553391  34.2252235  44.1172791
  79.9082184  34.1282463  43.6843643  22.7389278  47.1140327  39.6936913
  22.0551434  46.4684296  39.5151901  22.2652931  47.9365997  39.8173447
   4.8379693  18.1971302  68.4591904   5.5373936  17.6157684  68.7576141
   4.8926783  18.1669998  67.5040283  61.6422958  60.0411110   7.3065410
  62.3292351  60.0397606   6.6399503  61.8335152  59.2760468   7.8490782
  37.9391136  55.9403877  56.0649757  38.4944649  55.8409195  55.2917213
  37.2192078  55.3256073  55.9235153  85.4793091  12.0190668  61.4587593
  85.1486664  12.7157946  62.0257492  86.0123444  11.4728413  62.0364685
  82.4228287  41.3912849  78.2620773  81.5012589  41.6050987  78.1164017
  82.8372040  41.5241928  77.4095230  59.5889702  30.0140190  10.8504705
  59.9960136  29.1844273  11.1001234  58.6485977  29.8510342  10.9237709
  43.6168976  25.1059914   5.8608017  43.2254105  24.3519611   6.3017192
  43.4487457  24.9535789   4.9308939  21.7406807  71.2479858  49.6371193
  22.4766140  71.7612762  49.9705353  21.8232956  70.3997803  50.0729637
  42.3430595  32.3298759  73.4095535  42.7356529  32.9037590  74.0673981
  42.9916687  32.2924576  72.7066040  16.5343723  14.7628841  83.1376877
  17.3599663  14.2786379  83.1491241  16.0878716  14.4940529  83.9405518
  57.8359222   1.7760373  67.7605057  57.1448975   2.4356804  67.8203964
  57.6290855   1.2839465  66.9659653   6.0688024  50.2005806  82.1582565
   5.3456039  49.6048584  82.3540344   6.2318225  50.6585121  82.9828491
  27.1272030   7.0080090  33.4592896  26.5390434   6.8580275  32.7191505
  26.6240520   7.5612617  34.0567665   2.0022216  30.6965332  68.9038544
   2.9370975  30.9019318  68.9109039   1.9326091  29.9160671  68.3540802
  44.7806091  52.8751030  56.6014061  44.0354767  52.3239365  56.3621750
  45.3493919  52.2999687  57.1132088  72.6543961   0.5837146  63.5282707
  73.1504211   1.3560472  63.2568092  73.3049164  -0.1174109  63.5667076
  73.2471848  37.7866173  54.1513138  72.7941895  36.9482346  54.2415581
  73.1799240  38.1895905  55.0169449  39.9802017  43.3246765  51.1830215
  39.4445190  43.5680656  51.9380302  40.3994980  44.1418343  50.9134369
  72.0484467  56.5327301  40.7684479  72.9729156  56.4834366  40.5252113
  71.5823669  56.1776810  40.0115204  77.8057785  18.8460941  36.5631027
  77.7451324  18.6193810  37.4910851  78.7399521  18.7874775  36.3627777
   8.2135763  47.7645798  31.5222359   7.6225400  47.1528435  31.0832748
   7.9721727  48.6227341  31.1736317  72.9042282  67.1115723   4.6310344
  71.9538803  67.1852493   4.5435963  73.2458344  67.4029617   3.7856772
  14.6172466  46.1595306  30.7669067  15.5390186  46.2938690  30.9871826
  14.1702833  46.1326027  31.6129150  53.4066391  20.5651360  10.9994564
  53.4135208  21.0230293  10.1589088  53.5227623  21.2573795  11.6502619
  55.9972076  44.7650185  26.9864578  55.1031609  45.1060677  27.0108891
  55.8961296  43.8454208  26.7407818  73.4262466  21.6857491  39.3978462
  74.3227539  22.0106297  39.4812317  73.4082108  20.8924484  39.9331779
  74.0093460  56.4103889   8.2986383  73.5985413  56.1361465   9.1185560
  73.3541031  56.2204666   7.6272058  60.3281975   3.4076669   9.2134504
  60.6217766   2.9665334   8.4163027  60.1147919   2.6956131   9.8165007
  56.9816513   0.8152389  72.9578018  57.0130882   1.7572092  73.1249466
  57.8473778   0.6050860  72.6076889  29.3147507  71.3859558  72.2562790
  29.7713013  70.6203537  72.6050720  29.9357758  72.1059647  72.3665009
  10.3694744  51.7362251  60.1315689  10.4881325  51.0692673  59.4553185
  11.1768188  51.7032814  60.6447372  10.2733517  29.8596478  19.0446434
   9.5240955  30.2488060  19.4956455  10.2766523  30.2758408  18.1826668
  10.0788813  21.3959160  78.4191666  10.1041069  21.7505932  79.3078766
  10.9849272  21.4476948  78.1148148  45.5040398  35.2328644  11.1896286
  44.7625809  34.6419792  11.0579958  45.1351471  36.1088905  11.0768042
  60.9097633  18.3131580  36.6560783  60.9822121  18.0014038  35.7539711
  59.9867592  18.1910381  36.8782959  32.1456718   0.6787532  57.5415459
  33.0649185   0.8087299  57.3084717  31.8510399  -0.0290413  56.9684410
  59.1908760  43.2818947  37.4849930  60.1003113  43.0737572  37.2708817
  58.7580986  42.4302597  37.5454025  70.0414658   2.6547663  34.4894447
  70.2955551   1.7426355  34.3491402  69.1029739   2.6735055  34.3020248
  22.1912842  18.7903976  16.3542004  21.5336361  18.9826756  15.6857986
  23.0158463  19.0914688  15.9725122  75.6948013  30.1004677   9.0497618
  75.0926208  30.1389160   9.7928200  76.2768402  30.8501282   9.1741247
  14.0094156   0.5885787  16.2159424  14.6109104   0.1606048  16.8252640
  13.2285566   0.0349921  16.2216892  30.1035290   5.7890415  64.5701218
  29.4529762   6.3342128  65.0126190  29.8330269   4.8908920  64.7608795
  80.6054764  52.6676521  30.1304722  80.1213760  51.8531151  30.2661228
  81.2580338  52.4504089  29.4647331  63.1884689   4.2989416  28.8704643
  63.7430801   4.2356133  28.0928860  63.5837898   3.6924512  29.4966602
  46.4784660  18.5814304  78.9793320  46.1766396  19.2482529  78.3625031
  47.4274063  18.7013206  79.0162811  35.6464996  70.4550323  55.1832008
  35.3302040  69.9174881  55.9093132  35.4368019  71.3527679  55.4407234
  34.4574738   1.9243917  43.0115738  34.7363129   2.7740555  43.3529701
  34.7971649   1.2896280  43.6423798  20.8242416  32.3633919  64.3001480
  20.0000210  32.1237984  64.7238083  20.9520702  31.6932640  63.6287117
  72.4012985  26.0045986  44.0644264  71.4909744  26.2391815  43.8841057
  72.8575745  26.8439217  44.1242867  45.3190956  13.7303123  83.5770493
  45.4254761  12.7843657  83.4765549  46.1511803  14.0271034  83.9455338
  60.9957275  43.2852936  59.2027702  61.0768433  42.8490334  60.0509033
  61.8638763  43.2043800  58.8078041  74.1039963   2.6468103  62.4233780
  73.8220749   3.3253350  61.8099022  74.8888397   2.2728817  62.0228386
  23.0049286  70.4573822  66.6438370  22.5602169  70.1784134  65.8434372
  23.7217636  69.8319931  66.7499695  40.4009781  47.5261230  10.2176542
  39.9921112  47.9359932  10.9799290  40.4083519  46.5913429  10.4234781
  76.1120453  50.2157249  23.4979420  75.9371490  51.0301743  23.0264397
  77.0459366  50.0559235  23.3617268  47.7372093  56.3838463   8.2992487
  48.4396553  56.2114906   8.9262228  48.1695175  56.3697052   7.4453516
  32.9021492  11.6426668  67.0809631  33.1980286  11.8028069  66.1848297
  33.2744484  12.3637438  67.5885773  68.0232239   1.3569034   9.4689226
  68.3259811   1.0740376  10.3318014  68.8263626   1.4966897   8.9672632
  61.6153374  10.2719793  88.3401718  61.8095055  10.7488279  89.1471100
  61.3388329   9.4044018  88.6352768  86.2673340  56.0408478  86.1297302
  85.6330948  55.9539642  86.8413620  87.1135788  56.1150932  86.5708466
  87.0819626   8.2597799  61.9847794  86.5482635   9.0407162  62.1315346
  86.8358841   7.6649146  62.6931686  53.5172043  18.8165512  18.4713612
  52.7619591  19.4017391  18.5296001  53.4306107  18.3982735  17.6147518
   2.5098529  57.1109581  69.2570572   3.1979017  56.4469223  69.2137451
   1.9374665  56.9114456  68.5162430  11.1838818  30.0820942  70.0566483
  11.5287361  29.3287315  69.5773239  11.9552603  30.4875832  70.4526138
  56.4369926  11.9439964  58.0040932  57.2837868  12.3317080  58.2251091
  56.5950203  11.4743996  57.1851082   4.1841745  67.4413300   7.8331861
   3.7813070  67.9101334   7.1023269   3.4496601  67.0269089   8.2859297
  53.8487930  25.8544712  36.7788887  54.0465851  25.8425179  35.8424225
  53.6839256  26.7762947  36.9771118  10.8122406   2.6635139  38.8897171
  10.3494167   2.5001400  38.0679283  11.6243038   2.1629465  38.8108635
  34.1482964   2.6313941  11.9972868  34.7204361   3.2894900  12.3919964
  34.5740318   2.4095752  11.1691713  69.6627731   4.8055887  84.2618866
  69.2375336   5.6008215  83.9409332  70.2314987   4.5311007  83.5425568
  46.3551903  42.0679283   4.7685394  46.2510223  42.5558510   3.9516487
  46.9984055  41.3897743   4.5621128  46.8762627  23.5412807  78.7734070
  46.3253899  22.9814568  78.2262573  46.9373627  24.3644161  78.2886887
  52.1791420  13.8400402  46.2466202  51.6863365  13.7691650  45.4290924
  52.1916313  14.7777843  46.4382286  79.3243179  14.6037083  69.1512451
  80.2431259  14.8720407  69.1467285  78.9418335  15.0714912  69.8936157
  71.8871078   8.4023666  82.5627594  70.9459686   8.3536339  82.3950882
  71.9685974   9.0133238  83.2950974  36.4142380   4.6126781  65.6567459
  36.6464157   4.8192368  66.5620956  37.1621284   4.9165392  65.1423950
  43.9866295  50.5889702  15.6602879  44.7095337  51.1974945  15.5075092
  43.4111671  50.7060699  14.9044008  38.3137550  57.7075768  58.6000938
  38.7897034  57.4308586  59.3831215  38.7123566  58.5442619  58.3607063
  55.1945267  16.0070801  33.3153229  54.7136078  16.8252697  33.4398689
  55.6499939  15.8681917  34.1456757   4.6505308  15.9416094  38.8535881
   4.6025300  16.6923199  39.4454994   5.3512902  15.3975954  39.2130585
  79.0830307  65.5015640  11.9665966  78.5103302  65.9132156  12.6137371
  79.9686127  65.7181396  12.2582741  75.5800400  20.6979485  52.1932449
  76.1928253  20.9634247  52.8789864  76.0556412  20.8472977  51.3760986
  26.3163338  49.5718689  69.1360626  26.8336239  48.8205261  69.4261017
  26.5602016  49.6905365  68.2180862  66.0762558  60.6352081  10.7917604
  66.1462021  60.2622147   9.9130030  65.5400314  60.0076218  11.2763510
  59.8816833   9.7080917  62.1941986  60.6932182  10.1526823  61.9492760
  60.1655884   8.8547173  62.5218849  10.2960157  67.9070206   2.4114172
   9.6134386  67.4504166   2.9031842  10.5986958  68.5949936   3.0041251
  83.2583618  43.7584457  24.0382786  83.4557495  44.3930588  23.3494129
  83.5348129  44.1892090  24.8471375  83.9044113  31.9097118  78.2019577
  83.1646347  31.8839073  77.5950928  83.8300476  31.0986767  78.7048721
  54.9479561  62.1488304  86.7844086  55.4312439  62.8265877  87.2569580
  54.1970024  62.6081543  86.4084778   8.6924477  27.7885590  58.6695023
   9.2105513  28.5884533  58.7587852   8.1246796  27.9537125  57.9167786
  77.1258240   2.6456628  39.9679184  77.1794662   1.7043343  40.1330070
  77.7286224   3.0346930  40.6015816  20.6148148  13.2621355  19.7182522
  20.4481983  14.1810541  19.5083504  20.5016994  13.2089081  20.6672535
  62.0054054  25.2083092  13.4691315  61.0822716  24.9552269  13.4715099
  62.0472488  25.9670277  14.0512209  67.9447098  49.3429489  50.7216301
  67.5024414  48.5052757  50.8592186  67.3715744  49.8207588  50.1220894
  31.2370300  52.8579941   6.9834008  31.4666996  53.1067505   6.0880771
  31.9248066  53.2466774   7.5238848  44.0044861  25.1527252  87.2695236
  44.4133224  25.9747849  87.5402679  44.4032974  24.9545555  86.4222260
  24.2500935  57.8982277  63.4656906  23.5638809  58.4770126  63.7978783
  24.4657860  57.3323822  64.2069931  77.6027374  46.2408791  45.7471771
  78.1136017  46.4005318  46.5407486  77.9602127  46.8539200  45.1048203
  75.3792725  32.4557533  83.4108734  76.2969131  32.6289482  83.6210480
  75.3905945  32.1867676  82.4923096  75.4943008  54.3403091  87.8320923
  75.8211899  54.7952385  87.0559387  76.2227859  53.7842293  88.1083527
  36.7506065  21.3796329  86.6283493  37.5838547  20.9165611  86.5417557
  36.9174805  22.2448864  86.2545547  83.1354904  19.3408241  86.2546463
  83.4688492  18.8271732  86.9903564  83.6466904  20.1498013  86.2761993
  75.1528625  67.4402618  21.7309685  75.4258652  67.9747162  22.4766655
  75.5306778  67.8805618  20.9696369  12.5426149  36.9302025   9.2997828
  13.3452978  37.4212112   9.1241608  12.2079954  37.3021812  10.1158066
  82.5456390   6.2353001  64.6824799  82.9540405   6.8761930  64.1005020
  82.5822144   6.6408925  65.5487289  33.8470840  45.4481316  56.3038063
  33.8074341  46.2533302  55.7877464  33.0013847  45.0256157  56.1537857
   5.8677773   1.3499057  82.0944290   5.6143279   0.8925575  81.2926636
   6.7129650   1.7480158  81.8861084  23.4143791  55.0128250  57.2261772
  23.2736721  55.5699387  57.9917259  22.7227650  55.2664909  56.6149864
  34.9097252  65.5962601   9.5560312  35.1353607  65.8703079   8.6670904
  35.1758842  64.6777802   9.5983372  40.9551430  19.4946518  70.3278732
  41.3071671  18.7335968  69.8662415  41.1489220  20.2345905  69.7523956
  59.7039795  50.0946083  44.0818443  60.1389999  50.9198647  44.2961845
  59.4674454  49.7209969  44.9307823  51.8158607  55.5675774  72.1634521
  52.6074219  55.5938606  72.7010117  52.1195831  55.2753868  71.3040237
  16.2718754  45.7606735  13.2711401  17.1894665  45.5334930  13.1206522
  16.1046925  45.4954796  14.1755486  64.7179184  42.1213531  78.4041214
  64.4388962  43.0122757  78.6153946  64.1018982  41.5595779  78.8743973
  81.7166595  17.5884953   3.1256881  81.4285126  17.8663158   3.9951828
  81.4110565  18.2807903   2.5395417   4.4389272  14.2224073  73.4887543
   4.8362222  13.4891663  73.9585876   4.8997617  14.2474279  72.6501617
  71.2702866  26.7448826  40.6728935  70.4949570  26.6922836  40.1140289
  71.0813446  27.4623241  41.2777176  74.5961609  38.2372932  23.4514828
  74.9710464  39.0859489  23.2159538  74.0070877  38.0263290  22.7271099
   7.5443311  13.9378357  84.7483444   7.3590894  14.6906157  84.1868820
   6.7012777  13.7239189  85.1480103  34.8988342  18.1597328  83.2118530
  35.2436295  17.9632072  84.0829010  34.8855171  19.1159096  83.1696548
  65.5698090  25.1325035  83.4192429  65.3400497  26.0595303  83.4829865
  66.2952347  25.1078968  82.7952271  44.0652275   8.1324520  23.1985397
  44.6433411   7.8202438  22.5024471  43.3489609   8.5688505  22.7372932
   4.3507824   7.8367162  54.4179192   3.8819890   7.4224033  55.1423569
   5.2569647   7.8943429  54.7208138  62.3729820  11.8256931  66.7544479
  61.6293602  11.8373680  67.3570480  62.4224243  12.7203274  66.4176788
   7.5003185   9.0318785  61.9770813   7.5721869   9.6103544  61.2178497
   7.7138314   8.1629105  61.6371689  32.9228096  48.9621735  76.4344711
  33.7280312  49.2375641  76.8726654  32.9840698  49.3438683  75.5588074
  48.8511581  65.6293793  80.9515152  48.9853706  65.8955917  80.0419312
  49.6085472  65.9821625  81.4185715   1.3173096  66.3361740  34.2670174
   1.3511202  67.0859985  33.6730003   1.7989349  65.6466675  33.8100166
  63.9658318  63.0283241  75.1966782  64.4152374  63.2503662  76.0121307
  64.6061249  62.5170059  74.7018967  12.6188869  39.2711411  71.6498260
  11.9372797  38.6962738  71.3017349  13.1694412  39.4749603  70.8937988
  65.8533096  62.6629143   7.3097301  65.7311096  63.3691750   7.9441533
  66.8029861  62.5663948   7.2387352  38.2928543  60.4079704  83.3701096
  39.1970215  60.5683823  83.0999680  38.3694115  59.9990692  84.2321854
  74.4699554  60.2054291  49.8209724  73.6128311  60.5777473  49.6137352
  74.5351181  59.4296761  49.2640190  15.8631773  53.7669411   3.0176280
  15.7590694  54.4263191   3.7036424  15.8305645  52.9307060   3.4822528
  30.3327980  39.7708282  61.3425980  30.2083187  38.9360847  61.7941971
  30.2520657  40.4303017  62.0316658  18.5144138  21.5483723  81.3746719
  19.3659744  21.9330406  81.5822983  18.0435600  22.2431412  80.9144287
  31.6320934   6.1842408  62.3237114  31.3425446   6.0177264  63.2207413
  32.4129028   5.6405010  62.2192345  44.0519218  48.5176201  27.4155083
  44.1503487  49.2175369  26.7700176  44.7484894  47.8963547  27.2032471
  67.2190247  14.1335201  12.0541487  66.2803040  14.1080179  12.2396069
  67.2743759  14.1364965  11.0985546  43.3099365   2.2690787  27.2608871
  43.5898132   1.3966446  26.9838295  44.1233711   2.7226024  27.4819622
  19.7282181  25.1510658   4.8333182  19.4750175  25.8681240   4.2519846
  20.5067940  25.4740124   5.2869215  69.6798172  51.1350899   6.8013730
  69.2345428  51.7086143   6.1776447  70.3990860  50.7496567   6.3010511
  20.1197281  15.8428698  15.2782373  19.7663555  14.9533443  15.2680063
  21.0114021  15.7425432  15.6115303  48.7227211  31.6697483  58.6317749
  48.3223953  32.4194565  58.1914215  49.3478851  32.0574875  59.2441940
  57.6303177  41.3999023  87.5786285  57.3385658  42.2081566  88.0003357
  57.0704575  40.7192726  87.9521637  64.3897171  10.6260233  10.8410673
  64.5684433  10.7502012   9.9089355  65.2189636  10.8304691  11.2732534
  64.6470566  65.4437714  25.7447071  63.7166176  65.5610275  25.5529537
  64.7254944  64.5237961  25.9971466  15.7986946  34.1792870   9.7645140
  15.5913925  35.0856934   9.9918537  15.9330053  33.7457008  10.6072464
  19.9739990  64.5071335   5.6238298  19.0541782  64.7627487   5.6932507
  20.4595394  65.2768631   5.9204583  86.0150146  12.2866402  11.7974195
  85.5222397  13.0433960  12.1147957  85.3456039  11.6342192  11.5913429
  27.1592751   3.2898033  80.0435715  26.9577103   2.3728209  80.2299728
  27.4695892   3.6412501  80.8780899  74.4430389  20.0289917  21.7943611
  74.3924255  19.0910397  21.6102047  75.3583145  20.2562103  21.6304264
  50.1949196  51.0255890  31.4636288  50.4723091  50.5328941  30.6912689
  49.3726501  51.4393845  31.2011776   3.4594326  52.9041901   4.0919819
   3.3034024  53.1313210   3.1753039   4.2785068  52.4090080   4.0799704
  86.0060349  67.1937103   8.0241528  85.9944687  66.2367249   8.0074110
  86.2907181  67.4143143   8.9110136  29.3069305  63.2604294  18.9137821
  30.0605602  63.7435646  18.5748749  28.5925789  63.4808807  18.3160076
  46.0591698   7.0142350  66.7179794  45.3089180   7.1864777  66.1490402
  46.4120598   6.1818542  66.4035873  36.4207306  60.4584007  55.0037003
  36.4122658  60.5917282  54.0558701  36.7255249  59.5580254  55.1162071
   3.2536504   1.1515259  15.0661812   2.4937127   1.6895885  14.8443365
   3.0156257   0.2703746  14.7778263  10.1947680  58.6348343  87.2044144
  10.1502047  58.2366066  86.3351288  11.1146431  58.8776588  87.3097534
  37.0933533  49.7804909   7.1950121  37.8230362  49.1944962   7.3960190
  37.1403046  50.4606514   7.8668823  43.9976921  37.4870262  18.7691555
  44.6686783  37.1447830  18.1784954  44.4640274  38.1108284  19.3256073
  43.1955299  36.6734123  83.2715149  43.6269531  36.8557816  82.4367447
  42.2776070  36.8993034  83.1211090  38.3688622   3.5811894  49.5414200
  39.1528053   3.0459492  49.4182053  37.6547508   2.9475918  49.6109276
  56.5791779  36.1757507  72.7265625  56.2174797  35.7733040  71.9369812
  56.8206902  37.0612602  72.4549484  63.7852516  23.9968586  39.6145782
  63.0729790  23.3619308  39.5386543  64.1746826  23.8187027  40.4706345
  25.5784302  17.3026657  84.1161957  25.9628410  18.0200176  84.6200485
  25.1252460  16.7680206  84.7681198  61.9457054  27.5138016  38.1653061
  62.1482201  28.4122391  37.9044800  60.9915771  27.4583359  38.1124039
  72.7204590  27.6389408  51.3382797  72.6705246  28.2254143  52.0931206
  72.0373459  26.9871826  51.4957542   2.4418499   8.3504801  78.5917969
   3.0012209   7.8336296  78.0119629   1.8879073   7.7038794  79.0291595
  21.3924351  35.6647301   2.8319521  21.4180031  35.2259865   3.6822946
  22.3068047  35.8766365   2.6441855  71.4541092  52.0014572   4.7719102
  71.9037628  51.2002258   5.0403705  72.0813675  52.7009392   4.9549427
  41.4331245  38.2603302  79.8809891  40.9161110  38.4789200  79.1056595
  42.2068100  38.8204765  79.8186951  19.0236340  51.0058632  58.0080795
  19.6820221  50.6359329  57.4199409  18.6476650  51.7366600  57.5173492
  22.7951813  49.7535248  62.6620369  22.6208973  49.1375580  61.9503899
  22.1013870  49.5853348  63.2996826  68.4801407  24.9632931  76.1167603
  67.7501221  24.3727398  75.9308929  69.2374649  24.3855743  76.2112961
  32.0182076  39.2014236  75.5679169  32.3444138  39.5615845  76.3926010
  31.0885525  39.4291916  75.5581741  61.4449959  10.3816910  46.7521629
  60.4968033  10.2634668  46.8086624  61.5928459  10.7115011  45.8658257
  63.5217285  37.6876297  42.2143135  63.1113243  37.9868317  41.4029694
  63.5662346  38.4706154  42.7631149  39.2480583  36.9972076  14.6508989
  38.8365326  37.8155556  14.9287176  39.4133568  37.1176338  13.7158031
  68.8238754   7.6619096  43.0000229  69.1827927   7.7701459  42.1192894
  69.5319061   7.9366693  43.5826302  36.9930840  65.0533066  34.1275787
  37.7236404  65.6016617  33.8415222  36.7964058  65.3591537  35.0130196
  64.4270325  61.0846519  79.5804977  64.7758102  60.2293625  79.3293686
  65.1672668  61.5351830  79.9870758  51.3200493  62.4121780   6.1426067
  52.1221542  62.9128227   6.2916555  51.2880554  62.2879066   5.1940479
  47.7635727   1.3079797  63.6405563  48.2005844   0.4829330  63.4294891
  48.2306786   1.6367851  64.4086227  58.9099922   0.7114558  88.2787323
  58.7008781   0.8546534  87.3556976  58.0796432   0.4459614  88.6740341
  48.6894913  23.0898266  84.4633865  48.0283470  22.4245872  84.2721252
  49.3212738  23.0120850  83.7485123  67.8526459  23.0499287  27.7628384
  67.1048508  23.5512295  28.0879917  68.6093216  23.6108932  27.9331207
  35.8509712   4.1513805  50.5319519  36.7181473   4.5327210  50.3947678
  35.4515953   4.7009487  51.2062683  49.6167755  70.4503479  56.4630699
  48.8259888  69.9265671  56.5916977  50.3189659  69.8059998  56.3738289
   9.7229481  43.9418259  23.1599770  10.3906479  43.3427963  23.4939957
  10.0675335  44.8144531  23.3497581  23.1423759  12.2407436  76.2043610
  23.3445549  12.3393488  75.2739639  23.1839790  11.2971678  76.3598099
  21.1326733  15.9116783  51.6601067  21.1696377  15.1041183  51.1475525
  21.4540768  15.6606522  52.5260811  17.1847286   2.5213199  32.8794746
  16.2322807   2.5110571  32.7847633  17.3818321   1.7440388  33.4021759
  68.0442047  26.2443447  29.4210682  68.2165146  26.3571815  28.4862919
  68.4819565  26.9872150  29.8366909   8.3279152  40.2204514  25.9447079
   7.9021568  39.9146347  26.7456055   9.0290813  40.7956734  26.2508392
  25.6312981  51.3212471  49.3754234  25.7814388  51.5868721  48.4681549
  24.7008781  51.0989418  49.4090576  75.2913666  29.7847404  46.8057404
  74.8513718  30.3908424  47.4017906  75.7349319  30.3502274  46.1735191
  45.1142578  21.1435242  80.5866089  45.9979362  21.1954327  80.2223969
  44.8436890  20.2387009  80.4306488  49.1352158  71.1163254  26.9584599
  49.5286331  71.0179214  27.8255081  49.1564827  70.2354813  26.5844307
  70.1281357  15.0131960  53.6213837  69.9115753  14.1567917  53.9900360
  70.0580978  15.6169291  54.3608665  82.4579849   6.0318170  45.1757774
  81.8501511   6.1997757  45.8958855  82.7099838   5.1147480  45.2840118
  58.0886078  65.8821945  36.2450180  58.7866669  65.9914093  36.8907890
  58.5290794  65.5237198  35.4744911  82.7908401  38.3475456  51.1406670
  82.9873962  37.7359352  50.4310722  83.4662781  38.1776581  51.7972832
  35.4080467  54.8924065  55.3673592  35.4371986  54.6609383  54.4390259
  34.5199890  55.2223740  55.5041542  58.3323212  29.4498367  33.8573456
  57.7922745  28.8794422  34.4043655  59.0404625  29.7350655  34.4347610
   8.4398003  30.4071388   4.7594042   8.0179920  29.7387924   5.2994246
   9.3667784  30.3528919   4.9917850   8.4483070  42.3942032  30.2758636
   8.0517807  42.2778740  29.4124603   9.3808374  42.5149269  30.0968571
   1.5970136  41.6587524   9.9087505   2.2093246  41.8019562  10.6304150
   0.7575126  41.4905357  10.3367395  45.7471542  29.1906681   3.5024340
  45.4671593  30.0896473   3.6746860  45.4363556  29.0087757   2.6155565
  52.6221962  63.6779900  79.6667709  51.7825394  63.7248344  79.2095871
  52.3906517  63.6963348  80.5953598  68.0989151  47.4623795  57.4522934
  68.6781006  47.7199631  56.7350578  67.5874405  48.2490540  57.6414299
  85.6123352  26.7431850  73.8507690  85.0802078  27.4757748  73.5403137
  86.1397095  27.1132984  74.5586700  54.2585602  16.8118610  16.4499664
  53.6319389  16.1934109  16.8255978  55.1135902  16.4890270  16.7344589
  61.9561119  65.4453506   1.0999978  61.5556450  65.9813004   0.4154463
  61.7417946  65.8987808   1.9152875  67.1617889  37.2977028   5.2618809
  66.2618713  37.1091080   5.5279918  67.6679306  36.5514793   5.5831375
  63.4621468  61.1475868  33.8084564  63.0304604  60.9379463  32.9802475
  64.2797012  60.6503067  33.7850189   4.4777799  31.8479214  59.4437943
   4.0864820  32.7090492  59.5906830   5.4209886  32.0109367  59.4399643
  66.5381012  50.4988556  38.9509392  66.0204620  49.6992874  38.8562012
  66.1080399  50.9802628  39.6577148  56.9133644  21.7895432  87.2073669
  57.2584000  21.4217758  86.3937759  57.1329918  21.1404514  87.8757019
  14.7363548  54.5304604  52.9080963  14.0107918  54.8814774  53.4244080
  14.3531141  54.3466988  52.0504303  20.7059994   0.9695252   5.4981842
  19.9675674   0.8647961   4.8981986  21.0032177   1.8684820   5.3575788
  77.0748825  18.0150661  39.1891251  76.8544464  18.9405823  39.2942886
  76.6758347  17.5862904  39.9461899  60.4758949  21.9702320  84.6533585
  60.6241989  22.6891422  85.2676926  61.1607285  21.3340015  84.8593903
  39.7383118  43.7283249   7.1886029  39.9950104  43.5510330   6.2836690
  40.5665779  43.8442307   7.6541910  50.6670685   7.0068183  21.2244568
  50.0500717   7.2500858  21.9146519  50.1475182   7.0268698  20.4207764
  32.6840363  50.4642372  21.0266800  33.4244881  50.0224991  21.4424095
  32.5962563  50.0350990  20.1755810  52.6430931  43.7122536  55.9587631
  52.1685944  43.9934692  55.1764603  52.4906540  42.7684021  56.0049973
  67.5163193   4.9248776  60.7684975  67.6835022   4.0145955  61.0127640
  66.5636520   4.9820614  60.6950722  31.7906170  34.1079063   8.7750807
  31.1823502  34.5070419   8.1530390  32.0399818  34.8239861   9.3592730
  59.6416245  56.6164551  38.9538307  59.4966431  56.9665337  38.0748215
  60.1642647  57.2860374  39.3951187  51.2716026  17.4513836  27.9930000
  50.9867592  18.3640366  27.9465408  50.7109337  16.9933205  27.3668518
  77.5003967  40.5466652  15.3564157  77.9483795  41.1962204  15.8982849
  78.0169296  39.7479706  15.4637089  36.0109673  61.0966454  88.4949417
  35.6855469  60.2831955  88.1094131  35.3407364  61.3448410  89.1316681
  47.9087372  41.8917236   8.7090597  48.5666389  42.1548576   9.3526106
  48.3814011  41.8739281   7.8768897  59.7013245  49.4358215  30.7070560
  58.9542770  49.0046692  30.2920208  59.7305756  50.3039665  30.3049335
  36.1255112  50.3442268  32.8857574  35.4976044  50.6963882  33.5165863
  36.9184799  50.8627052  33.0221863  14.2705050  64.8735504  64.9782257
  13.3866959  64.7372589  65.3196030  14.5457382  65.7101288  65.3532181
  28.2881927  13.6106796  60.0832596  29.2084751  13.5727577  60.3437881
  27.9687862  12.7161007  60.2013283  39.4855156  50.9181900  29.9849052
  40.3290176  51.3165207  29.7702713  38.8554955  51.3776093  29.4297142
  14.4196739   0.0663632  23.8870106  14.8077869   0.6274269  24.5584335
  14.9399481   0.2373242  23.1019516  36.4702225  41.9960060  83.5825882
  37.2897377  41.6629753  83.2169113  36.6889839  42.8711243  83.9028168
  47.9344177  43.9461975  11.3989105  47.0605049  43.8019066  11.0360212
  48.4106598  44.3997765  10.7034321  40.6935616  70.3729630  60.5849037
  39.8873749  70.5963821  60.1197395  40.4726601  70.4767456  61.5104637
  67.6215973  15.6604071   2.9158618  67.9935913  14.8107634   2.6793101
  66.7121582  15.4683990   3.1445267  68.2598190  56.9960670   6.6436586
  67.4327698  56.5706787   6.4172401  68.7350159  57.0523643   5.8146553
  70.6896667  69.5695419  52.9926529  70.7200851  69.5544891  52.0360565
  70.6877136  68.6466904  53.2467728  71.5136261  30.4812851  22.8751621
  71.0859833  29.7411289  22.4444370  71.0107574  30.6139374  23.6787510
  55.6576080  43.5182037  82.2105942  56.0528526  42.7718239  82.6610718
  54.7198296  43.3263893  82.2066574  85.9540787  49.5603867  25.5858974
  85.5257568  48.9533844  26.1894836  86.8497162  49.2311745  25.5105610
  72.7335205  11.0037546  46.2132683  73.4131775  11.6757631  46.1612663
  71.9115601  11.4877214  46.1333160   9.8125410  50.7137260  41.7031746
  10.0311508  49.9045944  41.2408447   9.3389654  51.2380943  41.0574226
   8.6693821  32.8207016  63.9314270   8.7067413  33.6880722  64.3345413
   9.4298344  32.7935104  63.3507309  16.8953304  61.8644867   1.0828091
  17.1085072  62.7446671   0.7728580  15.9661922  61.9085732   1.3086187
  83.7233047  26.8262501  78.9009933  82.8903198  26.4259167  79.1502151
  83.9699020  26.3811169  78.0902710  15.5291958  45.2511597  28.3003559
  16.2631664  44.6875992  28.5451393  15.1353645  45.5072861  29.1343384
  81.1956482  40.3066788  19.3696785  82.0329666  40.1517944  18.9324799
  80.9277802  39.4441109  19.6866283  41.1628532  65.6677399  34.5096588
  40.9142532  64.7898407  34.2203102  42.0579224  65.5685043  34.8340530
  10.4755077  37.2166138  63.7263832  10.2737846  37.9092598  64.3554993
  10.3236217  37.6183586  62.8709526  31.1700287   6.2295651   9.6971235
  31.0103550   7.1659188   9.5788946  31.6660233   5.9712138   8.9202862
  76.7745743  18.2812443  25.3758621  77.2900162  18.1065845  26.1632900
  77.4098740  18.2449722  24.6608047  15.9012213  43.2498665  32.8948097
  15.3649511  43.9022713  33.3453789  16.7861500  43.3945160  33.2297859
   1.7084535  33.3596115  11.7011538   2.5768595  33.6141815  12.0130768
   1.7099879  33.5916634  10.7725086  15.0650949  54.9905167  26.6571941
  14.6077023  55.6369019  27.1949787  15.0565701  54.1914330  27.1840916
  85.4054184   9.5417128  46.4589272  85.7533646   9.5011635  45.5681267
  85.9499283  10.1942759  46.8992691  54.5146751  46.5295639  80.0382309
  54.4033737  45.6106529  79.7944183  54.2281723  47.0184479  79.2667770
  72.4986267  59.5563316  68.7250290  72.5921783  58.9382858  69.4499435
  71.8116302  59.1789131  68.1756439   9.6082468   2.0337551  60.7341042
  10.2128925   1.2972972  60.8250160   9.4682417   2.3406892  61.6298828
  17.0644913  44.3471718  70.0998154  17.6267910  43.5834618  70.2294235
  16.9579868  44.7176323  70.9759750  23.3096371  57.1253700  71.3830185
  23.5361176  57.4676437  70.5182724  24.1096210  56.6975174  71.6883087
  13.2049370  68.9637299  73.3701324  13.5156517  68.2102814  73.8721390
  13.7434978  69.6936798  73.6756744  34.6748695  71.1417007  59.7990074
  33.7472305  71.3766174  59.7758598  34.7210350  70.4085236  60.4126396
  10.4271374  66.4847794  87.3647995  10.7335873  66.0609207  88.1664658
   9.9068842  65.8137360  86.9229050  45.2066689  33.6360664  69.0462189
  45.0808449  32.8792686  69.6186371  45.1508636  33.2781334  68.1602173
   0.3337998   5.7039223  83.8184967  -0.3229311   5.1317430  84.2154160
   0.6526927   5.2131600  83.0610733  69.1625519  31.2249756  33.7994576
  69.2305984  30.2721672  33.7381516  68.5148697  31.4620419  33.1357231
  28.1553116  64.1398087  83.4025269  28.6157799  64.1341400  82.5633774
  27.9156170  65.0565567  83.5380096  75.4072647  62.1731949  67.6829529
  75.4417267  62.5851212  68.5462952  75.5073242  61.2377968  67.8597107
  32.1524620  65.1613312   4.5578508  31.5910778  65.9319839   4.6425552
  33.0432701  65.5113831   4.5702610  73.6914520  19.4499950   5.8464403
  73.2876663  19.4967918   6.7130423  74.2010117  20.2571964   5.7757277
  67.1287613  31.2588100  81.7951584  67.5811920  30.7433968  82.4629059
  67.4167709  32.1582642  81.9509430  17.5685120   1.9391533  18.7127762
  16.7945766   1.4924905  19.0559196  17.2974758   2.2617774  17.8533077
  74.3663025   5.7445340  11.0385399  74.6446075   6.5263505  11.5155563
  74.9794159   5.0638080  11.3159180  39.7344398  52.2358398  41.0824966
  40.4552994  52.1456528  41.7057648  40.0676193  51.8481750  40.2732124
   1.1736369  32.6596298  79.0554276   1.0820718  32.4332161  79.9809494
   1.5020593  31.8599033  78.6445694  43.4342384  37.0754662  13.4533472
  42.6930504  36.9034042  14.0340939  43.0599442  37.0481644  12.5727863
  66.2406921  19.4668217  88.3381958  66.7096710  19.1408310  87.5700684
  65.3161087  19.3367176  88.1273804  36.9726295  17.5005836  80.6139603
  36.8498840  17.8422604  79.7282867  36.0844269  17.3894978  80.9530563
   7.0562363  71.2151031  51.3480453   6.8991942  71.0223389  52.2723885
   6.8453088  72.1444168  51.2579803   0.1314351  60.2614632  56.4741859
   0.1445921  59.3073273  56.3987503   0.2220957  60.4288254  57.4122696
  29.7400036  38.7430687  66.2877121  29.8704090  37.8583145  65.9464798
  30.6063499  39.0120659  66.5931931  63.6897240  61.1427879  49.5506363
  62.8897209  60.6959953  49.8274078  63.4501534  61.5780602  48.7324829
  47.3328896  13.5717020  24.3164177  46.5913925  13.2572279  23.7991924
  48.0995636  13.3830252  23.7752705  24.2312756  52.8573570  64.4323196
  23.6709938  52.6373367  63.6880722  23.6837406  53.4111977  64.9888306
  78.7561264   2.9975512  20.1353378  78.5793686   2.7830594  19.2193775
  77.9249268   2.8396428  20.5830116  21.6692944  28.5077934   7.1820302
  22.3102913  29.1475773   6.8721356  20.8463478  28.7759762   6.7732887
  25.7912254  48.0310783  11.0915318  26.2754688  48.4825668  10.4002304
  25.0965652  48.6425858  11.3359470  17.3464584   3.4627585  52.9565811
  17.5542049   4.3524914  52.6711884  18.1743660   2.9880624  52.8826523
  10.3989687  65.4382248  37.9891014   9.5959940  65.6072464  37.4962578
  10.1257801  64.8594742  38.7008934  33.0529366  21.5148754   4.2720704
  33.4820671  22.3461456   4.0694137  32.4481773  21.7247715   4.9837151
   7.7694335  51.4569054  77.2644348   7.6589561  51.2093124  78.1824341
   8.7151661  51.5565529  77.1553879   7.0127439  20.6327839  12.7751541
   6.9094262  21.2338810  13.5128803   6.5384569  21.0514622  12.0568275
   4.6359410  65.0780029  73.8740540   5.0001159  65.9137802  73.5823669
   5.0996194  64.8861313  74.6891785  60.2693520  64.1029892  12.7214050
  60.0486183  64.0202560  13.6491251  60.9653893  64.7596817  12.6984558
  55.5074768  14.8302898  13.6441116  55.1310081  15.6119242  13.2397003
  54.7507744  14.2892294  13.8696890  82.2326355  30.2793541  36.5201683
  82.7371826  29.9313354  35.7849503  81.5788879  30.8484325  36.1139793
  68.3712540  40.1518669  68.1374435  67.6574173  40.7318802  68.4025040
  68.1331482  39.2982445  68.4991913  43.4299126  40.6200256  61.4386864
  43.0544319  39.8292046  61.8257866  44.1754723  40.8310318  62.0006866
  20.3242016  46.1002235  16.1980095  21.0963135  46.6650085  16.2310429
  19.5874500  46.6927605  16.3474312  30.0186825  53.8612061  63.2595787
  29.0699348  53.7604904  63.3368111  30.3270054  53.9262085  64.1634293
   7.5791631   3.1168890  12.3277302   7.1750274   3.0352821  13.1915865
   7.0714331   3.7996998  11.8893118  73.8388901  38.0995369   7.4826779
  73.7719345  37.7628593   8.3762074  72.9528427  38.0194092   7.1295052
  81.7564011  32.6755638  82.8251419  82.1113281  31.8228111  82.5740051
  81.4211807  33.0454216  82.0084076   4.3739672  66.9118652  15.3026781
   3.4323287  66.8503647  15.4631977   4.4712501  66.7172241  14.3705397
  39.4798012  33.7048073  70.0170288  39.2475433  32.7768784  69.9819336
  40.4040947  33.7111206  70.2657623  78.7415619  23.2256699  24.1102123
  79.6587067  23.3189678  23.8525734  78.7430115  22.5102673  24.7461605
  22.1252441  45.6606865  67.2575378  21.7019272  46.3135719  67.8150101
  21.4297142  45.3563385  66.6745758  55.0071564  55.4632225  16.6308384
  54.8206482  55.8487244  17.4868946  55.9450607  55.2732658  16.6529121
  49.5056763  24.5630684  63.8206329  48.7485237  24.3432083  64.3634186
  50.2328033  24.6297340  64.4395599  45.6679306  58.6084023  22.9656353
  46.0355797  59.3272858  23.4797115  44.8501892  58.9596634  22.6132889
  74.1582870  51.0541573  52.4834862  73.4131927  50.5551338  52.8182106
  74.7607498  51.1114693  53.2250938  36.0450630  67.9111938  16.1023159
  36.5647163  68.6299362  16.4623203  36.0390930  68.0693817  15.1582956
  57.6567459  65.6523972  50.9087486  58.0138435  64.7673264  50.9819984
  56.7308731  65.5563354  51.1318283  39.0400352  61.8821030  38.3572998
  38.6155968  62.4750214  38.9774094  39.6573448  62.4365082  37.8800201
   9.4971590  19.3552856  61.3090591   9.3744469  18.9087086  62.1467590
   9.3676186  18.6714993  60.6518784  25.0237312  62.7846565  47.7696953
  24.6846428  61.8908463  47.8181915  25.8889942  62.7349434  48.1759987
  17.5781231  64.5290833  14.1533718  18.3355904  64.0717468  14.5185089
  17.8134308  64.6906433  13.2397203  15.8623972  24.8925743  85.4591217
  15.4048214  25.4461632  84.8263550  15.6191015  25.2523422  86.3121262
  78.4361877   5.3646679  71.7584381  79.0011139   4.9502974  71.1062241
  79.0425110   5.7344971  72.4001694  64.7009506  37.0776138  74.7757187
  64.4170609  36.6607971  75.5892944  64.2310486  36.6056976  74.0881729
  68.1582260  55.2143211  25.5233555  68.1904068  54.4468689  26.0945072
  69.0681915  55.5046387  25.4607830  11.0230036  37.5061455  53.1790314
  10.3206167  38.1052933  52.9262314  11.1800499  36.9774971  52.3966637
  47.1705513  50.3722115  70.0159149  48.0138168  50.4519577  70.4617538
  47.3735466  49.9158096  69.1993790  74.1376877  55.0404129  14.7059832
  74.9505005  54.9312592  14.2123671  73.5261078  54.4267044  14.2990875
  45.5663338  71.5695724  38.7599297  46.2060051  71.9245529  38.1426468
  45.2791328  70.7480850  38.3613014  68.6454086  39.4071693   4.4660258
  68.0227814  38.7108879   4.6752286  68.6079178  39.4834976   3.5126104
  50.1133347  38.9625435  24.7169495  50.9040642  39.2206268  25.1906261
  49.4732323  38.7752419  25.4035492  61.6834755  12.4258862  53.4933853
  61.7816277  11.7128372  52.8623848  60.8532906  12.2435780  53.9335976
  65.5030670  10.2344913  47.7890701  65.7186356  11.1659479  47.7426910
  64.6969681  10.2005644  48.3041229   6.0820770  42.9016266  69.5355911
   6.1677370  43.5075150  68.7995300   6.9531040  42.8816833  69.9320145
  46.3756180  55.4328156  10.9781580  47.2602730  55.7772751  10.8558283
  46.4435539  54.8654938  11.7461195  59.9649582  33.0020638   6.0889888
  60.4226341  33.7989197   5.8210683  60.3372574  32.3147659   5.5364971
  39.2698784  52.5826530  83.1521835  38.4202690  53.0102119  83.0445404
  39.4965286  52.2757988  82.2742920  52.9152794  51.3384438  88.5653763
  53.3661957  50.8908081  87.8494644  53.0224457  52.2695389  88.3709259
  64.9660950  20.6505413  77.9949493  64.6990433  19.7929783  78.3258591
  64.8567429  21.2399006  78.7412262  59.9948997  36.0905457  20.6228008
  59.8756790  36.5579300  21.4495831  59.6855812  36.7025299  19.9549465
  22.6183949  62.5887032  55.8068390  23.1356277  63.3907623  55.7333565
  23.0349388  62.0992279  56.5161629  77.4589233  13.1360121   4.0037274
  77.0021744  12.5043030   4.5592098  77.0074463  13.0845499   3.1612573
  22.9572601  49.5203934   2.4077437  22.8607235  50.2901878   1.8470941
  23.6492481  49.7586708   3.0246785  10.4828072  65.0887756  22.4712048
  11.3891077  64.7869339  22.5323906  10.5251188  66.0196991  22.6898861
  36.4615135  49.4731483  58.9936829  35.6927490  49.4180641  59.5613098
  36.4748535  48.6376534  58.5267754  70.7927017  31.2411957  52.0660973
  71.3458099  30.9623699  51.3363304  71.4097824  31.4600658  52.7643356
  10.6371851  48.9264336  68.2381210  10.4383192  49.7218552  68.7320709
  11.5934496  48.8873863  68.2218552  33.1805000  68.7327499   1.4400747
  34.1092987  68.9082642   1.2892332  32.8493080  68.4473419   0.5885548
   9.1264000   4.3611178  29.6675167   9.8273392   4.2591248  30.3113441
   9.5058088   4.0436511  28.8480682   8.3265123  30.2615509  49.8568802
   8.7409649  30.7624626  49.1543541   8.0413427  30.9233780  50.4868774
  40.0241127  41.6013832   5.0522981  40.5428200  42.1532021   4.4669156
  39.3959770  41.1654549   4.4764147  36.4007835  10.8715181  71.7085648
  35.7666435  10.8895645  72.4253464  36.7457008  11.7636414  71.6714096
   6.2349582  25.7007065  32.8495140   5.5451627  25.8779449  33.4890480
   5.8414035  25.9214973  32.0053596  53.8678131  28.6778412   2.1331911
  54.7618713  28.5802937   2.4608805  53.3601532  28.0338459   2.6269367
  78.5782928  28.9628677  67.8319321  79.1000443  28.6423435  67.0962219
  77.7429581  28.5024128  67.7517548  35.4859734  37.2552223  61.6649399
  35.5788574  36.3636131  62.0005455  36.3849564  37.5564880  61.5333939
  41.3351440  21.8009205  81.9488373  41.6793213  21.0372124  81.4856720
  41.4904442  21.6100922  82.8738785  45.0542908  23.0269413  82.5794296
  44.8391037  22.3069096  81.9865723  45.8096504  22.7112293  83.0753937
  59.7843437   7.7546849  71.5621109  59.6454239   6.8789735  71.2014694
  59.8111801   8.3277731  70.7958984   4.9570918  40.6842918  61.2865181
   5.2749538  40.2397499  62.0723763   5.7178888  41.1634102  60.9580879
  16.9552193  39.8169861  13.8209009  17.0633965  39.1731720  13.1208744
  16.9982834  40.6636276  13.3764057   4.8059068  45.6044617  72.5687714
   5.5038648  44.9830818  72.7760773   5.0851269  46.0138359  71.7498245
  28.2783527  64.9743729  36.4236908  27.4377918  64.5204620  36.3632507
  28.2733765  65.3727722  37.2940254  70.4871445  34.0639458  37.1602821
  70.1267929  33.2094574  36.9231567  70.3850098  34.1115379  38.1108284
  49.4613838  66.7330399   2.6179881  49.3353500  67.6761703   2.7221522
  48.5745506  66.3731461   2.6025534  15.9317379  14.5337420  88.9594879
  16.7135696  15.0760746  88.8553467  15.2381153  15.1540356  89.1838837
  60.4993744  42.9365005   8.4720802  60.7566872  43.8137665   8.7556868
  60.4102097  42.4386063   9.2847185  60.2728691  37.4886436  32.3556557
  59.4366989  37.9541130  32.3360023  60.3728485  37.1383362  31.4704895
   4.0787983   0.9786000  71.4198685   4.6054273   1.6369885  71.8731003
   4.0322189   1.2899225  70.5159073  29.1490097  56.2307281  69.2062912
  29.4980793  55.3483429  69.0806961  28.9046764  56.2622375  70.1312485
  55.4496651  62.5353012  10.1924400  55.6068192  63.4473305  10.4368620
  55.1430054  62.1206589  10.9988279  30.2821102  62.0174522  26.3051186
  31.2264633  61.8954163  26.2074642  29.9502716  61.1482468  26.5300484
  49.2880936  28.0434341  64.5505219  49.6513100  28.8089066  64.1051483
  48.7889900  27.5867558  63.8733406  74.9617767  17.4651909  68.3324051
  75.6875534  18.0807953  68.4349518  74.4338303  17.8332329  67.6238556
  16.4290733  69.9448929  53.5303078  16.1253319  69.2231598  52.9797859
  16.9697933  70.4788971  52.9483376  81.8005676   3.5032463  72.7254639
  82.6279907   3.3203430  73.1706009  82.0435562   3.6210420  71.8071442
  15.1912565  46.9158020  54.8303909  14.5819807  47.4817352  54.3563271
  15.7415438  47.5202942  55.3283958  53.8175507   4.4537878  49.4156303
  54.0850067   5.1481004  48.8134422  53.8702812   3.6520505  48.8953705
  62.4208908  25.8875980  33.6365585  61.7355995  25.6319199  33.0191154
  62.7865715  25.0586205  33.9452744  15.6790590  54.6190834  35.6490288
  16.3342266  54.2784691  35.0399551  15.7392454  54.0439529  36.4118080
  39.4818764  17.1957359  85.7149429  40.1135216  17.9136162  85.6713181
  39.1109467  17.1492062  84.8337631  33.2722168  57.2190285  42.6682816
  33.9871025  56.9370956  43.2389679  32.9068527  56.4048729  42.3220215
  79.9154663   3.1549332  74.4454575  79.2498703   3.8400376  74.5075150
  80.3977890   3.3614051  73.6448517  19.3393154  16.5094738   3.3560216
  20.0306950  16.0357113   3.8183808  18.5253906  16.1502361   3.7091577
  67.5808487  70.9180832  84.3060303  66.9745941  71.4956970  84.7697678
  67.7749481  70.2214355  84.9331131  18.1596031  16.6124878  87.7033463
  18.9813614  17.1027279  87.7280121  17.4808655  17.2764645  87.8245163
  69.2171402  14.0155745  64.8185043  69.3795242  13.3465242  65.4835129
  69.0098419  14.8049879  65.3185959  46.8822784  54.0684128   3.9432187
  46.3975449  54.8805084   4.0907531  46.4266434  53.6464729   3.2147994
  84.4756317   7.2927790  28.0505924  83.7516785   7.6597991  27.5432281
  85.1452789   7.9766865  28.0416794  46.7143822  69.7571487  27.6870136
  47.1099167  69.5079041  28.5222759  46.9031754  70.6916885  27.6020012
  70.9519119  53.6204720   7.6422520  71.3860397  53.4432869   8.4767389
  70.5580750  52.7838821   7.3947773   7.6784177  59.9118500  86.9358826
   8.1548481  60.7109604  86.7107849   8.3511953  59.3173294  87.2677689
  44.5439720  57.5321541  60.2994614  44.6945801  56.7899818  59.7140312
  44.9944572  57.2934418  61.1095924  12.6965895  69.5307159  69.2546234
  13.0755615  68.6688843  69.0818481  11.7633085  69.3607330  69.3823853
   5.8662858  63.2779694  82.8281708   6.2372565  64.0936890  83.1646500
   5.3358345  63.5474472  82.0783463  73.9303131  53.6902542  39.9792213
  73.0505066  53.3146172  39.9465027  74.5068512  52.9383736  40.1152534
  77.9162140  21.9660091  86.6049576  77.8617249  21.7913532  87.5445099
  78.5253906  21.3061962  86.2736206  49.8929787  49.9763947  41.1593857
  49.6712685  49.8207474  42.0774574  50.5644684  49.3236732  40.9611702
  71.4017715  49.4283562  14.0077744  70.9949341  50.1240234  14.5242624
  72.1966858  49.2043953  14.4917002  62.2272034  68.4016495  55.1960182
  62.9677505  68.6455765  55.7512856  61.7101479  69.2036285  55.1204224
  75.2149734  24.3482437  54.0527611  75.1694412  24.6590462  53.1485710
  74.5882950  23.6256409  54.0894852  13.8859377  46.8490067   6.6866369
  13.2723789  46.2065315   6.3302631  13.3999386  47.6736221   6.6800494
  76.0178375  16.5710125  86.1160278  76.1034698  16.3159523  87.0346375
  76.7765121  16.1762505  85.6861267  36.0135155  37.9009514   5.3154182
  35.5325470  38.5976143   4.8686938  36.7609901  38.3448105   5.7160459
  30.9614582  66.0525970  46.0221825  30.7719002  66.5441437  46.8213577
  30.2080269  66.2173843  45.4552460  25.4909897   2.3884754  71.8745499
  25.8361702   3.2675614  71.7186966  25.8159275   1.8696357  71.1387177
  64.7961960  56.5156212  52.4056587  65.5951004  56.8138123  51.9708519
  64.1006165  57.0484276  52.0202751  77.2456131  62.5672455  34.3008881
  76.8542023  63.3866425  33.9981995  76.6498795  62.2543678  34.9816628
  82.0542068  25.0594177  21.0728168  82.4750290  24.3017216  20.6665688
  81.1352005  24.8057556  21.1582909  65.9231033  61.8696022  73.6387024
  65.4851837  62.0921135  72.8171463  66.7540131  62.3434868  73.6032028
   3.0296791  15.5477619  -0.1952080   3.8368528  15.0650053  -0.0173067
   2.9013584  16.0939102   0.5803491  50.2589073  57.0153885  85.9897156
  49.3190384  57.1468544  86.1146011  50.5844727  57.8693581  85.7051544
  10.1770277  20.9472485  18.0982876   9.7206650  20.6542301  18.8870239
  10.8284063  21.5722008  18.4166794  84.3735199  17.1228580  82.3026199
  83.5495758  16.6410561  82.2303696  84.1101837  18.0154324  82.5266724
  81.2276306  60.3376427  81.5808945  80.8088303  60.4807014  80.7321472
  80.9221725  59.4732208  81.8560333  42.8313713  62.7108650  69.6670380
  42.5616188  61.9175682  70.1297989  43.6625404  62.4764214  69.2542191
  21.8504562  52.5288086  18.5421848  22.2601471  53.3114166  18.9108391
  21.7811966  52.7133560  17.6054993  81.8901596   8.3632374  78.5181274
  81.0399475   8.5184565  78.1066818  82.4407578   9.0826054  78.2089691
  57.0233917  46.4830513  25.1509399  56.7073975  46.1472244  24.3121319
  56.6155853  45.9155807  25.8050804  17.7308540   2.7098424  58.1412582
  17.4450912   3.4662263  57.6289558  18.6339207   2.9130237  58.3850212
   8.0410500  23.5004978  70.7859879   8.2347803  23.4897060  71.7233124
   8.8365545  23.8459778  70.3809586  69.7999649  60.4889488  17.6565990
  69.5959396  60.3447266  16.7325821  69.2618256  61.2401428  17.9062843
  10.2492590   0.9599766  63.5052338   9.4125690   1.2511690  63.8677101
  10.7897243   1.7497563  63.4858208  15.9976807   8.5085983  83.5479813
  15.2171621   8.3441677  84.0771179  15.7149286   8.3479748  82.6477127
  45.7434120  19.2489414  36.0233307  46.4029274  19.5760326  36.6351204
  45.4360619  20.0296059  35.5625343   8.9781818  16.3638744  23.5033703
   9.0076866  15.4629345  23.8253479   8.3382101  16.3431072  22.7918663
  65.1061020  48.1908073   4.1938558  65.8464661  48.7316666   3.9189594
  65.0692062  47.4877930   3.5452867  26.5829754  48.4776497  40.9656677
  25.9295883  49.0330772  41.3908920  26.2374802  47.5895271  41.0557022
  72.0793991  11.2546587  39.8319855  71.2491455  11.1511440  40.2969513
  72.1884613  10.4342880  39.3510170  36.1210060   2.3470049  73.3597183
  35.5924454   2.2110772  74.1460876  36.6672020   1.5632228  73.2998199
  83.0587997  57.1701088  27.1686249  83.5824661  56.5681190  27.6974106
  83.6988831  57.7662315  26.7798290  24.2195263  49.2180061  42.5365067
  23.3471756  48.8256454  42.5005875  24.0628090  50.1584969  42.4519844
   1.7426977  33.0505257  17.3327026   1.4123836  32.9492874  16.4400234
   1.6022942  33.9751549  17.5366154  54.4175797   3.0731361  58.9382553
  55.0096207   2.6158142  59.5353966  53.6613464   2.4917281  58.8588257
  38.2107925  52.2459030  51.2097092  39.0682030  52.6234894  51.4059334
  37.6181602  52.6576462  51.8385887  31.2809448  61.2257385  30.6093369
  30.6748981  61.9465408  30.4379368  30.7216587  60.4510422  30.6665764
  82.1302490  17.0146904  29.9897881  81.2128677  16.7682838  29.8717995
  82.4802322  17.0679417  29.1004581  52.4270248  11.9347124  66.0578918
  53.0471230  11.7074814  65.3650131  52.7873039  11.5264063  66.8451157
  61.1001472  21.8363132  42.0718536  60.4546928  21.8061066  41.3656616
  61.9459801  21.8253365  41.6238785   6.8181973  28.4011211  68.3028564
   5.9606419  28.5606613  68.6970291   7.0511007  27.5168610  68.5858231
  58.8399391  50.4698334   5.9443951  58.3705597  49.9385567   5.3012304
  58.4676514  50.2100830   6.7871075  80.6231003  21.6690483  17.9967232
  79.7075119  21.7014542  18.2740173  80.5856018  21.7112942  17.0411930
  52.9929085  42.9536171  72.5876007  53.0797653  42.0353889  72.3315964
  52.9833717  43.4333191  71.7593384  35.4923553  52.5690041  61.6941338
  36.2805710  52.1126289  61.3997345  35.0198174  52.7754326  60.8877068
   8.5997677  59.0882874   6.8933921   7.8700857  58.6015320   6.5101647
   8.2660160  59.3961868   7.7360311  50.7565880  69.3047867  50.2336235
  51.0976791  70.1147385  49.8543205  51.3355370  69.1248016  50.9743309
  80.2582474  12.2118759  39.6513557  80.0808258  11.2762146  39.5549698
  80.6384201  12.4712734  38.8120613  73.9575729  21.3973217  62.6141777
  74.6625061  20.9339714  63.0665207  73.2281647  20.7775040  62.6091576
  25.2534199  70.1017761  84.8096695  24.7852325  70.0949249  85.6445236
  25.8526077  69.3573685  84.8649673  76.8411865  51.7456360  18.4908752
  77.3453217  52.5507965  18.3733959  76.4011154  51.6139069  17.6511040
  24.9256287  42.9395256  85.8832169  25.0233688  42.9941025  86.8338470
  24.1191463  43.4204369  85.6973572   0.5798259   0.9006472  45.3436737
   0.2444009   0.0137745  45.4747429   0.5168017   1.3104869  46.2063980
  10.3864832  25.9758949  21.7492962  11.2159681  26.3420353  22.0561008
  10.5799370  25.6471024  20.8714008  64.6330948  26.3375301  38.5987778
  64.3547440  25.7049713  39.2610626  65.3436813  25.8981495  38.1316071
  12.6997728   0.6454586  42.7832565  13.2228880   0.9594529  43.5208130
  11.8162422   0.5511383  43.1392212  58.2045174  25.0030041  55.0229683
  58.4301453  25.0991573  54.0977249  59.0328178  25.1290951  55.4858437
  77.1674347   7.7334428  33.2704277  77.3207474   8.6736565  33.1770210
  77.9269333   7.3245344  32.8554726  62.6270409  22.9239388  78.3780899
  63.3551750  22.4359798  78.7627335  62.6606522  23.7801800  78.8046494
  19.7163105   5.9303737  86.8061676  20.5247021   5.5133367  86.5081482
  19.2132530   6.0773563  86.0051956  31.2265472  10.7237749  47.2137947
  32.0293846  10.3545971  47.5817528  30.5296688  10.1543789  47.5399551
   1.7692133  67.2480545  19.0353451   2.3120964  67.0276260  19.7922592
   2.1326163  66.7262802  18.3198605  58.4579468  26.2582302  11.5360088
  58.1950684  26.3540783  10.6206188  59.3908768  26.4723530  11.5409651
   1.9140707  58.4349251  23.1018009   2.1847706  58.3160858  24.0122013
   2.4069474  57.7729034  22.6170044  66.4729385  22.7356472   0.0130926
  65.7700500  23.3105068  -0.2897580  66.0221100  21.9544163   0.3335146
   6.7853146  20.9373531  49.6661339   6.0319638  21.3404713  50.0976295
   6.5236654  20.0269470  49.5285339  78.1940460   6.5136805  16.9897518
  78.8336411   6.1237521  17.5856590  78.5431061   7.3845830  16.8002415
  38.4694138   8.8868723   7.9258070  37.8015938   9.5415726   7.7218008
  39.2500496   9.1881237   7.4609556  47.6252365  67.5246658  23.7452412
  47.5660744  66.9510269  24.5092258  46.8246002  68.0483475  23.7763615
  43.4459991  56.3626823  27.5937805  43.5415878  57.3013077  27.4323082
  42.6792412  56.2943840  28.1626797  84.7296906  70.3512650  56.2338524
  84.8284760  69.8858871  57.0644493  84.3925018  71.2124939  56.4804802
  66.0683823  45.8536644  26.6666203  66.0010834  46.7954826  26.8237247
  66.9798431  45.6417694  26.8680439   0.6335135  64.2836533  23.6893215
  -0.2995330  64.3212814  23.8996544   1.0702177  64.2601624  24.5407715
  40.4219437  42.8269730  15.4902248  40.1846199  42.0082130  15.9255867
  40.6716156  42.5636292  14.6044779  43.7326927  66.0849762  66.5963669
  43.5642242  66.7496185  67.2642746  44.6059685  66.2943497  66.2650375
  34.7895737  68.3815079  45.8990326  35.7182121  68.1927185  46.0340080
  34.6398430  69.1989594  46.3739891  55.3360825  46.0685463  21.1985493
  56.0880966  46.6496849  21.0846024  55.1042061  45.7997971  20.3095951
  62.4859657   1.6987220  46.4226570  63.1801987   1.2844542  46.9351540
  61.9408226   2.1424127  47.0724144  48.6370354  69.5337830   2.4539790
  47.6867180  69.6426773   2.4182770  48.9367447  69.7549057   1.5722119
  67.8012314  27.0410061   5.5728374  67.3157730  27.7426701   6.0066948
  68.6077347  26.9576721   6.0816050  73.0874100  39.0605354  14.6781473
  73.9542160  39.2922134  14.3446751  72.5092239  39.7426834  14.3366690
  58.6622658  65.6849442  10.8229923  59.0656738  65.3428421  11.6207790
  58.4618683  66.5980835  11.0285158  23.7308044  26.4782333  85.6400146
  23.1793041  26.8789501  84.9680710  24.4914722  27.0560226  85.7014465
  36.1550674  35.4054832   4.1041813  36.6047516  36.1973267   4.3991413
  35.4317932  35.2966919   4.7216535  15.6414700  50.7812386  34.0583801
  15.0301924  51.0156288  33.3600731  15.5654306  49.8300629  34.1339836
   5.5409203  44.0748367  64.0475235   5.2052536  43.5223579  63.3416023
   5.9594302  43.4624596  64.6525650  60.7330933  42.5110970  40.1663361
  60.8551788  42.3038177  41.0928154  61.0927467  43.3927727  40.0687447
  50.0553207  52.5819435  85.0099182  49.8373337  53.2595215  84.3699188
  49.7376404  52.9288139  85.8435745  50.1719398  44.6392403   6.1270976
  50.3494339  44.8241577   5.2048540  50.0357246  45.5004120   6.5221434
  68.8009796  27.6420517  51.5339775  68.7580261  27.9405193  50.6255150
  67.9263687  27.8124065  51.8836555  38.1730652   0.7048110  55.0604858
  38.0385132  -0.2317533  55.2053108  38.7553368   0.9757048  55.7702789
  76.6330490  41.0722885  74.9485550  76.5252380  40.6753082  74.0842514
  76.7985458  41.9976501  74.7681427  85.2327271  13.1066551  87.6266556
  84.9137955  13.8445616  87.1070251  86.0519333  12.8513231  87.2024765
  20.9852848  46.3994827  82.0018921  21.5034618  46.2219810  82.7868881
  20.5533504  47.2341194  82.1836853  15.9979362  66.1133728  34.6972466
  15.5294647  65.8914337  35.5019264  15.3197651  66.4458389  34.1092148
   7.5757523  61.9971733   3.5867493   8.1133184  61.3930283   3.0746300
   6.6988368  61.6140022   3.5659516  85.8169861  49.7654724  87.2712860
  86.3192291  49.1335526  86.7568359  85.7828979  50.5485115  86.7218170
  20.8607712  55.2065849  71.7953796  20.5411396  55.3758011  72.6816254
  21.6429939  55.7523270  71.7145996  56.6252098  27.4087391  34.8413429
  56.5796356  26.6591053  35.4348145  56.3528824  27.0593605  33.9928131
  11.1957617  35.3580589  19.2250748  11.6942215  34.6213493  18.8714752
  10.3634233  34.9738922  19.5005035  13.1095867  50.9015388  21.1633415
  12.9789314  50.6495781  20.2491875  13.8647423  50.3868484  21.4480610
   3.4469872   2.5733154   6.8634953   3.2779045   2.7937098   5.9474883
   3.4468644   1.6163253   6.8835459  86.3507156  60.3225899  16.0014610
  86.4459000  59.3730164  16.0755310  85.4052505  60.4659691  15.9593534
  13.0902042  66.4600372  33.9296227  13.0602484  65.9534912  33.1179924
  12.4908457  67.1908188  33.7781258  34.5518074   5.1228242  26.9543266
  33.7333908   4.9597435  27.4231853  34.6785698   4.3421865  26.4150963
   4.9819398  10.2624006  32.9402809   4.5865951  10.4839115  32.0971527
   4.4937897  10.7832928  33.5779419  51.3906212   4.2766609  52.7974930
  50.9294815   4.9987917  53.2242355  50.7994156   3.9939594  52.0997887
  23.2694550  70.9215698  21.8134403  23.7569160  70.7298737  21.0122738
  22.3502045  70.8351059  21.5609798  48.0502548  41.5526581  15.2985029
  47.8820686  42.1929817  15.9898300  47.9441185  40.7035789  15.7274933
  42.7073402  47.7165604  29.6644192  42.7135735  48.3876076  30.3469791
  43.1792412  48.1145897  28.9329052   0.4330335  34.5619545   6.6126623
  -0.1153640  34.4498177   5.8361855   0.8193377  35.4316444   6.5094852
   9.3714066  68.0871048  80.5456390   9.3845930  67.3707962  79.9108505
   9.9916677  68.7274475  80.1971130  64.2536163  47.1809540  30.7453861
  63.6591568  47.3414917  30.0125313  65.1278687  47.3079224  30.3768787
  30.6509323  42.6356010  11.4758854  30.9268436  41.7293663  11.6131744
  30.1377983  42.6100044  10.6682529  48.6119576  39.0694160  20.9757710
  48.0987053  39.8630905  20.8244781  49.4984779  39.3866768  21.1479855
  12.7565575  23.3541813  81.8548279  12.0139494  23.9580402  81.8658447
  13.4320545  23.8143196  81.3566208  16.2978249  46.4385986   3.9448688
  15.8692589  46.8563805   3.1978595  17.2278919  46.6310272   3.8258057
  26.7818890  66.0501099  48.3902397  26.8357487  66.0309372  47.4347458
  27.6555252  66.3192978  48.6740227  71.9344482  46.0935287  59.3567886
  71.6612778  45.5040054  60.0596886  72.6334839  46.6203499  59.7441444
  79.5195618  68.0750809   6.0979857  80.2988739  67.6813202   6.4902396
  79.3683319  68.8689728   6.6109099  77.1034851   6.9266801  86.8060150
  76.2878494   6.4448338  86.6689377  77.1221466   7.5719533  86.0992584
  19.1674938  59.9443474   9.3460188  18.2695274  60.2188148   9.5319071
  19.1195374  58.9899788   9.2901745  50.3321762  18.2578201  13.1297274
  50.8740730  18.9601517  13.4893255  50.3266525  18.4187603  12.1861706
  18.3196564  40.9195633  63.5046730  18.0933437  40.4116783  62.7255249
  19.2211208  41.2030602  63.3522797  57.8246918  12.1390467  80.6379700
  58.4737167  12.7776995  80.3428040  57.3660698  11.8771811  79.8396454
   5.6033258  13.1868544  65.6728287   5.9378619  14.0568819  65.8904800
   5.2099428  13.2913342  64.8064804  40.7579918  54.4527206  44.9841690
  40.6863518  54.9419823  45.8037567  41.6423073  54.0867081  45.0002365
  53.3841476  27.7729568  67.4489746  53.1803284  27.2276821  66.6891251
  52.5504799  28.1823654  67.6805191  21.0314617   3.2137790  23.7381344
  20.6518230   2.3908956  24.0463066  20.4321709   3.5127547  23.0542526
  22.0653362  17.1065922  81.0181732  21.7692356  17.1063938  80.1079254
  21.8604431  17.9857521  81.3365021  53.0447578  16.9697361   5.4048200
  53.3353577  16.3699837   6.0919018  52.1789856  17.2606373   5.6912479
  59.5651245  62.3748703  59.7498665  60.2465439  63.0444221  59.8098679
  59.6263161  61.8961105  60.5764732  76.5259247  27.2012119  68.1171570
  76.2693863  27.9753189  68.6183319  75.8102722  27.0706558  67.4950409
  62.9014664  36.7961731  54.5560989  63.4897194  37.5465355  54.6406097
  62.0626907  37.1101646  54.8938828  77.5443192  66.6615448  44.1028175
  77.3928528  65.8854675  44.6422501  77.9625778  67.2867661  44.6947594
  10.0442867  25.8988018  15.0829039  10.5147228  25.6175842  14.2981501
  10.5251217  26.6683750  15.3875151   0.8809327  47.9083519  81.1494827
   0.4525095  47.0914459  81.4051208   1.1629442  48.2998047  81.9762039
  52.1224365  43.4730415  59.9611778  51.5396233  43.8617592  59.3089027
  52.9880867  43.8204079  59.7461967  76.4353790  52.3586655  69.1324005
  76.9891586  52.9024429  68.5721664  75.6808167  52.9123421  69.3331680
  48.5737648  25.6232662  37.9613914  49.2784157  25.5682468  37.3158913
  48.7700233  26.4142914  38.4633827  76.0210724  47.7353439  37.1944885
  75.5232697  48.5528793  37.2025223  75.3885193  47.0724754  36.9175186
  20.6154499  53.6463051  49.3266525  20.4515190  52.7049446  49.3831978
  21.4915352  53.7144852  48.9471054  21.8102226  30.8591957  14.1204395
  20.9368706  30.6844177  13.7698135  22.1999569  31.4727917  13.4976740
  43.3303223  15.9600945  73.6361237  43.3928185  16.4588470  72.8215256
  44.1437225  16.1571770  74.1006393  52.3654289  62.2575111  51.8808365
  51.9478722  61.5394859  52.3565674  53.2448311  62.3131180  52.2547188
   7.0661354  59.5197830  38.4260597   7.4750357  59.9417915  39.1816635
   7.4158964  59.9912910  37.6700287  46.3685074  10.8786583  72.3549118
  46.3308716  11.5488739  73.0372772  45.8735886  11.2515621  71.6253738
  85.9611588  12.8539248  77.4933853  86.0304642  11.9634275  77.8375397
  85.1217194  12.8683577  77.0336304  38.5348473  44.3020782  53.2877350
  37.6418381  43.9601746  53.2445068  38.4604340  45.2057610  52.9810524
  56.5859985  48.0886917  88.2599564  56.5630188  48.3002548  87.3267136
  57.5163612  48.0981102  88.4848404  45.7886314  -0.1750709  81.2393112
  46.3983879  -0.0950001  81.9728088  45.1150589   0.4819477  81.4149704
  80.0297623  54.6411896  80.8171310  79.8076782  53.9034767  81.3851929
  80.4331970  54.2384148  80.0482101   3.2306318  12.4150572  28.2825317
   2.3986647  12.8847876  28.2240906   3.8291655  12.9184198  27.7306118
  34.1025696  19.5799694   9.8566456  33.8738174  20.4956608  10.0160580
  34.9868050  19.6140327   9.4916782  29.2299194  28.5271893   7.9812632
  29.4311008  28.6417637   7.0524840  29.7069740  27.7367401   8.2339287
   1.4816967  37.3378143   5.9809532   1.9013596  37.8784866   6.6501236
   0.8808900  37.9337692   5.5336242  70.5955582  70.3118515  11.9987974
  71.4204254  69.9959259  11.6300049  70.7849503  70.4484024  12.9270840
  76.9675751   0.4446157  54.9954758  76.1347046   0.1926376  55.3943214
  76.7756653   0.5077827  54.0598412  66.1193695   0.4607094  66.3953247
  65.8432999   0.9347100  67.1797638  65.6700211  -0.3823989  66.4543839
  74.9667130  39.2435417  60.6055298  75.1173172  40.1494522  60.8754883
  74.3204193  38.9121284  61.2289925  33.7469406  44.8235283  83.5392838
  33.8760872  45.5767555  84.1156616  33.1404076  44.2576599  84.0169296
  59.9546547  68.5251923  73.5709152  59.6428452  68.9289856  74.3808289
  60.9088440  68.5663528  73.6346817   7.2428861  38.8573761  65.6710281
   6.7791328  39.4419670  66.2705460   6.5939002  38.1956978  65.4318008
  18.0205402  47.1634712  72.1522827  18.8394489  46.9976692  71.6852417
  17.9206524  46.4108429  72.7352066  28.3849525  67.3693695  50.3051224
  28.4189301  68.3245163  50.3577042  28.7614708  67.0703812  51.1328125
  36.0359497  58.4123383  11.7020979  35.3185539  58.9487267  12.0395308
  36.3015938  57.8720703  12.4462595  55.2983818   1.6643859  20.8199120
  55.4479027   2.6059875  20.9051304  55.8754539   1.3939071  20.1057262
  30.1701393  41.0548897  73.5483704  30.8964748  40.8961372  72.9454880
  30.4078903  41.8634491  74.0021744  14.0992327  61.6676559  59.4991684
  14.9049892  62.0704079  59.1754723  13.8697205  61.0211182  58.8316765
  28.4909897  50.2269287  16.3313656  28.0431690  51.0499992  16.1358051
  29.2831573  50.2518692  15.7946320  63.7755356  31.8761139  61.1031532
  63.9273796  32.1410561  60.1959686  64.2473221  31.0481224  61.1930237
  13.4602814  62.1970139   8.0247593  13.8990135  62.9694443   7.6682587
  13.1782341  61.7046318   7.2538896  40.2195091  60.6012383  42.3211479
  39.5800934  60.1409264  41.7775574  40.9294243  59.9706154  42.4418488
  83.8146744  29.8792133   9.3457260  83.1696167  29.3050060   8.9329042
  84.3563080  29.2913990   9.8723526  14.1295071  57.1145782  79.2480392
  14.9127274  57.0250702  79.7909851  14.3380022  57.8257790  78.6422729
  81.6126633  18.7069054  17.8966408  81.3985977  19.6277866  18.0462475
  80.9617615  18.2239132  18.4058342  78.5653152   3.0653267  83.2960129
  78.0483704   3.5194378  83.9614258  79.3171158   3.6381285  83.1446228
  83.5320358  54.5285301  35.3492889  83.5685501  55.0211067  34.5293694
  82.8991852  55.0047569  35.8868217  28.3286133   2.4067810  69.0177841
  27.5541019   1.9830034  69.3876114  28.4309597   2.0069959  68.1541138
  58.8639297  50.9280968  62.3791656  58.3395729  50.1666336  62.1312637
  58.8518448  50.9258957  63.3362885  52.9717674  41.0728722  53.9773369
  52.4942398  41.4617996  53.2445793  53.6255341  41.7309532  54.2134476
  50.0194511  57.5238152  26.1290703  49.1712837  57.2076149  26.4402943
  49.8211288  57.9710503  25.3063393  28.8927937  15.8964891   9.2536421
  28.7520084  15.8440752  10.1989803  28.5796108  15.0565863   8.9179163
  63.0647583  54.4697876  61.1473656  62.7950211  53.7103806  60.6308594
  62.2743416  54.7311211  61.6197815  33.1358109  28.1043091   7.1739101
  33.4493179  29.0032387   7.2732759  33.8421097  27.6541729   6.7104959
   0.0701957  12.8897581  55.8304405  -0.0816999  13.5106106  55.1179085
   0.7000279  12.2640095  55.4726944  70.6591949  24.4178524  32.5489159
  70.7153778  25.3535519  32.7426758  69.9337158  24.3448086  31.9287815
  34.7573700  41.7183304  69.2351151  34.7177429  41.6814003  68.2794495
  35.4827614  41.1385765  69.4673309  21.0006008  36.8015709  67.6893921
  20.9387569  37.5288010  67.0700836  20.7525806  36.0306549  67.1790924
  52.9827538  41.4161072  24.6778316  52.0939064  41.7273140  24.5065651
  52.8624535  40.5495377  25.0661793   0.7237759  18.5029411  70.5998917
   1.0343852  17.7773514  71.1414413   1.0940542  18.3312073  69.7340775
  68.1243820   8.5376711  65.6506271  67.5155716   9.1276293  65.2061768
  68.0817337   7.7251782  65.1463776  49.7227287  25.9841919  51.6217957
  49.4142609  25.1285191  51.3236313  50.1488800  26.3659058  50.8543816
  25.5811729  71.1744156  73.5418930  24.7763844  70.9136353  73.0940781
  25.8423805  71.9880524  73.1106186  37.1651421   8.0027332  70.7213135
  37.1745758   7.7099662  71.6325912  36.6739769   8.8241262  70.7387009
  53.0215416  66.6616669   8.9308109  53.3369102  67.5592575   8.8254204
  53.4429321  66.3523407   9.7326736  76.1985092  71.7673340  52.4242058
  75.9155045  71.7022858  51.5121155  75.6061325  71.1858368  52.9008369
  75.5489731   5.2604475  22.7490463  75.8648300   5.6439447  23.5672150
  75.0496063   4.4909105  23.0223179  29.3081932   6.4860692   3.0611942
  28.4451866   6.3163786   2.6834955  29.8033657   5.6834526   2.8973589
  55.2038765  54.2593117  25.2225323  55.0104599  53.3383484  25.3975849
  54.9633675  54.7123680  26.0306950   6.6045103  56.7560349  82.1293411
   6.7678404  57.1449203  82.9886017   7.3221412  56.1344414  82.0074463
  51.7740479  53.7939453  35.9074478  51.9524117  53.0599861  35.3194695
  52.5310669  53.8215103  36.4925957  30.1436043   4.1864090  69.8571548
  29.5465336   3.4729903  69.6318283  30.6552219   4.3309851  69.0611801
   3.8644211  23.6173344  50.7361679   3.0045922  23.5918427  51.1560211
   4.3658481  24.2461624  51.2551842  78.5589600  21.1071625  57.3289680
  78.4661026  22.0367451  57.1204376  78.8666306  20.7086430  56.5148697
  59.4426994  38.2193146  53.4522667  59.8927460  38.2576561  54.2961998
  58.8018341  37.5156784  53.5543327  22.4251900  53.6051025  76.6153183
  21.5353775  53.6561356  76.2662354  22.8897686  53.0332527  76.0042572
   4.1944151  31.8712444  16.7719116   3.2687821  32.1143913  16.7896538
   4.1900449  30.9182453  16.6824493  74.5218048  49.5964737  34.9432716
  74.1495514  50.2110481  35.5756989  73.7651138  49.2566185  34.4656258
  81.8992157   9.8845520  70.3976364  81.4053955   9.0646753  70.3844147
  81.4612045  10.4384174  69.7514038  77.8817978  57.0364647  82.2987900
  77.7653198  56.2753601  82.8674545  77.3135071  57.7073669  82.6771622
  65.8024139  44.7283211  30.4487915  65.1099396  45.3531570  30.2336349
  66.1353073  44.4379349  29.5996208  14.1241884  49.6729965  17.3024731
  13.3053646  49.2225800  17.0953827  14.8043995  49.1261215  16.9094391
  18.5404797  56.6208687   6.0791793  17.6399803  56.7835274   5.7983360
  19.0466537  57.3303871   5.6834512  38.1736794  30.8558521  13.9018183
  37.5999374  31.1601143  14.6050119  38.4294395  31.6538448  13.4391899
  70.7524567  50.6308746  69.2859116  69.9554443  51.1385269  69.4385071
  70.4924011  49.7233849  69.4442291  76.9423523  32.2292290  41.5920753
  76.0187149  32.4546661  41.4811211  77.3780365  33.0689888  41.7377052
  55.4334106  66.4970551  14.9993219  54.6187935  66.4562759  15.5002890
  55.7598076  67.3850632  15.1447210   0.5657281  28.1983795   6.3163261
   0.5195222  28.4613285   7.2355404  -0.2208332  27.6706352   6.1783447
  62.9815979   0.5014412  35.1357384  63.0077591  -0.4486414  35.2492752
  63.1186180   0.8517063  36.0159492   4.7066398  37.7100716  65.8022461
   4.1903505  38.4232254  65.4266281   4.1855364  36.9243279  65.6370392
   6.9177260   7.8469501  85.2754135   6.3224626   7.3971901  84.6757431
   6.9889483   8.7336569  84.9219894  40.1457825  69.0145645   6.3771930
  39.2131500  68.9067612   6.1906185  40.4454002  68.1371841   6.6152291
   6.2376623  51.7796402  21.8342419   6.0492792  51.0655479  21.2252960
   6.8056574  51.3860397  22.4965782  54.0126114  31.5281086   7.9955339
  53.9288635  31.2959328   7.0707030  53.6005745  32.3893242   8.0645361
  40.7591743   9.1141071  84.7332764  39.8508873   9.4058475  84.6549606
  40.7258072   8.3931894  85.3620834  10.7417355  57.3267250   8.8539982
  10.9805965  58.2524719   8.9006262   9.8544855  57.3260956   8.4948053
  21.7036629  49.6925240  81.2174072  21.5510311  50.0179214  80.3302460
  21.0964184  50.1918488  81.7634506  14.2881269  58.2576981  69.6080322
  14.7903700  57.6758652  70.1785202  13.3796968  58.1397896  69.8856812
   1.6405129  56.4491310  38.8119965   0.6874468  56.5001335  38.8847656
   1.8436416  56.9106789  37.9983940   7.7578015  14.6587124  45.1641464
   7.4524426  14.2883167  45.9922752   8.5890980  15.0801163  45.3823128
  25.7029610  48.0912323  26.8125362  25.7255936  47.5589066  26.0173321
  26.5895729  48.0288124  27.1678600  39.8593292  69.8296280  20.2899971
  40.3743210  70.5989914  20.5330830  40.4539146  69.0914612  20.4234810
  46.3857498  12.1147585  89.1202621  46.9941978  11.4759932  89.4917526
  45.7116051  11.5844326  88.6953964  68.5231400  62.8556519   7.1887312
  69.1506119  62.5835571   6.5190506  68.9463882  62.6333084   8.0179834
  50.6915169  14.8893909  60.0416679  50.7703476  15.8004589  60.3244591
  49.9685364  14.8950167  59.4143753  74.8548889  48.9123688  40.6065712
  74.0954590  49.3900871  40.2729874  74.8274765  48.0708847  40.1511726
  83.7925034  26.7355461   9.2883577  83.3461075  26.0766144   9.8201208
  83.0846176  27.2500725   8.9005537  63.5900078  37.7633858  15.7521257
  63.5351295  37.6776352  14.8003550  64.4475174  37.4018135  15.9761372
  24.2358646  62.5861816  23.1452007  24.3522243  61.7884178  23.6612091
  25.1095695  62.7821541  22.8068695  36.8191643  42.6180229   9.7137165
  37.5460701  43.2385330   9.6607504  36.7935677  42.3571205  10.6343174
  26.8447971  26.7506599  83.1169815  26.2336178  26.0878620  82.7954330
  27.6324024  26.6273232  82.5871658  51.0554161  22.1537666  74.4891739
  51.3868904  21.5054474  73.8678513  50.3434753  21.7056828  74.9458923
  69.2182999  26.3206348  72.9077530  69.1562424  25.4297428  73.2522736
  69.2311707  26.8779755  73.6858521  80.4704590  61.7126541  60.8547020
  80.0716705  60.8863335  60.5819588  80.8389206  61.5271835  61.7184525
  13.1912918  36.0662804  63.8482933  13.1692924  35.9069023  62.9047089
  12.3232288  36.4139709  64.0527725  51.5629616  52.4576340  50.3860092
  52.0167503  53.0871277  50.9464111  51.0811005  52.9981232  49.7599792
  66.3543930  67.4841919  56.0210991  66.7956543  67.6597519  56.8521843
  65.5050964  67.9177322  56.1045876  51.7782822  30.2904148  16.0901031
  51.5274811  30.9474430  16.7394447  51.9443398  29.4988766  16.6020832
  32.2967529  45.9703064  30.4925613  33.0214424  45.5392036  30.9455605
  31.8765221  46.5041885  31.1668091  18.5704060  53.4437485  46.8649712
  17.8186131  54.0020828  47.0632286  19.3138809  53.8904533  47.2698555
  86.3670120  59.6736259   8.8918610  86.6673813  59.0269165   9.5304365
  85.8311462  59.1723289   8.2772188  13.8821039  68.8869781  38.4646187
  13.5353718  69.4781570  37.7963943  13.4225407  68.0607224  38.3151817
  20.6066532  59.7573853  22.8765984  21.1911926  59.9058228  23.6199093
  19.7359142  59.9746513  23.2095280  51.0381966   2.6845469  57.7618065
  50.9938049   3.2369106  58.5422897  51.4788437   1.8877414  58.0570412
  11.3058043  27.1336079  57.3454781  10.8073435  27.3922482  58.1206398
  11.0089951  27.7314472  56.6593819  25.5920143  64.9496689  53.1628227
  26.2866440  64.3858032  52.8225555  25.5686989  65.6919556  52.5589218
  70.2957535  54.9384804  12.3256865  70.6913071  55.7975044  12.1778688
  69.5392532  55.1161156  12.8846073  16.0807381  40.1849594  74.7816849
  15.2401314  40.4488640  74.4075623  15.8876858  39.3780708  75.2590637
  21.1893730  13.5018320  73.2472076  20.8423615  13.2447271  72.3929749
  20.4284782  13.4912825  73.8278580  34.0301056  56.3412476   9.4594984
  33.7407074  57.2053108   9.1664534  34.9853401  56.4007988   9.4740763
  14.3984241  52.2396088  58.0503578  14.9322033  53.0310936  58.1200981
  14.2195845  51.9906578  58.9571495  46.0763168  52.2931938  15.2588930
  46.4815216  52.2920036  16.1260967  46.8129234  52.3515930  14.6504240
  67.4935150   6.3510337  50.5872917  66.8205185   5.8361592  50.1420746
  67.4187469   7.2251263  50.2044029  62.0879173  19.4345207  28.6694164
  62.8654175  19.5635090  28.1261978  61.7267418  20.3136234  28.7832603
  66.9247971  12.0412807  66.3828506  67.1322250  12.7906218  66.9411469
  66.6067810  11.3719492  66.9887314  11.0482273  41.2920494  69.0718231
  11.1401606  40.4561806  69.5290985  10.4185953  41.7849312  69.5979996
  17.8040905   1.4645708  79.6467133  17.8293266   1.4464548  80.6034088
  16.8713512   1.4710473  79.4318008  52.6333122  35.5987854  82.6904144
  52.4735947  36.4256630  82.2354507  53.4183273  35.7609940  83.2135544
  61.9679451  41.5230141   6.6108346  61.7333183  42.2443123   7.1947079
  61.1742592  41.3593597   6.1014147   8.4349127  27.5275307  19.1547356
   8.0814190  27.2552223  20.0015659   9.1046476  28.1759510  19.3720837
  17.1514187  46.1232376  18.4498158  16.5610695  46.7224388  18.9066296
  17.8560944  46.6832123  18.1240978  46.9225731  36.9330902  81.7873383
  46.1302948  37.4404869  81.9636307  47.4551697  37.0390053  82.5755997
  14.1145821  24.0716305  73.8761978  14.6578588  23.6272755  73.2253265
  13.3852301  23.4710312  74.0296783  26.2318840   6.2377043   2.4508865
  25.9504108   6.3517284   1.5431406  26.3763294   7.1283193   2.7705302
  59.4275780  16.4555416  78.2182236  59.6249771  15.8719635  78.9508209
  58.8698883  17.1351185  78.5968933   7.6954327  38.1951790   1.1403027
   7.3741269  37.7260780   1.9103278   8.0249748  37.5078354   0.5613460
  81.8088760  60.8677864  88.4721527  80.8680725  60.8725929  88.2958145
  82.1572189  61.5779800  87.9331589  75.0941162  41.4106827  26.3096313
  74.1743011  41.3556366  26.5687370  75.5804825  41.2801514  27.1236610
  61.0678635  35.7209244  57.7834663  61.9888191  35.6007881  58.0150566
  61.0673676  36.4652290  57.1815987  72.4097748  53.2094498  43.5214539
  72.0559235  53.2170486  42.6320953  73.0338516  52.4836693  43.5247307
  48.5601807  35.1233139  68.1212692  48.8726692  34.2604485  68.3933792
  48.1331520  35.4799881  68.9001541  65.7433243  37.4726295  63.2314796
  66.6520386  37.2156982  63.0751305  65.2767792  37.1944923  62.4433098
  84.1819382  11.1685200  14.3251143  83.3994370  11.3083582  13.7918558
  84.8353958  10.8369942  13.7092247  81.7088852  50.1342964  66.4730148
  81.1142044  50.4188690  65.7790375  82.4582291  50.7258453  66.4038086
  62.6419868  28.1376705  55.8612976  63.0004120  28.3204956  54.9927711
  61.7054443  28.0084419  55.7115631   4.0109658  46.8186607  10.7936373
   3.6087477  46.1346283  11.3289413   3.7857487  46.5821304   9.8938808
  14.1901913  43.6975937  46.4269600  14.1941528  44.5369797  46.8870087
  13.2645330  43.5207138  46.2593193  58.7564278  17.8214207  61.8313637
  58.3624535  16.9840221  62.0758705  58.8442192  18.2953587  62.6583481
  34.2914581  43.3041382  28.9233322  35.1485977  43.6315689  29.1959839
  33.8293915  43.1306267  29.7434654   6.3171139  36.0453339  75.8151550
   5.4254627  36.0130234  76.1617737   6.8110394  36.5383720  76.4702759
   8.1024694   9.9196520  73.0893326   8.7202005  10.6292629  72.9130020
   7.2658262  10.3611708  73.2353439   7.6248875  26.4835434   4.2308650
   7.9600616  26.2377052   3.3686275   6.6962438  26.2533607   4.2013969
   0.7977504  11.7926683  41.6420631   0.4141427  10.9162912  41.6743088
   0.4052916  12.1975965  40.8686028  72.3416290   2.7183957  25.3251953
  71.6203766   3.1435299  25.7891922  72.7431870   2.1464634  25.9793186
  81.4508209  22.9308701  23.6717834  82.3144379  22.9329376  23.2589951
  81.6342926  22.9460564  24.6111126  47.7885666  13.2027912  84.3863754
  48.3082619  13.6565151  85.0499115  47.8732948  12.2755880  84.6085205
  31.6752872  60.0851631  34.7247429  32.4225502  59.4921761  34.8034859
  31.2624645  60.0662079  35.5881386  35.2794456  38.7089119  16.3368759
  34.7220192  38.4568748  17.0730724  36.0145340  39.1707001  16.7401466
  29.3658047  64.7634506  32.5757637  29.2964687  65.1887970  33.4304581
  29.4401264  63.8307533  32.7777252  78.1304855  13.0597420  44.0999908
  78.3237457  12.4604664  43.3790512  77.4981155  12.5871649  44.6413040
  81.0980911  55.6105042  83.5276947  81.2107544  54.9807930  84.2397308
  80.8046036  55.0824928  82.7851944  20.9412575   5.2215466  35.0545006
  20.6929188   4.5872259  35.7269554  21.8974304   5.2470622  35.0907555
  34.2588844  71.4022141  18.9111366  34.4557533  71.9731903  18.1685276
  35.0645370  70.9045792  19.0508232  48.4279442  48.4520073  37.0574722
  48.0651016  47.7435646  36.5257874  48.1346397  49.2524872  36.6222267
  54.2805023  65.4683228  58.2114983  54.8417320  64.7077942  58.3626747
  54.5066414  66.0765228  58.9151878  25.6372910  69.5383987  64.3250809
  25.3740120  69.1635818  65.1655731  26.4768467  69.1222229  64.1296997
  72.6698074   0.2052547  69.0577011  73.4973221  -0.1354726  69.3973465
  72.7424393   0.1080615  68.1082230  41.4026794  12.9656830   5.7250476
  41.2708969  12.3986063   4.9652510  41.2866936  13.8528156   5.3847899
  40.5800743  37.2140884  82.2435303  39.7112846  37.6138687  82.2034302
  40.9932365  37.4553413  81.4144821  34.3773918  31.3551483  82.2326660
  33.9012527  30.5281391  82.3073730  33.6939812  32.0253334  82.2271576
   9.5503464   6.5829811  57.2828102   8.7492847   6.2055039  57.6461906
  10.2529202   6.0329332  57.6293221  67.8080597  13.1054468  25.9555321
  67.4018021  12.2551727  25.7875519  67.9114838  13.4970064  25.0882301
   2.3192005  49.1678314  25.4964714   2.0834148  48.6083794  24.7564373
   3.2723439  49.2408867  25.4473534  36.8500099  29.9178810   9.4726229
  37.7713776  29.7196388   9.3052397  36.8705368  30.6680813  10.0667686
  68.6952820  54.3915825  22.4018078  69.2902298  54.9246368  22.9291801
  68.6481247  54.8461952  21.5607738   5.6061788  26.3759308  39.6366539
   5.5267000  27.2254791  39.2028542   4.7745762  26.2633781  40.0970917
  70.9075470  23.6868515  67.5429993  70.1658783  23.2974949  68.0062027
  70.8570938  23.3211460  66.6598587  10.6683731  10.9941244  78.6158447
  10.8418589  10.3931494  79.3403931  11.0340528  10.5552187  77.8478165
  61.6025620  59.0711098  57.9764252  61.5499496  59.3297157  58.8965263
  62.3523178  58.4773560  57.9370079  67.3864365  15.8812227  74.6600342
  67.0831757  15.2172976  74.0407867  67.1367950  15.5397015  75.5186768
  11.1518173  49.4703674   5.2940865  10.5457325  49.5006027   4.5538306
  12.0065870  49.3029976   4.8971128  12.1623840  61.7203598  47.0380859
  12.0156250  61.8740463  47.9714012  13.0390387  61.3386688  46.9931450
  61.1156540  54.1827316  15.8610220  61.2970428  54.8227005  15.1727161
  60.6121368  53.4963875  15.4232607  11.0891762   4.0914745  54.2459908
  10.6836748   3.4913850  54.8718452  10.3662510   4.6347322  53.9321747
  52.2465324  26.7047825  65.2382965  51.4578590  27.0916481  64.8580856
  52.6177292  26.1752892  64.5325470  82.5204620  47.6196442  88.3217926
  82.7914276  48.1735382  89.0539169  82.1716766  48.2322540  87.6742630
  34.2737961  60.8750687   4.2317815  33.8106003  61.6471252   3.9068100
  34.6458817  60.4713249   3.4477060  84.8420486  23.3085003  32.7530746
  84.5839844  23.4430275  31.8411884  85.2870102  22.4610081  32.7535439
  19.0282879  52.8566360  69.0325470  18.3430748  52.4319077  69.5486069
  19.7568264  52.9640579  69.6440353  21.0493660  35.5087357  19.6671200
  21.2905846  34.8701134  18.9961452  21.8848553  35.7977753  20.0340614
  44.6244087  30.1505852  19.5732918  43.7800598  30.3674068  19.9686337
  44.4642181  29.3349743  19.0985794  53.6451874  27.3862743  57.5562935
  54.5599747  27.2941761  57.2899971  53.2021828  27.7249126  56.7782822
  41.3486824   0.6809400  67.9291611  40.4364700   0.9533921  68.0284882
  41.8352737   1.5005721  67.8416138  44.3369408   6.2238674  84.6996231
  43.9519081   7.0454082  84.3945847  43.6862526   5.8635592  85.3021317
  64.5102234   0.4272131  47.9603958  64.8695831  -0.2410366  47.3768425
  65.2699356   0.9432334  48.2301941   8.7220564  57.8043823  33.7649384
   8.1481447  57.2027931  34.2392235   9.5913792  57.6464157  34.1331177
  40.4801483  53.0017891  85.3769226  40.1309319  52.9044418  84.4910278
  40.6624947  53.9376907  85.4609833  86.1704254  31.6252918  36.3500023
  85.8052673  30.7410526  36.3817711  86.8480377  31.6290245  37.0260658
  39.4261894  62.4678955  48.6762009  38.8411865  62.0170822  48.0672913
  39.3344612  63.3945961  48.4547462  33.2514763  36.4781952  70.1827393
  33.4202423  35.6748848  70.6751175  32.3246193  36.6623459  70.3352432
  28.6598511   6.3203406  31.1174107  28.3399849   7.1879888  30.8702145
  27.8680439   5.8214660  31.3184013  37.0749702  34.0423698  61.1501389
  37.9864273  33.7568474  61.0872307  36.9708900  34.6705322  60.4354286
  80.4090958  33.7359123  52.4072304  79.6644592  33.4919891  52.9570084
  80.0260696  34.2606659  51.7042656  13.0188856  32.9702797  81.4580612
  12.7578287  32.1168633  81.8041306  12.2411165  33.5186272  81.5611267
  12.9293280  67.4573822  63.0197105  12.5486364  66.6910782  62.5906715
  12.7306023  67.3355103  63.9480896  73.8751297  35.5366211  60.1028748
  73.4791641  35.4887772  60.9730225  73.1780472  35.8748016  59.5407867
   1.5473543  39.4751816   8.5532846   1.4967027  40.3043365   9.0288515
   2.1605287  38.9444733   9.0618105  35.3591385  63.3954544  84.0646744
  35.9290161  63.9775505  84.5672989  35.9186935  63.0576057  83.3653946
  11.5328655  46.7358856  72.4320450  11.9717388  47.1902161  71.7128754
  11.2200174  45.9188309  72.0437393  24.4234333  35.4410973  88.3864212
  25.0003414  34.6778526  88.3570328  24.4824944  35.8198891  87.5093460
  19.7539062   7.3990369  78.7537384  20.0315380   8.0730858  78.1334076
  19.8467846   6.5771990  78.2718811   0.5452344  62.9065056  16.2819500
   0.7099288  62.0146599  16.5880833   0.9481974  62.9401741  15.4143553
  19.7006950  56.6701622  24.2759190  18.8340015  56.7604561  24.6720562
  20.3012314  57.0288696  24.9293098  16.1878490  51.6946678   4.6498570
  16.2495079  51.2670097   5.5039878  16.3544979  50.9944763   4.0188317
  66.6058197  41.7142677  25.9642277  67.5216751  41.9877663  26.0156078
  66.6068726  40.8123016  26.2846794  35.9635887  66.7718430  52.0277710
  36.4734879  65.9728622  51.8941002  36.2689362  67.3680420  51.3440056
  54.0511017   5.6462235  25.3791218  53.2412338   6.0433302  25.0587292
  53.7620850   4.9961257  26.0194912  21.4715061   9.6245689  84.8215408
  21.5660267  10.5463667  84.5815735  20.5731430   9.5518847  85.1438599
  17.7635269  68.5189819  61.6947975  17.5585899  67.6439743  62.0243340
  18.6844349  68.6502838  61.9204483  82.2969589  12.9159441  13.1076136
  81.9866333  13.7728462  12.8149586  82.1221313  12.9064770  14.0486650
   6.4601998  46.7857018  78.3734283   6.1150017  46.1121025  78.9593811
   7.3831420  46.8632736  78.6150742  32.2998314   1.7427946  21.7276001
  31.9793549   2.0111394  22.5887146  32.5859451   0.8375847  21.8499298
   4.7121677  36.6897011  13.6792154   4.5939646  35.9355011  13.1017723
   5.4304390  37.1837425  13.2839422  27.7430668   4.2051125  38.2924118
  27.5129662   3.9833448  37.3901329  27.8266926   5.1586509  38.2908096
  18.2056789  46.4121590  41.6933517  18.1923542  45.5956459  41.1939888
  17.7173042  47.0321426  41.1517448  51.5256348   9.0365200  34.3491669
  52.1041985   8.4476757  34.8336830  50.7695198   8.4955482  34.1214218
  73.5283127  36.1433182  88.1207809  72.7490387  35.6669960  87.8342743
  73.2573013  36.5834007  88.9264603  79.0251694  23.8310776  82.6108932
  79.1001053  22.9490376  82.9750671  78.0868378  24.0192204  82.6301193
  82.1648483  64.8654251  45.0728302  82.9997940  65.1141129  45.4693756
  82.1507721  63.9096832  45.1236992  56.5933914  23.1965046  48.2397308
  56.6054153  22.2817917  48.5214882  57.3710785  23.5817375  48.6434975
  13.9847603  40.4089813  52.5252304  14.2603197  40.5549316  53.4302139
  14.3878489  39.5750809  52.2836494  64.3462448  30.5531750  15.2895660
  64.4534912  30.6624603  16.2344398  64.7181396  31.3505135  14.9124975
  14.7922287  71.0218658  57.5843849  15.0632458  71.3395538  58.4456940
  15.6131334  70.8380280  57.1277122  62.4136009  52.1724854  52.8181076
  63.1501389  52.3463554  53.4042015  61.9462814  51.4456291  53.2298431
  26.5013599  23.2848797  79.8927917  26.6677513  22.3964195  80.2077255
  27.2079105  23.4543591  79.2696609  55.2059669  26.7006245  77.4735565
  54.5801697  26.2823868  76.8822174  54.6746597  27.2954731  78.0028000
   8.9875689   6.9243689  49.0135841   8.7678614   7.0428591  48.0895042
   9.7896357   7.4322181  49.1361008  13.2497835  31.7635002  16.8352203
  13.3971205  31.1962643  16.0784073  12.3623552  32.1006699  16.7126732
  54.4333763  48.5539703  53.8297119  54.2754860  48.4726143  54.7702866
  54.7229004  49.4588165  53.7128334  68.8405075  40.0798531  40.9696808
  68.0813370  39.8300362  41.4964485  69.0218506  39.3099098  40.4306641
  86.7345657  37.7841492  40.8940048  86.2459106  37.9283142  40.0836563
  86.7760468  36.8319511  40.9825096  12.8965425  60.5226021   5.9562788
  12.5365200  59.7152901   5.5890365  13.7554274  60.6114769   5.5431814
   2.1328366  17.9363003  68.3291626   3.0667696  17.9029980  68.5362625
   2.0387962  18.7076931  67.7702866  71.0998154  30.9234314  59.6349411
  71.3863983  30.5653133  58.7947884  70.9026489  30.1536961  60.1686668
  69.0835648   1.0212468  66.9146729  68.1918030   1.1674024  66.5990448
  69.1888580   1.6455007  67.6326218   1.3853207  44.3161621  60.0486107
   1.7937591  43.5961342  59.5680161   2.0687525  44.6253777  60.6432037
  48.3885269  41.3269882  59.0829506  48.8681755  41.7199097  59.8121834
  47.8914108  40.6122017  59.4806709   3.3174875   0.1446211  41.6147270
   3.2346601  -0.1036765  42.5354462   2.5755568   0.7283168  41.4563942
  58.2246971  16.6138134  57.8684502  57.9735069  17.5293236  57.7460670
  59.0862656  16.5448036  57.4571457  43.9480858  61.3430367  21.6098022
  43.1252785  61.6290588  21.2130527  44.3821793  62.1546822  21.8725300
  54.4537621  58.3468628  63.3006973  55.0331116  59.1076813  63.2589722
  54.5078735  58.0542107  64.2104568   4.2538729  22.2589264  83.2903061
   3.3914106  22.3466358  83.6961365   4.0730124  21.9159660  82.4151459
  10.9244366  31.8751068  66.0597458  11.8474970  31.7489624  66.2794647
  10.4489145  31.4003468  66.7414398  85.6586914   4.1234307  65.4775162
  84.8384705   4.1587620  64.9853668  85.8021469   3.1906281  65.6373062
  65.6309357  11.8071995  60.7490005  65.8673706  10.9133139  60.9965858
  64.7268524  11.7394991  60.4419556  33.0859108  64.1791992  71.7885132
  33.1487885  63.6235962  72.5654144  32.5050316  63.6999130  71.1976700
  63.6136551   3.4053507  42.5734138  62.9888496   2.6961963  42.7249107
  63.0952797   4.0977697  42.1634407  58.6658134  40.1262169  73.5493851
  58.3168144  40.6828918  74.2454758  59.1663895  40.7233658  72.9934540
   3.2261944  37.3098259  76.2520599   3.7720108  37.1629372  77.0245514
   3.1277544  38.2608223  76.2056656  38.1085281   6.0713229  33.4262085
  37.3335609   5.6491585  33.0554848  38.7586250   6.0372405  32.7244606
  60.1159286  55.3746223  18.1876564  60.6727104  55.9733696  18.6853828
  60.6843071  55.0397148  17.4941063  59.4946213  29.4312401  58.9171410
  58.8482819  30.1280441  59.0308990  59.5073929  28.9765720  59.7593689
  69.9332275  17.4896603  72.0830536  70.2009430  16.8986797  72.7868347
  69.1090927  17.8684635  72.3888931  47.9345436  19.8434677   5.0609589
  47.6990585  20.1292229   4.1782799  47.7135468  20.5878773   5.6206431
  76.5445023  52.1480942  64.5556870  75.7840652  51.6142883  64.3254318
  76.4472198  52.9425888  64.0307617  68.2848358   0.2948548  27.7933960
  68.3031998  -0.6170725  28.0837116  68.4714584   0.8016146  28.5837097
  10.0351009  52.2496796   1.0909652  10.9593458  52.0944214   1.2856379
   9.8774481  51.7689590   0.2783868  76.5810776  36.4747734  65.9451981
  76.4314804  35.7627449  66.5671921  77.1516647  37.0849991  66.4124069
   6.2935081  34.7862549   5.5183921   6.2405353  34.3879471   6.3871713
   5.4459033  34.5968552   5.1159902  64.5908432  19.3338718  68.0806961
  64.5094604  19.4313660  67.1319580  64.6188278  20.2314072  68.4121780
  59.3515511  32.5852585  39.8558235  58.6928024  32.9505539  40.4464531
  58.9731903  31.7583065  39.5571175  66.3523407   2.5652561  23.9713230
  66.9642792   2.0933049  23.4064960  65.5463791   2.6204703  23.4578991
   7.5111980  39.0866356  52.0260391   8.1883926  39.5851669  52.4833183
   7.2989683  38.3683434  52.6220589  66.6570282  69.2530212   8.8869171
  66.6029053  69.1347351   9.8352375  65.8946075  68.7871475   8.5435390
  14.8032293  32.6759529  63.5582314  14.6326571  31.7662067  63.3143082
  14.6797485  32.6966705  64.5072098  56.5931969   9.0491858  62.6551018
  57.5408401   9.0178270  62.7863197  56.4632225   9.7475090  62.0134773
  55.4930115  67.0993118  26.2296505  55.3687210  68.0483246  26.2423096
  54.6809959  66.7563629  25.8564930  59.6053581  46.1144295  84.6031342
  59.9727287  45.2305603  84.6098175  60.1843796  46.6100998  84.0241013
  11.7146730  29.0275574  88.3256378  12.4516554  28.4630795  88.0922852
  10.9397898  28.4908199  88.1592026  21.2211208  35.8823700  27.7623901
  21.2395973  36.7985153  28.0390987  21.1624737  35.9216309  26.8077946
  48.6767578  43.4914131  82.3371811  48.9974823  43.9119873  83.1349869
  47.7233429  43.5358276  82.4096909  14.7710066  28.4320583  14.8681402
  13.9813080  27.9049358  14.9895926  15.4918776  27.8282013  15.0468397
  67.5236588  32.6450424  29.5352879  68.1655426  32.3611069  30.1861343
  66.7788849  32.9528198  30.0518246  69.1519699  38.3555374  83.7020645
  68.4336548  38.9849854  83.6384430  69.5551376  38.3636589  82.8339462
  83.1230087  29.5944653  79.6197891  83.1895370  29.0631027  78.8264008
  82.5320663  29.1017323  80.1892014   3.9751256  53.6918259  66.6568756
   4.6917720  54.0931511  66.1653595   3.9729681  54.1522217  67.4960785
  70.4075699  64.7200241   5.5084152  70.7839355  64.5564804   6.3731880
  70.7723618  64.0301895   4.9540806  54.7642288  60.5106354  35.0150986
  54.8388138  59.7071877  35.5300140  55.2458038  60.3241692  34.2091522
  50.6185799  18.5028000  82.5412369  51.5190887  18.7296066  82.3091202
  50.5244865  18.7938004  83.4482574  65.3865891  34.9815979   8.1263475
  64.9480362  34.3865547   7.5182114  64.7118454  35.6153984   8.3697643
  46.6457481  67.2925110  81.0742340  46.7591209  67.5928955  81.9759750
  47.4067802  66.7357101  80.9097900  38.7438774   6.7108102   1.3034424
  38.4192162   6.4593663   2.1680822  39.1368523   5.9112906   0.9533424
  22.3792839  70.8824463  24.6089420  22.7080135  70.8256836  23.7117538
  21.8921928  70.0685349  24.7374992  17.0791988  34.1584129   0.2574322
  17.2043419  33.9312553  -0.6639636  17.8128681  34.7377930   0.4630592
  81.2547150   6.2442384  60.0873070  80.4776611   6.2789030  59.5294342
  81.7761765   5.5267930  59.7273407  31.0671558  29.1974220  83.7851257
  30.1250210  29.2927933  83.6454086  31.1392403  28.6897697  84.5934067
  84.6661606  22.0420761  24.5529366  85.4080811  21.4500179  24.4294071
  84.5550995  22.4675159  23.7027035  68.4994202  18.1823807  26.6960316
  69.1759338  18.6777287  27.1577625  68.8889236  17.3195515  26.5544643
  25.6008205  22.8889008  10.5764503  25.1545544  22.2109241  10.0690784
  25.8801403  23.5313454   9.9241638   1.3087306  19.5856857  26.9502220
   1.5244161  18.8019314  27.4556332   1.5249088  20.3135490  27.5330715
  16.3765392  48.3717842  36.8523560  16.9845619  49.1027908  36.7420387
  16.3316517  47.9649200  35.9870949   5.4689989  53.1114960  41.6046753
   5.1051807  53.6163635  40.8773651   6.3115544  52.7950706  41.2787781
  42.0512161  60.3934364  33.4626732  41.9758949  60.1111031  32.5511665
  41.1461906  60.4887466  33.7594528  73.2332458   7.3864589  42.2499428
  72.6354370   8.1301832  42.3256569  73.9835663   7.7306399  41.7653961
  49.4836044  41.1205788   3.6200345  48.7775345  40.5245361   3.8698893
  49.0522003  41.7978897   3.0991044  40.6994858  40.8983841  19.2316151
  41.2980118  40.3317070  18.7449150  39.9195290  40.3608665  19.3693523
  63.3937531  53.7932396  50.3821259  62.7341156  54.4269524  50.1001320
  62.9203987  52.9630737  50.4367981  72.5809631  45.2636070  53.3821564
  72.3546906  44.3685074  53.6348038  71.7587280  45.7481956  53.4551506
  77.1074142  54.5456734  83.7157822  76.2815628  54.5527420  84.1996765
  76.9908218  53.8650093  83.0529556  57.3788681  56.1842346  58.5465546
  56.6596260  56.6488647  58.1187172  57.8275566  55.7291756  57.8339310
  63.2228012   4.0713587  81.1964645  62.3898277   4.1037788  80.7259979
  63.8086891   3.5889001  80.6131973  40.1707535  25.1852722  89.1054230
  40.7280579  24.8082981  88.4245911  39.2778435  25.0227070  88.8012619
  38.4638824  10.6479483  82.9717102  38.1911583   9.7508383  83.1641846
  37.9550552  11.1879387  83.5764771   7.2567329   9.0188999   9.1191359
   6.9637518   9.2828302   9.9913368   8.1586542   8.7253914   9.2480640
  39.0650177  64.5384369  75.8929062  39.9778633  64.2602768  75.9675751
  38.8924751  64.5436859  74.9514008  10.6860027   0.5430669   2.1754079
  11.5979109   0.8094581   2.0583997  10.2475672   1.3277909   2.5043671
  83.3678970  37.9666061   0.7318380  83.7778854  37.4064980   1.3909460
  82.4494019  37.6972198   0.7264158  77.0311203  33.6077423  62.9500656
  77.8858643  33.7657852  62.5492363  76.8924484  34.3614960  63.5235291
  25.8359528  21.5720196  45.2242088  25.1048737  21.0050106  45.4696808
  26.6106262  21.0173645  45.3162460  24.2892666  16.5437317  71.2669525
  23.8699055  15.7371416  70.9673157  24.8636913  16.2644634  71.9798889
  75.8700333  45.1886139  30.6643314  76.6274719  45.5122604  30.1767159
  76.1390686  44.3258591  30.9797688  57.6900635  30.6585083  65.6370468
  57.4756088  31.5913582  65.6315536  56.9127426  30.2361946  66.0026321
  67.6282883  56.9081573  64.3305893  67.0924988  57.6955109  64.4266968
  68.4239120  57.2117462  63.8934975  70.5873032  27.9706650  37.3130112
  69.6480179  27.8149261  37.4115791  70.9885941  27.1136608  37.4570312
  19.1567116   6.2771778  70.5186386  19.5124416   5.7923613  69.7738953
  18.3784008   6.7127509  70.1711655  58.9465332  59.2150192  14.7857075
  58.1231842  58.8353424  15.0925779  58.9402504  60.1089783  15.1278105
   5.0351791  16.5428257  81.9986420   4.2378726  16.1382122  81.6568527
   4.7866087  16.8684750  82.8637466   9.5064793  63.9794502   9.5903349
   8.6233463  64.0444260   9.2268982   9.4054451  63.4315720  10.3687010
  46.3259735  49.5255241  60.5826492  46.5815353  48.7548065  60.0757828
  45.7965546  49.1760330  61.2994499   4.5975866  10.3970928  24.5215683
   4.0444860  10.5105343  25.2945137   4.6731873  11.2760134  24.1500645
   4.5687718  52.7371826  50.9640465   5.1060238  53.3725739  51.4371910
   4.7481751  51.9024391  51.3967705  21.2041264  32.3901749   4.9568744
  21.9718056  32.9391098   5.1167912  20.5284653  32.7500229   5.5315242
  25.9925728  55.0682831  61.3203468  26.4284363  54.7693748  62.1184120
  25.6758518  54.2658882  60.9055214  31.2670307  64.9533844  74.2786331
  32.1280785  64.5367813  74.2429962  31.4563160  65.8864594  74.3774490
  83.2864304   3.7765610  82.4309464  83.1142654   2.8711858  82.6895676
  84.2091370   3.7815955  82.1763535  79.7225494   1.8775444   4.7639346
  80.1790237   2.1765666   3.9775200  79.2943039   1.0639887   4.4975433
  82.5386505  13.9873724  44.1702805  82.2153397  14.3289671  45.0039597
  81.8852005  14.2648020  43.5281982  63.3590622  53.5430412   2.1041894
  62.5366325  53.2294464   2.4803524  64.0386353  53.1401596   2.6446528
   2.1781428   3.6988811   0.3835705   2.8108978   4.2454448   0.8495331
   1.7940947   3.1447594   1.0630467  75.6775665  24.3632812  83.3808441
  74.7749481  24.2799892  83.6883545  76.1138000  24.8824921  84.0563889
  34.5449028  45.4835396  63.2357597  34.6053200  44.7834854  63.8857651
  34.1306229  45.0713692  62.4776573  13.4749365  68.9288025  16.1828251
  12.7935867  69.5104980  16.5199127  13.2466431  68.0663300  16.5295868
  80.0853271  22.3129120  15.3464279  79.2295227  22.0815239  14.9854641
  80.6954575  22.1783524  14.6212645  84.4220581  71.1610947  24.7344723
  84.5124435  71.0930557  23.7839813  83.4812241  71.2620087  24.8789864
  84.5827408  62.0255737  31.6980724  84.8076477  61.3835335  31.0246983
  83.6475906  62.1867180  31.5725460  40.8715973  68.2324142  69.5630417
  40.0832558  68.0319901  69.0584869  41.3386726  67.3987656  69.6187973
  50.4636421  40.6057320  81.3841095  50.3215561  40.2371101  80.5122375
  50.4696007  41.5528450  81.2456589  12.5695229  15.2816200  83.0066910
  11.6629181  14.9746580  83.0153351  12.9007530  15.0748253  83.8806152
   9.1281271   8.2642155  75.3109665   9.5148439   8.6675968  74.5338135
   8.5537424   7.5808830  74.9654617  18.9292145  61.2098999  70.6446686
  19.5856323  61.1646690  69.9494705  19.4387798  61.2205620  71.4548950
  41.9637451  68.1872787  80.7310638  42.7629547  68.5343018  81.1273880
  41.6678848  68.8810883  80.1417236  62.2915878   7.8334107  60.5377312
  62.8413353   7.3680778  59.9072762  61.4222374   7.8416448  60.1372375
   0.3912204  49.5644417  35.8309212  -0.0153643  49.2631950  35.0184097
   1.2423272  49.1268272  35.8494339  46.6580048  49.6471672  55.9317741
  47.1345940  50.2430420  56.5097275  46.0292816  49.2089996  56.5053139
   0.7973292  37.5986977   0.1469713   0.9473808  36.7651253   0.5929295
   1.6549369  38.0237541   0.1388305  69.8883591  16.2388306   0.4479877
  68.9935760  16.5398560   0.6060329  70.2891388  16.2123699   1.3168404
  32.4880791  31.0350914  79.7154083  32.5909996  30.6114960  80.5675812
  32.7295494  30.3597393  79.0815125  20.4563141   0.8937754  64.6757431
  20.6908379  -0.0265229  64.7952499  19.5189190   0.9287499  64.8662643
   8.0129757  53.7074318  46.6677399   8.8907633  53.7314758  46.2867622
   7.8829999  52.7911530  46.9122124  77.4148941  16.9556732  21.1596260
  77.1351471  17.7901573  20.7833138  76.6354218  16.6189003  21.6014900
  78.6566772  54.6040688  46.3892441  79.5168686  55.0099564  46.2817039
  78.8456650  53.6767731  46.5328903  21.2051830   1.9911344  71.3178177
  21.5452003   2.2952986  70.4763336  21.4263077   2.6907730  71.9325104
   8.8808966  12.5129862  17.3752289   8.0025473  12.8107576  17.1384487
   9.3760633  13.3191776  17.5204773  13.4081249  10.3212729  71.0857391
  13.7273407   9.4965315  70.7194901  12.8625135  10.6953011  70.3938980
  19.7702751  56.9480934  50.8830338  19.7200298  56.0757561  51.2738495
  18.8981247  57.0976143  50.5180283  32.9280777  67.2656555  88.2068329
  33.3105469  66.7473602  87.4987946  32.4728241  67.9803009  87.7615738
  14.8957233  63.2233887  81.2986679  15.1611929  62.8301086  82.1299896
  14.2803345  63.9136009  81.5459366  49.5078392   3.0306940  85.1251450
  49.9068222   2.5272839  84.4154816  50.1658592   3.6877782  85.3520355
  20.5512066  67.4772644  81.6833801  20.6854382  68.4250031  81.6858063
  19.8920746  67.3269806  82.3610153  45.4802246  64.5924759  86.2446442
  45.5136604  63.7603111  85.7728271  44.6313553  64.5831375  86.6868744
  44.3001137  49.5304146  18.4954319  43.4640388  49.0740318  18.5899105
  44.3987160  49.6567612  17.5517445  37.9517326  42.7107849   0.2614512
  37.5127029  42.3670883  -0.5165957  38.3690376  41.9462357   0.6583771
  66.4821167  42.9968338  51.6914673  66.2875824  43.5450974  50.9313393
  67.0045395  42.2761116  51.3395348  60.8237953  62.7438278   0.9303264
  61.1826744  63.6311874   0.9248883  60.4101257  62.6475105   0.0725204
  66.9067535   9.9910660  45.2195587  66.9084778   9.0439949  45.0806923
  66.2058487  10.1387644  45.8545036  57.7918053  26.1647472  63.7331085
  57.8285027  25.8227119  62.8398590  57.9613037  27.1019917  63.6378517
  13.9341402   4.8873272  28.4481525  13.7090931   5.8021879  28.2789917
  14.7790823   4.9274135  28.8961449  28.1380730  35.7657967  60.4452477
  28.1258316  36.4654427  61.0983772  28.2727165  34.9659653  60.9535484
  67.3949585  52.5985260  26.7755566  67.9644241  51.8491936  26.9500408
  66.6421432  52.4665489  27.3518219  25.5183296   4.0472789  30.8822002
  24.8819275   4.4853606  31.4472752  25.3134708   3.1161678  30.9676208
  30.3628445  48.5744934  19.0559750  30.0450706  49.2953987  19.5996170
  31.0931702  48.9495316  18.5638351   7.8284349  71.5672607  30.1000977
   6.9739814  71.9043808  29.8308563   8.2044373  71.2009583  29.2996788
  59.5570755  48.5895691  59.8896828  59.7173615  48.3474884  60.8017883
  58.7415009  49.0900230  59.9144783  75.2218781  53.1547890   4.3262067
  74.8730240  52.7851410   3.5150993  74.4770966  53.6060944   4.7235098
  65.1641159  30.7523499  53.9235077  65.1187286  31.4662399  54.5595360
  64.3880157  30.8699093  53.3757133  24.4480724  57.5030746  60.6393471
  25.2941666  57.0592499  60.5812302  24.3123360  57.6380615  61.5772095
  83.8810883  47.4186897   5.4683938  83.4249573  46.9892006   4.7447157
  84.7941437  47.4615517   5.1842580   9.4588079   0.1639011  21.7754173
  10.1233816  -0.0150470  22.4406624   8.6299334   0.1452054  22.2537994
  81.2276306  32.8618431  86.3511581  80.7552032  32.5058746  87.1037064
  80.7760696  33.6817245  86.1508560  58.2154160   4.2407875  19.8437157
  59.0792580   3.9253716  20.1092739  58.1999702   4.1254272  18.8936176
  29.8358059  30.6701241  76.1834946  29.0288792  30.1568012  76.2234955
  29.8029556  31.2288952  76.9599762   1.1797454  47.7897949  23.3275280
   1.3626835  47.1182709  22.6703968   0.4823379  48.3194046  22.9410477
  28.2422943  31.3494263  81.0629959  27.3749199  31.4134941  80.6632538
  28.8505859  31.4112854  80.3265228  63.5403900  68.8062973  37.2816734
  62.7537575  69.3178864  37.4706688  63.2205009  68.0452881  36.7971497
  63.6974792  55.1634293  66.0619049  64.3414917  55.0514870  65.3626556
  62.8544807  55.1892471  65.6092300  48.5672417  12.9333715  70.3680954
  49.4873924  12.6950216  70.4809875  48.1640205  12.1557798  69.9820938
  85.4385452  21.5630093  11.5581026  85.4690933  20.6816120  11.9301748
  85.1825256  22.1234684  12.2906141  54.2194786  58.4618111  15.1530809
  54.0213737  59.3487968  15.4534874  54.0564766  58.4862785  14.2101793
  39.2075882  11.1260233  86.5357513  38.5951157  11.8539476  86.4297409
  38.6510124  10.3699369  86.7222672  85.1774139  10.5354023  79.1732178
  85.0717010   9.6657906  79.5589981  86.1047668  10.7397308  79.2936401
  68.6607361  36.6793480  34.7538643  68.3611832  35.8057442  34.5022316
  69.6141663  36.6358566  34.6809349  27.1403637  68.9669495  61.0060081
  27.8831329  69.2793045  61.5226936  26.5035458  69.6804352  61.0464363
  83.4751816  18.8235188  50.8520355  84.3939285  19.0314827  51.0219650
  83.0052414  19.1820145  51.6049461  25.7930889  67.2335663  76.7588654
  25.0013103  66.7990189  77.0758514  26.4767284  66.5673752  76.8299484
  46.2646523  37.3688240   1.9123538  46.2916679  37.2772903   0.9599231
  45.5717888  38.0097122   2.0718195  16.8905220  47.8055153  88.5240860
  17.1866722  46.9836006  88.9152145  17.6953449  48.2984810  88.3644638
  34.8638573  28.5897923  70.2305298  34.3986282  27.9050865  69.7499313
  35.3034592  29.1022015  69.5519867  72.1424255  18.8901958  73.0213470
  71.3056641  18.4254131  73.0280457  72.0246201  19.5862312  72.3749084
  51.5368271   1.1361980  46.1491356  51.0393066   1.4150389  46.9178734
  51.7839165   0.2311616  46.3391037  40.6532593  71.3727722  32.2149696
  40.8635559  71.9997406  31.5229321  40.1012459  70.7188797  31.7860909
   7.9681501   9.3474846   1.0804262   8.7266474   9.1567163   0.5285920
   8.0648546   8.7617483   1.8312874  84.8440399  61.9268875  22.5459251
  84.8295822  62.4177742  21.7243099  85.0151215  62.5878258  23.2168388
  67.3990479  50.5533447  20.8786297  67.0383987  51.1466293  20.2197132
  66.7423401  50.5410118  21.5749111  59.0706291   4.5678005  63.9950600
  59.4949913   5.4129057  64.1432037  58.2236443   4.6448326  64.4342804
  86.0386429  64.8432083  54.7571182  85.5454941  64.7110138  53.9474525
  86.9563293  64.7993164  54.4885025  75.9035721  62.3622246  36.7382240
  76.6217575  62.8061829  37.1891594  75.1210175  62.6133499  37.2289124
   6.6648455  71.1576691  61.7442398   7.5324888  70.7600021  61.8169479
   6.6651411  71.5775528  60.8840485  75.8473663  39.0061951  32.7578392
  75.0316086  38.5146713  32.6620483  75.7098389  39.5496864  33.5336800
  22.9556522  64.5569839  46.8460083  22.7045612  64.3050995  45.9573364
  23.5765114  63.8819008  47.1199150  74.7453156  20.8497620   9.2557163
  73.9556732  20.3087730   9.2610054  74.9099960  21.0421886  10.1787996
  62.0639572  62.4222755  86.0990448  61.7081223  61.7197456  85.5549240
  61.3232574  62.7107506  86.6323166  42.6633568  26.1986237  65.7071609
  42.0827370  26.3555279  64.9625168  42.1796570  25.5881462  66.2635651
  80.5171127  44.3279762  58.6054382  80.7708893  45.2255402  58.3904724
  79.6471634  44.2260628  58.2193832  61.2982750  68.1830368  67.2949677
  61.2157555  68.1625595  68.2483826  60.7844887  67.4336090  66.9939423
  50.3082771  29.1960831  21.0433216  50.1601524  30.1183186  21.2525368
  50.5442047  28.7955608  21.8800716  54.1133232  13.1841135  40.7914543
  54.5007095  12.7229700  40.0474701  53.1930466  12.9209347  40.7835503
   7.1974969  17.2573776  72.4206238   6.5731382  17.3447876  73.1408768
   7.4638643  16.3383045  72.4447632  40.1933441   5.0467224  23.3384018
  40.3957710   4.1157160  23.4305038  40.0613594   5.3530335  24.2356110
   0.5994775  24.0420647  81.4527664  -0.2416543  24.4828644  81.5728683
   0.7623075  23.6049385  82.2886124  33.3887939  56.0417824  33.0198708
  32.6593704  56.1724930  32.4139938  33.7172356  55.1665726  32.8140373
  47.2002182  17.3056545  61.0592880  47.8521881  17.8239155  61.5310593
  47.6287384  17.0743790  60.2352028   1.0011805   2.5850828   8.7039719
   1.6994247   2.8176203   8.0919151   0.9334143   3.3403020   9.2881660
  32.0160294  40.2337952  86.5258789  32.3332253  40.5042381  85.6642075
  31.0780506  40.4236526  86.5062485  54.1975746  12.3192463  37.8473930
  54.7380981  12.7821808  37.2072678  53.7043495  11.6833220  37.3291626
   2.8276241  18.3009109  34.3132172   2.1235819  18.3952656  34.9548187
   3.6124613  18.1484203  34.8395348   6.8444128  29.8233700  53.5371170
   7.5641446  29.2874966  53.2038612   7.1924386  30.2228661  54.3343086
  25.8864632   7.7178659  84.7215805  24.9956989   7.9341984  84.9972076
  26.1442337   6.9933338  85.2915268  15.2119837  16.1458569  62.0764389
  15.2231407  15.4017067  62.6783943  14.3777103  16.5818462  62.2500229
  12.9734468  32.6302681  70.3313675  13.1048508  32.4607620  71.2642288
  13.4017649  33.4724998  70.1783142  16.0947495  58.7399101  80.5579224
  15.3300304  59.1130829  80.9962997  16.0139122  59.0280037  79.6486893
  80.4123993  47.0244446  16.5955105  80.2305298  47.6419258  17.3039417
  81.3603363  47.0738335  16.4721985  10.0350561  14.7271585  84.1261902
  10.2029572  15.6149902  84.4421005   9.1673422  14.5114412  84.4679108
  73.6175156  26.9201813  23.9713840  73.6202316  26.8754826  23.0152321
  73.9224701  26.0574589  24.2523556  31.6802387  50.4910965  53.9588814
  31.5668507  49.8796844  53.2311783  31.5445976  49.9584846  54.7425613
  80.6723022  53.7928009  59.0686951  80.4395447  53.1748734  59.7616730
  81.2975769  54.3895416  59.4799919  43.4847527  58.1417732  69.0035477
  43.5175400  57.1853676  68.9824524  42.9440994  58.3795662  68.2503052
  19.4716930  61.9406357  27.9001389  19.6874924  61.0221977  28.0617905
  20.3188419  62.3858070  27.8802719  72.2439041  23.1751232  53.8532257
  71.3492203  23.5143681  53.8269539  72.5708847  23.4285336  54.7164154
  47.7218666  48.6797104   3.5324218  47.8274956  49.1474762   4.3608356
  46.9820633  48.0911179   3.6823549  67.0333176  71.8545914  69.4449005
  67.8229599  71.3988266  69.7364044  66.3908920  71.1580200  69.3095856
  20.4577198  61.6956139  32.0653038  19.7935886  61.8230019  31.3878574
  21.1320343  61.1637383  31.6426430  48.1803665   8.8952093  14.7913694
  48.6604042   9.6350431  14.4192924  48.8620110   8.2978926  15.0992670
  50.5229340  47.8772736  33.0519104  50.6087151  48.8272171  32.9714088
  50.8308105  47.6831551  33.9372139  51.7486496  40.1136246   9.4432926
  52.4972649  40.5989113   9.7901402  51.8549957  39.2283401   9.7914152
  82.9880829  45.2830200  84.4725800  83.5723343  45.2694969  85.2306671
  82.4761505  46.0847855  84.5790024  51.7603226  27.6209908   7.8404675
  52.5967026  27.6877689   7.3797741  51.2393150  27.0222225   7.3054366
  66.5069580  66.2391434  13.9139977  67.3142471  66.3437195  13.4104328
  65.9123993  65.7800140  13.3207588  13.2518072  59.6176987  15.5519857
  13.7681828  59.0616379  16.1354103  13.9024601  60.1248398  15.0665073
  70.0466156  10.4937239  75.9658203  71.0004730  10.4151516  75.9799957
  69.7522202   9.7442694  75.4482422  40.8819618  53.1406021  24.7544746
  41.7808914  53.3183441  25.0311794  40.9738350  52.7064514  23.9063549
  76.2774429  23.4012794  22.9460640  76.0965958  22.4894390  22.7178688
  77.1237183  23.3731518  23.3924484  78.2163773  15.6257486  54.8941193
  77.7659683  16.4650860  54.7999077  77.8784180  15.2631569  55.7129860
  18.3484097  22.1079311  18.3313313  17.6257648  21.7500286  18.8470097
  18.4056854  21.5331306  17.5680771  57.3432083  30.0676117  43.3598557
  57.8905334  29.7520790  42.6407547  56.4604912  29.7725658  43.1362762
  17.8752117   1.7406057  41.1445847  18.7221794   1.3512580  40.9271355
  18.0000553   2.6792383  41.0045357   4.2526283   4.2974172  80.4832306
   4.8091545   5.0657854  80.3562622   4.6423740   3.6245193  79.9250717
  66.1335754  10.1300192  51.5741920  66.7913971   9.5824976  51.1455688
  66.4846344  11.0184135  51.5130310  22.0300598  46.8364906  74.1212997
  22.6448612  46.6879272  74.8397522  22.5623894  47.2247314  73.4269485
  14.9812927  70.7148743  35.8380051  14.8628893  71.4365845  35.2204704
  15.8553343  70.8529205  36.2030067  47.0037193  55.2553749  37.5851593
  46.5326691  54.5802917  38.0736275  47.7513466  54.7963142  37.2023392
  70.6872940  16.9730358  58.3141403  71.2077713  17.7557716  58.1334305
  70.7161255  16.8808270  59.2664528  55.7324524  55.2285805  41.2484474
  55.8999710  54.2909546  41.3434715  56.5432014  55.5807152  40.8811378
   4.6936951  27.8493080   6.7647810   4.1340985  27.3034954   6.2123570
   4.1583495  28.0381813   7.5354714  71.0200806  16.9910889  47.4353523
  71.7487869  17.2786789  47.9853630  70.2688828  17.4932480  47.7512131
  70.0869675  33.5110626  40.2882233  69.6366348  33.1543999  41.0538750
  70.8852692  32.9880447  40.2146950   9.7335243  51.4092369  69.2086411
   9.6301498  51.3477669  70.1582565   8.8397694  51.3747711  68.8676910
  68.4204178  28.5189476  12.8705492  67.9806290  28.7500877  13.6887131
  68.3931503  27.5624542  12.8458986  63.1552849   2.8748913  20.6808128
  63.1125603   2.4332743  21.5289764  64.0351334   3.2506211  20.6504612
  16.5864906  37.2381210   4.0627046  16.8269901  36.3123322   4.0988283
  16.3768711  37.3953819   3.1420736  62.6957474  58.4253082   5.1792402
  63.2740250  57.8692360   4.6571198  62.1324921  58.8557625   4.5360560
  43.8177299  53.9954948  44.0822487  44.0752487  54.8883972  44.3116760
  44.6421165  53.5104675  44.0453110  77.5145340  29.6745243  18.7459183
  76.8525543  30.0598221  19.3199883  77.0421524  29.4704418  17.9388046
  51.5786858  62.1108131   2.8317313  52.4451218  62.4019165   3.1159544
  51.6780663  61.1700554   2.6856747  41.4399414  70.7620087  49.9899483
  41.1028938  70.9541245  50.8650055  42.3884735  70.8613663  50.0714874
   6.3868756  33.7880096  74.0025864   6.2115507  34.6325951  74.4175262
   5.5218453  33.4528847  73.7666931  41.9177246  35.9793243  15.4325228
  40.9615402  36.0229568  15.4386711  42.1300659  35.2896996  16.0614586
  16.5044136  58.9393730  41.9655571  17.0935936  58.4217758  42.5143700
  15.8085041  58.3297577  41.7199745  71.8438797  19.9125328   7.9553246
  71.9498901  19.1697845   8.5497303  71.6033249  20.6429710   8.5252590
  15.6332521   3.3761685  65.6201935  15.8049049   4.0461607  66.2819214
  14.6858912   3.2434769  65.6538315   9.2609901  60.4880142  33.0092468
  10.1178541  60.8932381  33.1426964   9.4024553  59.5605736  33.1991768
  72.3229828  60.6450539  39.2811241  72.9818497  60.0068474  39.0075836
  72.0597992  60.3578224  40.1554604  22.7545586  42.8163910   4.0730500
  23.0133400  43.0589638   4.9621067  22.3472805  41.9554482   4.1686311
  75.1254044   9.6188974  35.7242355  74.6846466   9.5745192  34.8757095
  74.4231873   9.7969732  36.3498650  71.4095764  23.4369984  17.1460152
  70.5946121  23.9180126  17.2898293  71.5652161  23.5056973  16.2040558
  34.7319260  25.0373135  72.0260391  34.4196472  24.2331505  71.6112671
  33.9349174  25.4877415  72.3055496  75.2493744  14.1389828  26.5719452
  76.1598969  13.8571005  26.4840622  75.2891998  15.0943823  26.5288467
  46.5131912   1.9525952   2.9767063  46.3643036   1.5657736   2.1139007
  47.1986923   2.6047494   2.8317497  36.7501297   8.8513851   1.3175725
  36.4288139   9.0822163   0.4459611  37.2490349   8.0455990   1.1832862
  61.3381348  47.3509827   2.1973107  60.9359970  47.9079361   2.8638840
  60.5992088  46.9207306   1.7670778  24.1688747   1.2514106  50.7929039
  23.3814106   1.7949814  50.7671738  24.5641346   1.4425163  51.6434822
  60.0409431  12.8238039   1.9341282  60.8261719  12.3870430   1.6041484
  60.2475471  13.0317135   2.8453476  82.4822693  46.1236801  30.1901855
  81.6930161  45.6658096  30.4794235  82.9345779  45.4917183  29.6313667
  46.9999733  49.7511482  27.8616638  47.2534676  48.8281364  27.8567810
  46.6363831  49.9042892  26.9895496  15.3847895  69.6086731  11.1635017
  15.1494780  70.2565231  11.8276949  15.7854671  68.8935699  11.6577883
  51.3222694  60.4737930  22.8874874  52.0048370  59.8592110  23.1569691
  50.5365829  60.1749954  23.3453598  20.1408520  17.3799515  45.7400551
  19.8730755  16.7531452  45.0680122  20.9988804  17.0693035  46.0290489
  11.3045483  48.7886963  21.9692097  11.2490587  49.6917191  22.2817917
  11.7485542  48.8547401  21.1237926  35.4516678  71.1690445   8.2213869
  35.3696251  70.5887909   8.9782276  34.7244225  70.9219284   7.6501756
  20.5817223  71.0413284  71.9840546  20.9670677  71.8324127  71.6073227
  19.6476269  71.1130219  71.7877045  69.3907547  18.7839756  15.4295902
  70.1879959  18.9127522  14.9157305  68.7856903  18.3498440  14.8282070
  86.8655396  46.7417068  78.5702438  86.8848267  47.0320473  79.4821472
  86.4858551  45.8637733  78.6063919  60.2869682  34.1323395  29.6734715
  60.6961441  34.0005493  28.8182297  60.2727928  35.0825195  29.7883339
  79.6575851  38.2285233  80.1788025  79.2622833  37.3822174  80.3879318
  79.6321106  38.2751503  79.2230835  65.4500656  42.3086281  54.1387939
  65.8451538  42.4060555  53.2723961  65.6514740  43.1297569  54.5875893
  29.4479923  38.9464798   2.0959449  29.5804825  39.5414200   1.3578905
  28.9254379  38.2301445   1.7353379  74.7673645  46.7473526  69.1929092
  74.7392578  47.7021065  69.1305542  75.1315308  46.5746498  70.0611191
  61.1251640  64.5859299  36.7092667  60.4179077  64.1383667  36.2448273
  61.7022972  63.8811340  37.0032196  80.8331833  51.6946030  20.0282631
  81.6065750  51.2068100  20.3113670  80.0969772  51.1214523  20.2421150
  77.0620041  46.0625000  23.5881367  76.7427902  46.6555786  22.9079952
  77.8664398  46.4728546  23.9054890  41.3393250  47.3335724  79.6306763
  42.2246170  47.2774544  79.2710419  40.7907600  46.8838882  78.9879532
  36.8299370  22.7028770  15.9435997  36.7085762  23.0852547  16.8126736
  35.9454994  22.4765873  15.6558590  15.8515654  42.8770485  48.2194061
  15.2794256  43.2320366  47.5390587  15.3784332  43.0345688  49.0364532
  84.8990173  41.8631477  33.3012810  85.3319016  41.2531166  33.8985291
  85.5822296  42.1158066  32.6802940  58.3044319  37.2436447  70.4899368
  59.1741905  36.9158554  70.2612305  57.7804451  37.1029015  69.7013550
  72.7090683  48.8505592  67.0002213  73.1381226  48.9950485  67.8435898
  73.0173492  47.9890556  66.7191467  79.0078964  71.4197235  85.0798416
  78.0710373  71.2404633  84.9999619  79.0559692  72.2035828  85.6270905
  52.5797043  49.4025955  24.3443012  52.9980469  48.6811447  23.8744831
  51.8638802  48.9903564  24.8279152   5.8270311  18.2642078  30.6974049
   6.6504879  18.0682564  31.1443424   5.3811188  17.4194698  30.6356544
  70.0769424  38.1013489  70.0625839  70.8243942  37.9165688  70.6312714
  70.0044632  37.3278732  69.5033798  21.4199295  69.9587479  10.5672760
  22.1347828  70.4522858  10.9693213  20.7675953  70.6222000  10.3424940
  21.8453999  48.8904190  24.1364479  22.5718021  49.1876755  24.6843624
  22.1451683  49.0395241  23.2397099  46.4324493  38.0562859  74.3356705
  46.2235298  38.7930336  74.9099426  46.5934868  38.4567223  73.4813004
  81.3922272  49.2568741  26.0855827  81.1283646  50.1551819  26.2847061
  80.9242325  48.7220535  26.7268105  22.9440079  27.7136745  77.5842361
  22.8451576  28.4760017  77.0138702  22.0482407  27.4757977  77.8235016
  45.5511322   6.5836182  58.7472801  45.8478470   7.4669819  58.9660492
  44.6183662   6.5841722  58.9621811  29.9151402  43.4497185  61.4439888
  29.8154793  43.0870972  62.3242188  30.5194702  42.8509293  61.0052795
  33.6420670  62.0055847  36.7094879  32.8928871  62.5865822  36.8414230
  34.0951576  62.3681107  35.9482269  24.7329884   7.3083591  58.5886574
  24.1210308   7.0109162  57.9154053  24.9084606   8.2225647  58.3657913
  81.8422623   0.5940022  19.7176647  82.5340652   0.2857280  20.3029842
  82.3069839   0.9072340  18.9416809  76.2809753  62.2472496  49.4629211
  76.3129730  62.6593552  48.5995674  75.5125656  61.6775551  49.4280548
  47.4254684  41.6398468  87.7799072  47.6843224  42.3807182  87.2318802
  48.1481667  41.0175285  87.6982880  59.0023041  44.2248726  43.7041779
  58.2964783  44.8089523  43.9814796  59.6697426  44.3160591  44.3842087
  72.9270248  62.6677971  60.0774612  73.2560806  61.8638649  59.6754036
  73.3465347  63.3719368  59.5830612  28.6946411  16.6927490  80.0684967
  29.5140858  16.8992882  80.5180283  28.0974083  16.4288464  80.7684250
  82.0625534  23.1907272  82.8477707  82.6742783  23.0305634  82.1291809
  81.1981583  23.1603222  82.4377365  15.7978096  17.4911270  18.5087929
  16.4750519  17.8834229  19.0598621  16.2637672  17.2069168  17.7224464
  22.0008812  10.5397120   5.5371432  22.5464268  11.0112133   4.9076204
  21.2046776  11.0665512   5.6059246  38.9442215  60.7465515  50.8915253
  39.4956856  60.1276131  50.4129524  38.6687469  61.3822289  50.2310257
  73.7815247   3.0566788   7.5068002  73.0068207   3.6132898   7.5858793
  73.5552521   2.2613602   7.9889846  15.5446587  57.1943855  64.3667068
  14.6996632  57.1769676  63.9173622  16.0447903  57.8709183  63.9101906
  10.8698397  31.4095879  11.3098698  10.2488003  30.6956921  11.1653185
  11.5041895  31.3229675  10.5983019  49.5807457  48.2560806  58.9614525
  48.7945709  47.7109871  58.9292526  49.9139061  48.1435699  59.8517227
  70.3968124  20.2110634  69.5856018  71.1957550  20.4838066  70.0367432
  69.8782120  19.7731895  70.2605438  26.7756042  27.4681282  75.7196884
  26.8924141  28.3886738  75.9545898  26.9447594  27.4379082  74.7780380
  64.4502716   6.7025895  39.2104034  63.9996719   7.1005478  39.9552650
  65.1399918   7.3272600  38.9861145  23.2124443  28.4399776  29.7386112
  23.4337635  29.2049599  29.2075253  23.1159878  27.7286167  29.1054478
  66.2812119  21.6740894  12.3253336  65.8449097  20.8266869  12.2370939
  65.8668900  22.0785828  13.0875387  18.5857506  32.8843117  61.3354950
  17.9301701  32.2618599  61.0208588  18.0768185  33.6390572  61.6314316
  35.6370697  46.3417244  34.2053299  35.9666176  46.8862801  33.4904251
  36.3382721  45.7109947  34.3688087  81.0857391  60.7861404  24.9117622
  81.9936066  60.9060020  25.1904163  80.9863281  59.8384972  24.8205471
  22.6140709   8.2798424  23.2702808  21.6619072   8.3732529  23.2404079
  22.9036102   8.9683266  23.8689365  65.9619217  18.3604889  48.6887016
  65.4471664  18.5386353  47.9015999  65.3116760  18.2754574  49.3859749
  69.6723175  15.5080709  87.0321426  70.3498001  15.9648905  86.5335770
  70.0163574  15.4699640  87.9245682  76.3368683  69.1399078  46.4148865
  76.2733765  70.0726471  46.6203194  75.9971542  68.6994247  47.1938553
  74.4115143  27.7088451  71.0739594  74.7608719  28.5116806  70.6871262
  75.1092834  27.3974342  71.6504822  34.6035461  59.8537064  69.6101608
  33.9750710  59.1373520  69.5202332  34.3885078  60.4522057  68.8947678
  26.5391655   1.0549049  52.7138557  27.3235645   0.5536633  52.9368019
  26.2450943   1.4227509  53.5471878  62.0139313  53.3193588  21.7537441
  61.5727310  54.1661987  21.8203506  62.2111740  53.0801697  22.6593456
  62.8023834  23.9025955  72.8538742  62.7209167  23.6778183  73.7807388
  61.9038391  24.0657806  72.5671234  80.2047806  68.7347260  18.2064228
  79.6067047  69.3302765  18.6579304  79.7690887  67.8832855  18.2446175
  55.9820213  12.3521719  29.8494339  56.0842667  12.3261261  28.8980656
  56.5343895  13.0819111  30.1297989  73.0570450   3.8585482  54.3881454
  73.3880157   2.9805937  54.1987190  72.1147079   3.7982798  54.2312698
   5.2404227  16.1788540   2.1394739   5.0863562  15.2445164   2.2791455
   5.9857168  16.3856316   2.7033992  65.2946396  54.5360107  63.8592262
  65.5882721  54.3990555  62.9585304  66.0075607  54.1933708  64.3982773
  64.6132660  10.3975010  27.6070232  65.2788315  11.0798826  27.6942272
  64.5238647  10.0360374  28.4888306   1.9103816  49.1345177  83.4928436
   1.9287841  49.9714851  83.9569321   2.8296731  48.8753777  83.4297409
  24.5967617  28.4192772  81.9535522  23.8174229  28.9208279  82.1929474
  25.2101765  28.5722885  82.6722641  16.2356148  58.2799530  86.4728394
  17.0255566  57.7423706  86.5296783  15.5607109  57.6809387  86.1535950
   1.4869976   0.4942297  79.8601837   1.8511560   1.0323153  79.1572723
   0.6124410   0.8538950  80.0085907  24.2715530   9.4144192   1.0789031
  25.0500031   8.8773174   0.9313594  24.2424927  10.0057631   0.3267725
  46.5979309   0.4949749  58.2735062  47.2199783   1.2018028  58.1012306
  46.8105850   0.1992168  59.1586800  68.2174759  53.8222923   9.2238064
  68.7010117  54.4722519   9.7336807  68.7941437  53.6180725   8.4876137
  80.8300476  43.9636536  16.1800327  80.8638229  44.7810249  16.6770134
  81.0366516  44.2209511  15.2815094  77.0937500  20.5384960  29.4081554
  76.1524658  20.4584618  29.2538376  77.3666153  21.2676296  28.8512516
  38.8061066  57.5621872  18.2974262  38.3963165  57.8702507  17.4890957
  38.2256508  57.8710899  18.9930420  40.8289185  17.7095699  15.9299641
  41.3918648  18.1361542  16.5759907  39.9440079  17.9943542  16.1581421
  56.9663696   1.5369399  59.0805321  56.6169128   0.6465978  59.1179504
  57.3511276   1.6797659  59.9452820  50.5585594  34.3909683  20.9385509
  50.9066620  34.8037224  20.1481781  50.5975990  35.0775528  21.6043644
  73.2058945  15.7002954  55.2810402  72.5308914  16.2629929  54.9015923
  73.5382919  15.1924734  54.5408669  39.6515961  44.3124847  42.1080704
  39.9504471  44.2023544  43.0107269  39.3669243  45.2250900  42.0596771
  48.5110245  18.9210281  71.1519394  48.7031898  17.9876366  71.2418442
  47.7107773  19.0509129  71.6608200  56.3623428   0.1884677  66.1140671
  55.4463196   0.3676207  65.9018478  56.3238869  -0.3581546  66.8988953
  78.3724670  43.0972290  66.5192719  78.2838058  44.0468826  66.6000977
  79.1062164  42.9756012  65.9167404   1.3724759  61.6381378  73.5872650
   0.7273757  61.5556946  74.2896042   1.2390066  60.8594437  73.0468445
  49.3650055  37.0697861  22.7048569  49.7360916  37.6736107  23.3482265
  48.8249817  37.6231766  22.1406174  48.9522209   2.6014500  73.5273972
  49.7621002   2.2451293  73.8925781  48.7536507   3.3584235  74.0785675
   5.7881346  54.0908241  16.4218941   5.8018641  53.2738762  16.9205303
   6.7111645  54.3163490  16.3061962  76.5763016  30.4042015  53.0138741
  76.0153198  30.2492657  52.2539215  76.5396500  29.5860672  53.5093994
  41.6089706   2.0238590  41.6745148  41.3389664   2.3770795  40.8268318
  42.1281509   1.2496674  41.4570007  78.1063614  14.9213076  66.2283020
  77.8551559  15.8270311  66.0472183  78.9956131  14.8456335  65.8822556
  56.3818398  64.7511444  86.5961533  57.0461502  64.4017410  86.0021439
  55.9332314  65.4242935  86.0844498  18.7842922  57.6121216  18.5168591
  19.0632343  57.9146996  17.6526413  18.2221012  58.3133430  18.8461933
  64.3041382   6.1848106  18.1891136  64.0550613   7.0800238  17.9593658
  65.2236023   6.2507138  18.4469585  47.9440079  19.7032261  68.0634613
  48.8307953  19.6747646  68.4226685  48.0083008  19.2376347  67.2296066
   9.3713398   1.2790185  11.1583309   8.8829861   1.9441533  11.6434479
  10.2032290   1.2041301  11.6258612  86.5477524   6.5563102  21.9633808
  86.8941269   5.6743751  21.8275623  85.8659973   6.4464269  22.6262245
  84.4450684  22.4918823  53.0944366  84.5115585  21.6535454  52.6372719
  85.1639862  23.0154076  52.7404518  84.0593262  37.8234138  38.8194962
  84.3955765  36.9283867  38.8653030  83.9220657  37.9801788  37.8852501
  78.7610321  68.8727951  24.0896969  78.7121658  69.1692886  24.9985085
  78.4554901  67.9660797  24.1168156  36.2428284   2.6146064  27.4017830
  37.0585899   2.2120092  27.1039906  36.4425125   2.9391885  28.2798500
  45.7627831  42.9023018  73.1814880  46.5749512  43.2267151  73.5705490
  46.0449867  42.2210083  72.5712128   7.0408545  70.9678955  72.4189606
   7.0173130  71.3168335  71.5279388   6.1966496  71.2160492  72.7957458
  -0.1182298  65.5702896   1.8391892   0.5262222  65.8623734   1.1945171
   0.3620989  65.5525894   2.6669590  75.7341156  12.0190229  18.0454140
  75.9853134  11.7722616  17.1553326  74.8800430  11.6070871  18.1761570
  68.0712433  67.3118973  79.2492294  67.7965469  68.2269440  79.1903992
  67.6628265  66.8901367  78.4932251  85.6521988  48.4181824  70.3568192
  85.4291382  48.5320969  71.2806702  86.5203934  48.0152550  70.3679657
  41.4198875  38.5223122  27.1893024  40.4633217  38.5120354  27.2225685
  41.6360474  38.0703697  26.3736706  15.9266596  70.8391800  45.0139465
  15.9328737  71.5555801  44.3791504  16.4182529  71.1778946  45.7621727
  62.7101517  57.9682121  74.0652161  63.5004311  58.5061569  74.1132507
  63.0350075  57.0747528  73.9537354  10.8591347  68.0684814  82.9748383
  10.8278217  67.2029037  83.3823166  10.3176699  67.9835129  82.1900940
  49.1856194  23.2587585  33.9044647  49.3381462  22.3164158  33.9748611
  49.3582840  23.4613113  32.9850159  83.3199158  47.5054283  11.8792534
  82.8750916  46.7619743  12.2862453  83.2560959  47.3373108  10.9390965
  27.7021694  63.4064522  65.4096909  26.8030434  63.0817909  65.3607254
  28.2041969  62.8052711  64.8594437  21.2495461  28.6719131  88.7969513
  20.9039078  27.8607140  88.4244995  22.1213627  28.7599468  88.4117050
  20.8841991   0.7407535  58.0420647  20.7507820   1.6217418  58.3917656
  21.1547279   0.2210344  58.7989922  71.4771194  40.5595360  58.7362137
  72.3249512  40.8478012  59.0743217  71.1641617  41.2977943  58.2134666
  56.7311554  52.6519737  17.2853642  56.8429565  51.7801514  16.9063435
  55.7887230  52.7295647  17.4337807  60.2461510  26.0466385  72.4978104
  60.0190964  25.1830044  72.8425064  60.1887093  26.6294041  73.2549896
  44.6845360  66.6270752  18.1505375  43.9125710  66.0716705  18.2592926
  45.1981468  66.1926422  17.4695816  86.8870773  62.4127388  83.5704193
  86.0247498  62.7621460  83.3456268  86.7013321  61.6548386  84.1247864
  50.7685852  47.7548828  25.9831638  50.4776497  47.3949165  26.8210278
  51.0305290  46.9894066  25.4716301   4.0223494  20.0975246  12.5762644
   3.6242816  19.6178417  11.8498497   4.5696354  20.7599754  12.1545191
  56.0243263  38.5671692  84.5854111  56.9458885  38.6469383  84.8315735
  55.9290619  39.1405678  83.8249054  73.9729691  54.2517014  84.5141907
  73.6016235  53.5762482  85.0817261  73.5244522  54.1340904  83.6767960
  48.6355629  56.0646744  77.3287430  48.0469322  55.5759659  77.9039917
  48.4946518  56.9815140  77.5649261  85.5390549  11.9240818  66.3544769
  86.3860168  12.2965279  66.1091690  85.0008087  12.6822634  66.5818100
  60.7019768  22.1573639  10.6255503  61.4803543  22.5942307  10.9712486
  60.4782829  22.6539974   9.8384352  57.9731255   3.4217019  71.4709778
  58.3279228   4.0080700  70.8027573  58.2594604   2.5492842  71.2005539
  38.5613785  18.4436722   6.5889130  39.5126457  18.4841805   6.6873121
  38.3854103  18.9064178   5.7696857  68.8813248  55.0442314  15.6299095
  68.0924759  55.5251961  15.8801556  69.4944534  55.1993370  16.3484116
  59.2739983  69.4614563  43.6685410  58.7567482  69.2216568  44.4374237
  58.6996040  69.2751312  42.9258499  77.8082123  15.8549938  43.3724251
  77.6059494  15.0116997  43.7776108  78.7488327  15.9672508  43.5097923
  60.8790627  56.5873718  63.0692101  61.5043831  57.2855682  62.8749771
  60.0769119  57.0466270  63.3179436  39.2856712   8.6656704  73.1576996
  38.3735619   8.4468079  73.3484497  39.7945747   8.0887556  73.7272720
  22.1504993  12.1742058  17.7085190  22.8726196  12.0605211  18.3264599
  21.5121593  12.7079554  18.1816635  60.9335251  17.7654705  33.4266281
  61.7617645  18.0590477  33.8061829  61.0294189  17.9273853  32.4881058
  33.9776192  61.2951889  19.8613091  33.9027252  60.4662437  20.3340378
  33.0743256  61.5362244  19.6558933  45.7362099  61.1523361  37.6267471
  44.8673058  61.5201683  37.7877769  46.0724068  61.6496353  36.8811607
  59.5294724  13.5670853  50.7774696  59.6732941  14.3373756  51.3271980
  60.4092827  13.2775288  50.5359802   0.0503024  30.9762745  22.0344105
   0.0571602  31.6120472  21.3188858   0.0163355  31.5097046  22.8284683
  61.1230927  24.8492432  52.6778297  60.4683990  24.1527023  52.6284027
  61.9614983  24.3882961  52.7067795  40.0786324  34.6812935   3.9844077
  39.7680855  35.5827446   4.0691381  39.5150185  34.2958603   3.3135788
  35.3856506  58.1382980  76.1694412  35.1108856  57.2374229  76.3402023
  35.6514549  58.1374130  75.2498856  64.2471008  20.6859264  21.5625210
  63.7115135  21.1120701  20.8933582  63.6448746  20.0895405  22.0073509
  40.4943161  59.9119415   0.2576457  39.9151649  60.3990097  -0.3285122
  40.1688843  59.0124321   0.2228677  84.4873428  53.7229500  28.1362896
  84.9323578  54.3471146  27.5630455  84.2454224  54.2361565  28.9072151
  27.6690788  31.5372028  16.0925198  27.2528000  30.6753178  16.0826588
  28.5333881  31.3813972  16.4732113  48.5667763  65.6824112  35.1781197
  48.8169861  65.7342529  36.1005821  49.2127686  66.2234039  34.7239647
  12.6354237  50.5435371  65.2720108  13.0646124  49.8266449  65.7390137
  13.3427162  50.9737740  64.7915268   5.3461618  37.9309769  42.4799118
   5.7689266  37.1544037  42.8465691   6.0463800  38.5812531  42.4245415
  86.1575623  53.0406609  32.2610779  85.9428482  53.9599953  32.4190369
  86.9583435  53.0682831  31.7374134   3.0342824  57.2019005  18.8473969
   3.4681563  56.4105988  19.1665001   2.2112405  57.2369232  19.3348465
  71.0415649  30.1089249  64.8166885  71.8938217  30.5445251  64.8281860
  70.7030106  30.2215462  65.7049103  83.1823349  11.1838903  57.8196945
  82.8192215  10.3948355  57.4174805  83.2113495  11.8236980  57.1083336
  19.9539814  54.4027405  12.2219467  19.6285019  54.5457802  11.3332205
  19.7604046  55.2193680  12.6822453  78.0879517  20.7511654  39.1113052
  78.7135162  20.2392960  39.6240349  78.6002121  21.0893936  38.3768463
  20.7870159  52.6154671  -0.0284578  21.6604424  52.3178711   0.2260885
  20.6057453  53.3525887   0.5546580  85.8614807  11.9685841  58.8081856
  84.9998627  12.2341995  58.4868088  85.8655472  12.2320328  59.7284088
  64.3673859  52.7430878  13.1537981  64.0984573  51.8573570  13.3974905
  65.2672272  52.8162270  13.4718781  78.7633057  30.1620960  84.2096252
  78.9737015  29.6811428  83.4092178  78.9869919  29.5581532  84.9177551
  58.6952705  39.3688774  43.2927208  59.3776970  39.6891670  43.8825874
  58.1868744  40.1484184  43.0689430   2.0497494  16.4995346   6.7083106
   2.9928744  16.6587677   6.6709943   1.8948151  15.8229427   6.0491834
  71.9686050   8.5837955  28.0637703  72.0875931   7.8233385  28.6327877
  71.0396729   8.8001919  28.1443062  19.1201344  60.3873291  87.4812393
  19.4319458  60.2814217  86.5824738  18.3767452  60.9858437  87.4078903
  13.5044603  44.7462196  36.1389313  13.4539738  43.7910042  36.1741905
  12.6069183  45.0394630  36.2959595  84.7327957   1.5108924  49.8130302
  84.9102325   1.3192492  48.8921509  85.3933868   2.1602879  50.0541306
  14.0063429  17.6635513  82.9006042  14.3211002  17.5098629  83.7914124
  13.4605570  16.9019928  82.7047043  72.0145111  52.5589218  18.1016235
  72.5702896  52.0660400  18.7052879  72.5695114  52.7137337  17.3372688
  28.2146111  51.5290375  25.0315399  27.9425240  50.6398392  24.8045521
  27.5364876  52.0903320  24.6555996  23.5693378   5.5049057  89.4561157
  24.0991287   4.7693815  89.1486130  23.3957310   6.0207448  88.6687088
  36.8863182  47.9779778   2.4762673  36.8150520  47.9380760   3.4299760
  37.0536232  47.0737495   2.2105472  83.7834396  45.3932190  87.3066483
  83.2897797  46.1492233  87.6244507  83.4991608  44.6696091  87.8650436
  10.1845102  12.5322647   0.1473714  10.6278458  11.7033920   0.3280814
   9.4399271  12.5417328   0.7488174   9.3869286  21.6359730  44.7227669
   9.6219568  21.7942219  43.8084641   8.4349403  21.5368500  44.7116470
  51.7377319  44.9722672  48.7326889  52.4954796  44.9812737  49.3174744
  52.1141548  44.9845085  47.8526993   2.0492852  61.6754837  38.8611794
   2.7742994  61.7203827  38.2378273   1.6119747  62.5232010  38.7813988
  28.0812531  35.1868744  72.9183884  28.2749634  34.4010887  73.4295120
  27.1313133  35.1688271  72.8021164  86.8723145  55.1277962  59.6020584
  86.3523178  55.6223564  58.9686203  87.1270065  55.7747078  60.2599831
  64.3499146  37.2708206  46.2292404  64.2736511  37.6925468  45.3733406
  63.5906639  37.5855865  46.7198448  44.6930161  42.3473358   2.0641198
  44.3396111  42.4330864   1.1786913  44.2829781  43.0590363   2.5556319
  67.2456131   6.0350690  18.9572010  68.1260986   5.9585714  18.5895996
  67.3888321   6.2251911  19.8843327  62.9664612  56.3883858  88.1185608
  62.1031570  56.2855835  88.5190277  62.8137627  56.2560692  87.1829300
  42.0398560  46.4550858  76.5256271  41.9938927  46.7498665  75.6161118
  41.2923660  46.8747635  76.9514923  14.7866087   0.8126810  54.5457535
  15.5196066   1.1036414  55.0882339  15.1179886   0.0385858  54.0905647
  54.2309875  54.2941170  19.8506432  54.5866890  54.5310631  20.7071266
  54.0873146  55.1320534  19.4108162  53.3036003  17.4233055  39.1172523
  52.8772430  18.2494564  39.3451309  52.9573593  17.2058430  38.2517700
  73.2380295  28.8409386  43.6236725  73.3357010  29.7367096  43.3007393
  74.1252823  28.4821568  43.6067543  33.4939499  13.0383148  81.6104202
  33.9380569  13.8850670  81.5655441  32.7803993  13.1748390  82.2336655
   3.1727786   6.1531177  29.5720177   2.5052564   6.1507010  28.8859863
   3.4133258   5.2324204  29.6753883  30.8229465  65.9474106   9.5089445
  31.1090698  66.5909576  10.1571884  30.0972767  66.3733978   9.0526848
   1.5428818  44.4425812  53.2045898   2.4421580  44.5912590  52.9123077
   1.3276910  45.2187881  53.7217255  78.8961563  16.7995777  77.2534943
  78.0112762  16.8158741  76.8888702  79.3348999  17.5490742  76.8510132
  17.4272270   7.3374000  85.6568375  17.6916161   8.1086149  86.1583862
  16.8309937   7.6781740  84.9900436  75.8826141  58.4008369   7.9690189
  75.7769241  58.4872932   8.9164295  75.2703781  57.7077522   7.7219787
  86.4234085  12.8468189  39.4187164  85.4890213  12.6783390  39.2971649
  86.8449249  12.3990726  38.6851807  46.9011650   4.0641689  77.5498505
  46.2667656   3.7915223  76.8869553  46.6977844   4.9854536  77.7114182
  85.3117294   5.0516620  77.1096115  84.3813019   5.0688138  77.3337631
  85.4997406   5.9374871  76.7994614  17.6112175  52.9004288  87.2657623
  17.3250656  53.3125229  88.0809479  18.4247189  52.4520111  87.4967728
  54.2344475   2.5341530  85.3785934  55.0944252   2.1248012  85.4739914
  54.1457138   3.0884807  86.1538849  47.0046539  13.8158846  54.4421959
  46.1973991  14.1789932  54.0778847  47.3448982  14.5087891  55.0081902
  23.2983322  56.2004585  13.3219309  22.3439026  56.2645378  13.2874508
  23.5451717  56.7133598  14.0915003  85.9050903  29.1550827  11.2446709
  85.5329361  29.8777847  11.7500753  86.7031937  28.9184170  11.7171583
  69.1199417  28.1627369  85.1844711  68.2974930  27.8150558  84.8396225
  69.7441788  27.4439087  85.0852356  65.0478745  65.2525253  61.4123459
  64.6854248  66.1362152  61.3494987  65.4503632  65.0973969  60.5578423
  31.6081085  35.5812416  86.6722412  31.8044510  36.2308502  85.9971924
  32.3179817  35.6740227  87.3076172   3.1926744  68.1611710  87.3693695
   4.0660076  68.0941315  87.7554092   3.0205863  69.1018677  87.3281479
  33.5988235  26.5466919  82.8075562  33.7533455  27.0208836  83.6245575
  34.4724770  26.4096241  82.4412613  77.3887634  48.4736519  78.1592102
  76.5803375  47.9644318  78.2173767  77.1979904  49.2812347  78.6363373
  58.7174644  57.1056099  72.0252609  58.3860664  56.2098808  72.0891113
  59.6689186  57.0130310  72.0741730  39.1775017  59.1395721  21.7806244
  38.3916512  59.6707573  21.6521378  38.8676453  58.3617859  22.2445965
  78.6400146  41.9352074  50.7745667  78.5773697  41.2076416  50.1557350
  79.5652695  42.1801834  50.7633514  11.8313551  55.8946838  26.3784199
  11.7987537  54.9624214  26.1638126  11.4464483  56.3292618  25.6173515
  76.5573120  68.3523788  19.6006279  76.8405151  69.2041092  19.2681007
  76.9087982  67.7211914  18.9727039  17.9913120  10.1773596  23.6142902
  17.4435558  10.2045212  22.8297806  17.4935894   9.6459198  24.2356415
   3.0913405  67.5991058  52.5604362   2.3870957  67.5211182  51.9168625
   3.2777333  68.5371933  52.5990219  65.7938461  37.7934837  57.8923264
  66.3589172  38.2688522  57.2832680  65.4928589  37.0326080  57.3956299
  48.7946243  25.2088032  61.3342934  49.5404892  25.1077824  61.9256554
  48.0319901  24.9957809  61.8721085  28.3477707  64.8391876  27.4636955
  28.3057556  64.3592148  26.6365967  28.4718914  65.7522812  27.2046986
  43.7115707  67.5690002  77.9589005  43.3445473  68.3334274  77.5148621
  44.4640160  67.9108582  78.4417953  44.4638519  11.0544491  85.8792572
  43.7412682  11.6136189  85.5938950  44.4412079  11.1029205  86.8349609
  63.9636116   6.0440488   5.0046606  64.3701324   6.2265205   4.1575012
  64.6968231   6.0052576   5.6187677  68.4106903   0.5030394  14.8003283
  67.5380859   0.1148318  14.8643389  68.4559631   1.1132163  15.5364437
  76.6576385  28.1416397  54.6707344  75.8848724  27.6020546  54.8377800
  77.3511658  27.7338467  55.1893539  80.5251923  19.0193653  62.7283554
  81.0486908  19.6694241  63.1969757  81.0306625  18.8293686  61.9380188
  66.7670135   5.2367764  74.6994553  66.3837128   4.5321026  74.1772003
  67.6778183   5.2822671  74.4085846   2.4393146  16.7351093  80.5045700
   2.6842637  17.5455055  80.0579300   1.6867689  16.9771500  81.0443192
   1.1778275  32.4168510   2.2900677   2.1046658  32.1873016   2.3572140
   0.8043982  31.7420044   1.7231779   8.3266659  57.1934738   3.4279470
   9.0508184  57.1026764   2.8085992   8.3886175  58.0969086   3.7381048
  34.5520248  46.4063416   6.1198425  34.7191429  45.5463448   5.7342172
  34.6471100  46.2687912   7.0623236  33.1829414  39.2589684  10.6900616
  33.9596252  39.5301094  11.1794271  33.4912987  39.1547890   9.7898979
  59.5877647  32.1459351  17.1936588  59.5848961  33.1016655  17.1407070
  59.4731178  31.8555775  16.2887936  14.7647247  38.1396446  17.1219006
  14.3129272  37.2960854  17.1447430  15.6516113  37.9446144  17.4246025
  59.2975273  65.5264664  25.1019764  58.8759346  65.6248016  25.9556866
  58.5874405  65.6381836  24.4698944  45.8913651  56.6729431  70.4231873
  46.3212357  57.3594894  69.9131927  46.3961868  56.6260338  71.2350922
  26.7172337  52.8293610  69.0273056  25.9817486  53.4371834  68.9508362
  27.1063385  52.8130112  68.1529083  42.7181282  43.1953468   0.2082154
  41.9680595  43.7898750   0.2210171  43.3954887  43.6745796  -0.2690218
  10.4438248   9.7632961  63.9524918  10.7988014   8.9316292  63.6385612
   9.7634420   9.9881163  63.3178558   1.3381160  56.0218163  50.4924240
   1.6178912  55.1226883  50.6642647   1.4807392  56.1417351  49.5535355
  52.7002945  13.8780727  24.5817833  52.5334358  14.4650517  25.3192425
  53.0964127  14.4384651  23.9144878  40.3871155  52.5190582  76.4376602
  41.1610107  53.0600433  76.2806473  40.3611946  52.4081955  77.3880615
  42.0865402  51.2692795  48.0815201  42.7060890  50.5570831  47.9228859
  41.8311386  51.5637398  47.2072830  83.5192871  70.3761749  30.0364227
  83.3987045  69.4305649  29.9497356  84.4625092  70.5072250  29.9395237
  65.6944046  58.7189407  65.5617447  65.5196762  58.7279510  66.5028229
  65.3301010  57.8873596  65.2584534  17.6858444  48.0943947   7.1977892
  17.4922333  48.6122284   7.9791942  17.3067036  47.2346230   7.3802190
  51.7420959   2.3348358  55.0067825  51.7924728   2.9621756  54.2855759
  51.4840546   2.8605466  55.7639313  15.9223614  20.4201794  14.9103022
  16.3695393  20.4399605  14.0642090  14.9927301  20.4843311  14.6914368
  71.8221741  37.9326134  27.7849941  72.4927750  37.4825745  28.2987976
  71.1270065  38.1246910  28.4143429   4.4782705  18.9770145   8.3883791
   4.1457119  19.8176327   8.0737391   4.8458457  18.5583649   7.6100140
   9.4528227   2.6952846  51.1076660   9.0753365   3.5396194  51.3543129
   9.2245855   2.5915725  50.1838760  74.0352478  45.8645782  33.3048744
  74.9637375  45.6721573  33.4357300  73.5862579  45.3406830  33.9683304
  20.4345455   6.3754277  12.8109837  19.4963512   6.2179132  12.7050934
  20.5080547   7.3243022  12.9132833   8.8189573  39.3271027  12.8879766
   8.0071812  38.8731766  13.1142530   9.4428349  39.0511780  13.5594473
  57.9591713  57.6952629  75.1333313  57.9976006  58.5442085  75.5738373
  58.8754463  57.4564552  74.9931793  31.8198032  67.2657928  26.4214649
  31.9519711  66.3744583  26.0985165  30.8694172  67.3575745  26.4890842
  49.5809097   3.7780497  23.6475735  48.8950424   4.4086452  23.4281025
  49.1320534   3.1038144  24.1576405  43.8971825  37.3824921  49.9700203
  43.4033813  36.7121696  50.4423103  43.2271309  37.9555168  49.5973206
  52.8077354  20.8813934  66.3804855  53.0062218  20.3295918  67.1370239
  51.8532639  20.9536438  66.3805618   6.6668434   0.7074301  18.1027794
   6.9813571   0.1965394  17.3569221   5.8119030   0.3293563  18.3086166
  13.5987186  65.8589935  53.2379417  13.9783640  65.5036469  54.0415764
  12.7426052  65.4362564  53.1701736  84.4644089  28.8406448   4.1783247
  83.6243820  28.4137173   4.3466020  84.6062851  28.7280102   3.2384231
  33.0703354  23.2721367  70.8876266  32.4213219  23.1060829  70.2039337
  32.5521278  23.4245224  71.6778641   7.2188954  42.6375198  74.2768707
   7.6069322  43.1744270  73.5859375   6.7898021  43.2667656  74.8566666
  61.9445763  35.3337746   6.0553694  61.9750977  35.9443779   6.7918916
  62.6848068  34.7448120   6.2016912  53.7710075   4.7830825   8.0725355
  54.3859024   5.5104637   8.1676998  53.4438286   4.8617177   7.1764326
  40.6577492  47.5657654  63.4753609  40.2051086  47.7979126  64.2861938
  40.0454674  47.8093262  62.7810822  57.5001640  45.2691612  32.5675354
  58.4241600  45.0463219  32.6806908  57.3766632  45.3042107  31.6189823
   8.5380039   3.6356103   2.3019238   8.0978251   2.7891304   2.3790364
   9.0404673   3.7189937   3.1123619  30.2096996  52.7642555  40.5943451
  29.6145725  52.2404251  41.1306801  29.6337852  53.2621498  40.0141220
  16.2306328  53.0308609  37.7058144  15.5783539  52.6397820  38.2870407
  16.6061172  52.2881088  37.2329941   1.7656318  13.0303946   5.8620229
   2.2046025  13.4159012   6.6202583   2.4793422  12.7420053   5.2930932
  43.2016525  66.2789917  30.3320751  43.7947426  65.7114334  30.8243656
  43.7763901  66.9179459  29.9105930  46.0425224  17.2324142  34.3112068
  45.9291611  16.3833389  34.7383537  45.9912491  17.8682804  35.0248451
   2.2224998  16.3610363  55.5999031   2.5133309  16.7863941  54.7932320
   1.6565324  17.0079174  56.0211601   8.3167324  45.6523857  56.3902969
   8.6634808  45.7185555  57.2800255   8.9847641  45.1646538  55.9085464
  85.4263535   1.4356220  17.3530617  85.5788193   1.4422970  16.4081059
  84.4793701   1.3282340  17.4421215  51.7898102  41.7795258  66.2389374
  52.0680084  41.5797119  67.1327591  51.0103073  41.2405014  66.1045609
   3.2013378  41.0735321  82.6560516   3.1242802  40.1461487  82.8802185
   4.1135426  41.2912598  82.8476486  41.7963524  59.7522240  54.5453339
  42.5101967  59.9602661  53.9425240  41.5557747  58.8511734  54.3297920
  38.2806473  65.3707199  60.0660667  38.9224434  65.1580124  60.7436256
  38.4350929  66.2951508  59.8716202  56.9778442  11.1190357  60.8010139
  56.2814713  11.3777742  60.1973991  57.5449257  10.5486231  60.2820930
  51.6164703  49.6311798   3.6445091  50.9032478  50.0763092   3.1869001
  52.4088936  50.0746956   3.3418615  57.3219643  24.7526569  77.0116348
  56.7879906  25.5465603  77.0403137  56.9043922  24.2071018  76.3451233
  50.1994896  31.8126545  21.9256802  50.5331268  31.4854507  22.7610588
  50.4343300  32.7405853  21.9209042  37.3177223  61.9121094  79.0687103
  37.2390862  60.9983101  78.7948074  37.6777534  62.3612480  78.3039322
  34.8540497  53.1821022   0.0716509  35.4115257  53.3552818  -0.6869411
  35.1572418  53.7992439   0.7375668  14.0332727  68.3677979  79.4760056
  14.8698483  68.7837753  79.6841812  13.3737612  68.9994583  79.7628403
  41.2188530  53.8816109  31.3126869  42.0052834  54.4270096  31.3301735
  40.7685623  54.1363678  30.5073490  84.5178452  27.8496857  46.1690636
  84.9033813  28.1069622  45.3315659  83.7585297  28.4237576  46.2696152
  52.5141525  57.9558449  59.6969337  52.4319687  57.8621330  58.7478828
  51.8404312  57.3771858  60.0539818  40.1846123  65.1975327  48.7885437
  40.2524414  65.9177246  49.4154091  41.0772743  65.0769882  48.4647255
  64.3131104  23.5186577  56.3699493  64.1284866  23.5740891  57.3075371
  63.9953651  24.3483753  56.0138054  11.3347559  26.3320427  82.3165970
  10.9004679  27.1363010  82.6008453  11.4363537  26.4362125  81.3705215
  80.8660049  11.1381416  11.5687075  81.6289978  11.7159472  11.5831766
  80.5223541  11.2174387  10.6788483   4.2851424  20.5404701  26.0233078
   5.0950522  21.0459499  25.9542561   4.1991258  20.3524132  26.9579029
  63.1479340   9.7072601  43.6941528  63.5699005   8.9353237  44.0713692
  62.2983665   9.3901234  43.3877449  12.0372715  51.6224480  10.8724003
  11.2223406  51.9149017  11.2805557  12.4111109  52.4157104  10.4887228
  67.8915482  56.9850273  70.6598816  67.2385864  57.6737442  70.5351944
  68.6362762  57.4312019  71.0630417  22.9950047  66.8872910  67.6284027
  22.0555630  67.0449142  67.5343857  23.0705929  66.3561249  68.4211044
  48.9210815  13.2059774   1.5406355  49.3886299  14.0386839   1.4755809
  49.3899841  12.6208963   0.9456189  85.7165298  49.5667305  62.8908539
  85.6604080  49.3485069  63.8211555  85.8023376  48.7208328  62.4511681
  16.0373535  30.9494247  69.8143845  16.4371586  31.6195602  70.3687363
  15.2321644  30.7086658  70.2725754  42.2687798   0.2376540  23.1917038
  42.1685181   0.1504124  22.2437763  43.1786232  -0.0075704  23.3598938
  47.7597198   1.0421213  37.6763573  48.3325043   1.0211238  38.4429779
  48.3399429   0.8541269  36.9386368  85.8830185  41.0063019  10.6163006
  85.3770065  41.6888046  11.0571775  85.5192337  40.1857910  10.9489498
  30.2896061  14.2775354  72.0952835  29.6251450  14.9579344  72.2038193
  30.7458668  14.2519913  72.9363556  76.1319504  33.8029785  26.7116261
  75.3124619  33.6593628  27.1849594  75.9200134  33.6033440  25.7997799
   9.6209354  65.5186005  70.1529770   8.7020388  65.5168991  70.4210358
   9.6392679  64.9869919  69.3571854  65.6935272   8.4854832  20.4715233
  66.4479599   8.0723457  20.8914986  66.0284195   8.7973022  19.6307812
  64.8633728  10.2227402  67.4498291  65.1241074  10.0740471  68.3587494
  64.0415268  10.7093821  67.5129623  51.5984268   2.2266886  18.2060890
  51.1377983   2.8459980  17.6399536  51.0432396   1.4469547  18.2097969
  47.9364319  58.9191284  66.8065948  47.5875740  58.7978630  67.6896744
  48.6134872  58.2477760  66.7222595  78.0178528  67.8236389  86.9680328
  77.3299484  68.3192825  86.5237885  77.5711060  67.0508957  87.3137436
  42.5691452  37.1850853  24.7659950  42.3306198  36.4132309  24.2525997
  42.8089142  37.8424568  24.1128445   2.0192094  27.7420044  22.4857235
   1.1981372  28.2291775  22.4169064   1.8596975  26.9337330  21.9983978
  47.0918541  18.4701176   8.5845795  47.4077568  19.3654938   8.7059908
  47.6944122  17.9318771   9.0978565   8.5562668  11.0052166  48.3744888
   9.4993219  10.8484821  48.3263969   8.1618004  10.1877241  48.0706215
  79.0730286   0.7595785  56.5238724  79.8129807   0.5478900  55.9547501
  78.3029480   0.6511974  55.9657936  18.4543705  16.8076439  29.0754108
  18.3576870  15.9977255  28.5744953  18.9367962  17.3937435  28.4923286
  55.8757439  11.3668785  41.7081108  56.5307426  11.1246319  41.0534897
  56.1699333  12.2156839  42.0385857  30.7045956  27.4087143  80.4097900
  31.5659485  27.7689209  80.6208649  30.1929951  28.1645947  80.1214371
  34.7942848  40.6394081  61.8129692  34.0800247  41.2738190  61.7530899
  34.3565788  39.7963867  61.9311180  60.0245323  13.1634607  35.9155502
  59.1096344  13.3659563  36.1109734  60.1181602  12.2376757  36.1400261
  10.2401896   3.2246797  17.4960289  10.8045588   2.8396764  18.1664696
   9.9181499   2.4754200  16.9948978  36.8886299  15.0591583   5.2617793
  36.7986717  16.0100727   5.1993265  37.6230087  14.8496361   4.6847029
  10.8033791  43.5110054  62.1780357   9.8849421  43.6788712  62.3890495
  11.2088089  44.3780251  62.1664581  49.1785240  33.8385658  81.2319183
  48.4013100  34.3918304  81.1539993  49.6155586  33.9187202  80.3840942
  -0.1045962  65.0030289  44.4032440   0.1620690  65.2670288  43.5226631
  -0.0301692  64.0487289  44.4000397  20.3237896  64.1195984  75.3116608
  19.7862759  64.7977371  74.9024734  21.1274834  64.5725479  75.5668869
  83.1471329  59.7676811   4.3341556  82.8148956  60.1662407   3.5297945
  82.5373764  59.0527878   4.5168056  37.4907112   1.1345973  87.1720963
  37.0277672   1.1312470  88.0098953  37.1047134   1.8646427  86.6880798
   6.1486273  51.0562668  44.6323166   7.0940270  51.2051315  44.6152382
   5.7790847  51.8948212  44.9089012   6.3543510  10.1272001  11.5889063
   6.8574595  10.4941502  12.3158588   5.9361448   9.3484087  11.9560833
  34.1001472  43.6517868   9.0313425  34.5810432  44.4163437   8.7144461
  34.6871872  42.9140778   8.8658142  76.7513885  68.8464890  56.7061882
  77.1426315  68.4333878  55.9364433  77.0512543  68.3134384  57.4425125
  75.4666595   0.9594325  71.9677658  76.2765884   1.4432203  71.8058853
  75.5335693   0.1861156  71.4076385  44.7340736  45.2438087   6.2510781
  44.6802216  45.7244797   7.0770864  45.6031036  45.4528351   5.9085450
  78.2352676  31.7272797   9.7574434  78.1102829  32.6521263   9.5446796
  79.1123886  31.6855755  10.1384344  52.3073730  45.3633385  86.2666626
  52.4729080  45.8654900  85.4687424  53.1592484  44.9929276  86.4976044
  51.9706993   2.8420591  64.3292007  52.7837677   3.2668242  64.6025543
  51.8493462   3.1190646  63.4210281  45.3645363  30.7848091  77.5112381
  44.4677582  30.9343700  77.2118149  45.2666931  30.2738743  78.3147354
  54.0828323  47.3018913  15.4419050  54.0992966  46.3718948  15.2159300
  53.4131241  47.6757088  14.8692036  50.2802963  71.4213486  74.3986816
  49.3995018  71.1004105  74.5921478  50.7798767  71.2452545  75.1959534
  12.7936163  23.9589539  11.5030575  12.6314211  23.2306042  10.9035320
  13.7253370  24.1520119  11.3988533  35.7893562  21.7435646  68.4778748
  35.3592796  21.3604412  69.2423935  35.1346474  22.3344650  68.1058197
  53.4296913  40.3796654  71.7551651  53.3480530  40.0392838  70.8642654
  53.7115173  39.6265450  72.2744141  83.1653366  29.5056324  51.8897362
  82.3348389  29.9389057  52.0866661  82.9998627  29.0290394  51.0762825
   0.5971875  22.1430340  62.1536179   0.1041157  21.4265995  62.5534096
   0.2675853  22.9309998  62.5857086  80.7930679  38.5842438  44.2716675
  80.4741364  38.0973206  43.5117874  81.1681061  39.3841972  43.9033585
   3.9683948  20.4839554  47.4081268   3.4226942  20.0235481  46.7705803
   4.6201181  19.8366451  47.6773453  74.5168304   6.3760347  65.2123032
  74.0037918   7.0729547  64.8032455  75.4231720   6.6774087  65.1495056
  52.8754349  41.6674614  88.3108902  53.4907799  41.5589981  87.5857620
  52.2630577  40.9378586  88.2165298  50.4743080   8.7441311  57.3963394
  49.9983902   8.7483339  56.5658455  50.4960289   7.8228779  57.6552811
  17.7665195  41.7100830   1.2830126  17.6898041  42.4847527   0.7260288
  17.0559521  41.1368980   0.9952867  50.5242844  61.9244118  46.2998581
  50.0648155  61.3739395  46.9339676  49.8445930  62.4950104  45.9411545
   3.1539626  25.4079990  52.9231606   2.9960182  26.1927071  52.3982620
   3.9113057  25.6304607  53.4646149  24.2115383  34.2459412  70.7143402
  23.6598663  33.4948044  70.4959793  24.2518311  34.7566299  69.9057541
  28.5821819  57.7911568  83.0334854  28.1273785  58.5608559  82.6914978
  28.0468521  57.0504837  82.7487869   8.3376598  63.6493759   5.5766535
   8.0917940  62.8591118   5.0957551   7.9495149  63.5325623   6.4437923
  78.8871155   7.0118871  52.5799904  78.8144684   6.1320329  52.9498672
  78.0072556   7.2103977  52.2595558  79.6842346  40.8045807   5.0816436
  78.7931595  40.5002747   5.2537074  79.9294968  40.3761063   4.2615891
   9.5617104  42.6448212  43.0357742   9.8136816  43.4375267  42.5621071
  10.3526268  42.1056786  43.0382347  41.7219925  70.0442886  39.4442139
  41.2636795  70.3402405  38.6577072  42.4051628  69.4589157  39.1173401
  11.0590172  68.6924133  35.6142998  11.3328218  69.6082993  35.5651550
  10.1024790  68.7279510  35.6123047  18.2782822  26.7634392  81.2336807
  18.9285526  26.0699387  81.1221619  18.6612148  27.5235233  80.7956467
  81.8153992   1.7635721  68.4958344  81.4749832   1.4563545  69.3360519
  81.0374756   1.8801054  67.9504089  61.6524773  40.1259041  65.3992081
  62.0967903  40.7986183  65.9152222  61.7969131  39.3152847  65.8873291
  80.5367889  60.4938583  29.6807995  79.7315140  60.3230324  30.1692371
  80.7660751  59.6488800  29.2939167  64.2488632  31.4770260  24.0938148
  63.7697983  31.2726555  23.2907200  63.6359520  31.2668819  24.7983799
  15.3605709   1.8953236  25.7623100  14.6642275   2.5493085  25.8226547
  15.5236845   1.6347969  26.6688156  43.7763443   0.7888510  83.6275024
  44.6205864   1.1352785  83.9164200  43.2689476   0.6915491  84.4332962
  28.8080120  55.2444801  40.8412857  29.2528477  55.3567581  41.6813698
  29.4580860  55.5060501  40.1892014  57.0978699  47.8925705  41.9787064
  56.4383698  47.6465912  42.6273880  57.9224930  47.5681915  42.3406525
  48.6107521  48.4098549  71.6571121  48.9987411  49.2292366  71.9642105
  49.1844864  48.1249580  70.9458466  51.7010231  16.1183510  85.4167480
  51.0998840  15.7019148  84.7991333  52.5030479  15.5992575  85.3573303
  73.4814148  38.4825401  17.2939663  74.4304504  38.5455093  17.4016705
  73.3202972  38.7935829  16.4031658  75.7480392  69.2318192  74.4351730
  76.2505875  69.0853119  73.6337891  76.3536224  69.0081558  75.1419067
  81.1651306  40.5652924  85.7517090  81.9242783  40.1097145  86.1155396
  81.5065155  41.0246391  84.9844513  61.5851402  34.8795738  83.2116623
  61.1853905  34.5316162  82.4145737  61.6786156  34.1185226  83.7846298
  51.4837418  36.8785095  89.0216751  51.7541351  36.0374489  89.3900986
  51.7291794  36.8253822  88.0979996  86.0657578  52.1104851  24.8723278
  86.6172714  52.1651077  24.0918922  85.9403534  51.1718369  25.0117760
  42.9264679  43.1543159  83.1829224  43.0596733  42.5038490  83.8724060
  43.2371445  43.9752045  83.5648270  22.2860336  67.7758102  74.1238480
  22.7153740  68.5420761  73.7434006  21.3741570  67.8474884  73.8417587
  30.4899368  55.8659248  11.6219549  30.1497231  55.0062370  11.8697929
  30.6381435  55.8019562  10.6784649  77.7818756  18.4502621  61.1237946
  78.6377411  18.1696701  61.4478226  77.8725281  18.4434357  60.1709175
   0.5195101  14.9440651  20.8912621   1.0154009  15.0401134  21.7043419
   0.5012137  14.0003958  20.7319298  68.0674286  55.6541862  47.0339470
  68.5237274  55.7995148  46.2051468  67.1997681  56.0354805  46.8997345
  72.9468994  35.9396706  48.2297516  72.2725677  35.3507957  48.5684853
  73.4044800  36.2536316  49.0096703  48.4676056   8.7992039  66.5825958
  47.5731277   8.6430273  66.8855057  48.4681854   9.7133551  66.2987671
  61.7027283  71.6171341  75.0963821  61.6011543  71.0315323  75.8467026
  60.8067169  71.8140717  74.8232422  11.2415504  52.4006920  14.1697292
  10.7145634  51.9269638  14.8132334  10.6636591  52.4997330  13.4131155
  68.4498596  15.3828754  84.7439423  69.1250153  15.2404099  85.4073486
  68.8974228  15.8603411  84.0454102  74.1144562   0.8152331  55.6326027
  74.5528870   0.2437676  56.2630272  73.1979599   0.5401661  55.6569824
  23.9147701  58.1395302  15.7212582  24.2585926  58.8651314  15.2001801
  24.4623871  58.1278114  16.5062485  77.2772903  10.5097322  87.6057739
  77.6650009  11.1154966  86.9741364  77.6700974  10.7537394  88.4438629
  67.6692581  11.4387321  63.5798950  67.3677979  11.5804014  64.4772720
  68.6090851  11.6174135  63.6119270  40.3296967  48.2963104  23.4411125
  41.0123940  48.7792587  23.9068508  40.5840378  47.3776779  23.5286102
  60.6965103  61.4381981  67.1855621  60.4691544  60.6539879  67.6851120
  61.6501160  61.4055481  67.1093826  30.3001194  12.8758307  67.1574402
  30.9212151  12.1503754  67.2221375  29.6381359  12.6843443  67.8217773
  69.6697922  34.8465729  81.9286804  69.3798523  33.9344521  81.9144669
  69.1830215  35.2413750  82.6521606  23.4235649  22.1414413   1.3359828
  23.8175278  21.9027576   0.4969022  23.0683193  23.0186825   1.1928790
  25.9730434  25.1330223  88.6876755  25.5773182  25.8190289  89.2252960
  26.3255787  24.5067253  89.3199005  75.1190186  39.2101326  38.2123260
  75.6977386  39.3172607  37.4574471  75.6508255  38.7442818  38.8576202
  85.0737915  66.0937195  75.7771530  85.1196976  65.1376343  75.7726517
  85.9185791  66.3724060  76.1305771  48.6138420  66.9251556  11.6339960
  49.3032990  67.4111862  11.1816092  48.1692123  66.4383087  10.9400845
  76.3958206  25.4759064  18.4977474  76.9773636  26.0875301  18.0461369
  76.6465225  25.5429955  19.4190941  12.8659401  56.8887215  57.2001762
  12.6429319  55.9633255  57.0994606  12.2072687  57.3515549  56.6823235
  38.4475250  60.4048538  12.0446205  37.6981010  59.8881340  11.7486591
  38.5216942  61.1095543  11.4010963  27.8447590  63.4595871  24.9240856
  28.7811260  63.4990807  24.7294331  27.4182453  63.6028748  24.0792255
  71.6912460  35.6760254  58.3813896  72.1954880  35.3371353  57.6417122
  71.1126175  36.3337097  57.9955559   2.8895981  59.6165009  86.2121277
   2.2555311  60.0192719  86.8053970   2.5126023  58.7618904  86.0029678
  64.2005692  48.0758095  67.9480438  63.3878632  47.9764099  68.4438858
  64.0307617  48.8068352  67.3539047   6.0164900  25.4620094   9.6449003
   5.1760554  25.0079327   9.7058516   5.9751878  26.1345997  10.3247156
   4.6698194  64.7362213  54.1306610   5.6018410  64.5394897  54.2248001
   4.5863347  65.6446915  54.4204025  20.1446877  46.1035271  12.6363897
  20.0174007  45.3575325  13.2224960  20.9703636  46.4944725  12.9221382
  64.2420959  30.9245491   0.9355795  64.3404999  31.0496540   1.8794526
  63.3547440  30.5812607   0.8307018   4.1491170  42.2576065  46.2856445
   3.2681201  42.4130363  45.9451752   4.0141420  41.7070274  47.0569267
  81.7711487  63.8464050  70.6732330  82.5207520  63.5585518  70.1522064
  82.1445312  64.4461288  71.3190994  23.1912346  36.3801651  30.5070667
  22.8098240  36.9777374  29.8639011  22.4408092  35.9135933  30.8750420
  69.9322205   7.1478496  12.1715345  70.2722549   7.9459310  12.5761032
  70.2683640   7.1715364  11.2756100  69.1727448  52.5901413  18.0594158
  70.0507278  52.9182358  17.8651657  68.5932541  53.1153831  17.5075665
  84.4319916  50.7790833  53.4980583  85.2172928  50.4456787  53.9320869
  84.4552460  50.3858261  52.6256790  60.0793991   4.9352360  43.4122353
  60.1252289   5.7410040  42.8975792  60.0811844   4.2342768  42.7604027
  14.2110395   9.4553032  62.3655090  14.2717676   9.9500952  61.5483627
  14.6026201  10.0300598  63.0231934  45.6578712  36.6568947  88.1271362
  45.1327629  35.9635048  88.5267639  45.2845993  36.7661362  87.2525101
  62.8984756  48.5975037  36.6667252  63.3740501  49.0883980  35.9965935
  62.3760147  47.9644241  36.1743050  30.9844971  16.6340256  74.2399979
  31.0485706  17.2032433  75.0068893  30.3550797  15.9592609  74.4944763
  26.5965023  65.1049957  10.7403526  27.4293365  64.9173737  10.3074331
  25.9340553  64.7398758  10.1537676  20.1757336   9.8097973  18.4718590
  20.4867096   9.5047665  19.3241978  20.9730949   9.9398508  17.9585056
  58.0632477  52.7054214  46.0880814  57.4599953  52.8033829  46.8247795
  57.4992065  52.5012703  45.3421516   5.8376794  25.6814537  51.0224648
   5.9853363  26.6147423  50.8694878   6.1003056  25.5434246  51.9325218
  12.7936974  24.1554050  22.0987473  13.6585779  23.7823696  22.2692165
  12.9146652  25.0989742  22.2049351  41.5367966  36.4729156  10.6882877
  42.3755493  36.0272522  10.5695200  40.9876060  36.1433182   9.9769592
  62.9434052  50.2167282  39.0655861  63.1841888  49.5920448  38.3814583
  62.7208824  51.0176735  38.5910339  71.6117172  65.1943054  23.3033943
  71.1229935  65.8355484  23.8193302  70.9733124  64.5089111  23.1061554
  83.2767563  13.3588467  76.5305634  82.5578156  13.9907894  76.5305481
  83.8233261  13.6178637  75.7886734  62.3118286  15.9434481  55.3273239
  63.0959854  16.3779659  55.6627731  62.4786720  15.8377972  54.3907166
  34.2372055  48.2991791  55.9185028  33.5357323  48.8691559  56.2336082
  34.5320625  48.7093277  55.1054420  86.2462769  52.2045631  85.7913284
  85.6390915  52.4491119  85.0929260  86.1169128  52.8715363  86.4655991
  54.4007416  40.0093994  33.8955841  54.9185333  39.2084694  33.9770203
  55.0438614  40.7165565  33.9461594  41.4212379  43.1114998  80.6647263
  40.5738869  43.3790283  81.0206223  42.0130348  43.1283760  81.4168625
  13.7944155  29.7703838  57.6832352  13.1360855  29.9885941  58.3429451
  13.3529243  29.9169483  56.8466721  71.5840302  60.5150566  72.9822311
  72.3564453  60.2837601  73.4980927  70.9397812  60.8000908  73.6302567
  24.7207394  63.7189560  83.3711014  25.1830902  63.6131859  82.5396652
  23.8004684  63.5698776  83.1540527  28.1436729  63.2590103  43.8800468
  27.2744713  63.5688057  44.1344986  28.5226955  62.9172668  44.6898499
  31.9754639  62.8290367  48.6840248  32.4002151  63.6831551  48.7634010
  31.6433430  62.8091927  47.7865105  68.6562119  27.9820671  61.1428452
  67.8249207  28.0479298  61.6127892  69.2340469  28.6000652  61.5905228
  36.5528145  71.1894150  13.7899933  35.8236427  70.9777298  13.2071285
  36.7193375  72.1195526  13.6371937  65.0738373  66.5406570  28.4717369
  64.3820038  66.6269684  27.8158798  65.0174866  65.6299210  28.7608891
  50.0508347   8.1778278  64.1472702  49.9822121   9.0587158  63.7790871
  49.1459122   7.8712296  64.2050705  53.2780609  63.4544678  37.2385025
  54.1728973  63.2833099  36.9449043  52.9962502  64.2086563  36.7207947
  58.8485870  28.6171970  79.3885498  59.3083992  28.8491268  78.5816956
  58.1147346  29.2303143  79.4307251  67.7365417  19.9213085  49.9722023
  67.9619522  19.3858166  50.7329025  67.1636810  19.3624096  49.4471397
  49.1019745  16.0408669  36.1084366  48.9356651  16.0445290  35.1658020
  48.2372894  15.9301281  36.5037727  63.2139206  38.8077621  21.9287605
  63.1746979  38.0571671  21.3360558  63.5418510  38.4459610  22.7520428
  50.1020622  44.5939407  58.4211731  50.2144432  45.4110222  57.9353943
  49.5289803  44.0632210  57.8678665   8.4364719  67.3065109  39.5240631
   8.2779417  68.1046677  40.0280952   9.2751245  66.9799805  39.8500595
   4.9258056  17.7380428  74.1568604   4.7179270  18.0197182  75.0477448
   4.1576548  17.9853802  73.6420746   0.4345408  29.0194263  53.7259026
  -0.1105719  29.6917915  53.3172340   0.2940210  28.2388248  53.1900444
  51.0520668  13.6675167  11.8711853  50.8989601  14.0448351  12.7374544
  52.0051918  13.6298981  11.7913761  57.6426964  13.2838821  44.9735527
  56.8720589  13.7875261  44.7114487  57.6389542  13.3207169  45.9300346
  55.1132736  29.7381172  72.2492447  55.4302711  30.6392498  72.3100967
  54.7909889  29.6576939  71.3515244  78.2128601  45.9258919  14.0042324
  78.9027252  45.2720566  14.1174297  78.6777878  46.7230949  13.7501764
  10.2932673   0.9517214  33.2502098   9.9433308   0.2154284  32.7485619
  10.1322756   0.7169600  34.1641006  19.7173214  58.2536697   4.1770816
  19.0645332  58.8228798   3.7695291  20.4702244  58.8244095   4.3307929
  35.9315643   6.3978319  86.5512848  35.6344223   6.5400362  85.6525497
  36.3213158   5.5236592  86.5391998  41.3042412  50.3770981  19.9206314
  40.6752129  49.6676941  20.0521793  41.3531189  50.4807129  18.9703121
   0.2286505  56.7610588  45.1748314   0.4550966  56.9575729  44.2658005
  -0.6306710  56.3426552  45.1225204  61.2000542  27.2848549  51.9005394
  61.0404091  26.3527069  52.0483475  60.6479683  27.5064507  51.1506538
  82.2662582  27.2288265  16.4326305  82.5000458  27.2532234  17.3605194
  81.5509338  26.5947762  16.3824539   5.6786928  32.3091011  18.9996529
   5.4749017  32.3387566  18.0648689   5.6196933  33.2203484  19.2866783
  71.6585388  69.5319290  84.5518112  72.4269638  69.6987915  85.0976257
  71.0080338  69.1752090  85.1566467  86.4471588  31.6515331  86.9255371
  87.2419510  32.1186981  87.1830139  86.0223007  32.2317696  86.2938309
  83.2433014  26.9072380  19.3628597  83.2922211  27.7754650  19.7628860
  82.9736176  26.3294525  20.0767708  48.5752296  16.1460857  84.7432327
  48.9433746  16.9994221  84.9724121  48.0494919  16.3142586  83.9612198
  48.9303932  39.4721489  55.9634590  49.2174492  38.5700836  56.1052589
  49.4279785  39.7646027  55.1998405  56.3409157  68.7171783  79.1723328
  56.6332321  69.5809250  78.8812714  56.5607300  68.1328583  78.4467392
  69.5745392  69.8568573  66.9796066  69.6238632  70.8127670  66.9733734
  68.6563721  69.6656494  67.1710434  28.2697868  13.4579792  20.6494083
  29.1943779  13.3441324  20.4293995  28.2767620  13.9875650  21.4467297
  45.2685242  33.6571159   8.3888836  45.7877274  34.4511642   8.5159559
  45.7485275  32.9785576   8.8636389  33.4690094  25.3173943   5.5674300
  34.1913681  25.6461620   6.1025419  33.8596535  25.1611538   4.7076516
   7.4364114  27.0229530  73.8732224   8.0507469  26.8799381  73.1532440
   6.9349265  26.2093029  73.9253693  67.7132568   9.3164158  79.3944092
  66.9731445   9.6457672  78.8845215  67.9428177   8.4871073  78.9751511
  17.1895390  69.0066986  49.8290367  16.7629452  68.3625336  50.3941040
  17.7614803  68.4877625  49.2635117  53.3898010  52.3665848  46.9715996
  52.5408936  52.1260338  46.6004906  53.2226372  53.1829567  47.4425812
  52.1551666  13.7414265   3.1134508  51.5101585  13.9122391   3.7997565
  52.7903137  13.1537056   3.5226049  76.9118958  70.7997513  42.6553497
  76.1515732  70.7727966  42.0744743  76.6883392  70.2038574  43.3703079
  72.0402985  28.5139351  35.1770744  72.1417465  29.4049072  34.8422432
  71.4771194  28.6093922  35.9451523  15.4315901  22.2600899   3.4271927
  16.2362404  21.9617424   3.0032132  15.7030134  23.0116482   3.9541864
  84.5338440  54.6465797  57.2169609  83.8999405  53.9382477  57.3294792
  85.2082596  54.2762375  56.6475296   0.4170523  22.8076096  27.3428898
   1.1946014  23.3575325  27.4389839  -0.2271846  23.3754845  26.9201508
  82.7213058  27.4632416  87.0316238  83.4398270  28.0783939  87.1784210
  81.9529877  27.9003448  87.3988647  51.4616280  59.6831055  19.2032223
  51.0054893  60.4073105  19.6318188  51.8658638  60.0782852  18.4307842
  63.7879562  58.9402122  23.2228565  63.1049805  59.5953217  23.3664246
  64.3416214  59.3173141  22.5391273  63.0267715  47.8568344  79.4269485
  62.2391624  48.2886429  79.7577820  63.5485039  47.6781235  80.2093124
  66.3745499  71.2879715  75.1521835  65.6246338  70.7064743  75.2775497
  67.0311966  70.9688644  75.7712326  36.7052650  47.7613144  86.6889572
  36.6094933  48.6817741  86.9335327  36.4706802  47.7343063  85.7613449
  55.7747726  21.8835049  52.1357040  56.1410637  21.0399494  52.4011803
  55.6300621  22.3512897  52.9581795  25.2695084   2.0521276  85.7740402
  24.9876022   2.9581759  85.6481934  25.5030670   1.7498556  84.8963699
  69.9971161  45.6600304  67.6278534  69.1009216  45.5148430  67.3245392
  70.4869003  44.9071426  67.2969360  52.9703636  67.2893982  75.6915283
  52.9655457  67.9102173  76.4200821  52.6305847  66.4770432  76.0668335
  42.3324738  50.7087708  35.0378952  42.9825630  50.0811615  35.3536720
  41.7726135  50.1993561  34.4519882  22.6043930  52.3301926  40.0836716
  21.8521061  52.2859612  39.4934654  23.0984745  51.5306892  39.9022636
   4.0521216  50.2845383   9.6260166   4.3721633  50.4596748   8.7410688
   4.2729836  49.3665390   9.7832804  61.6359291  67.3422318  60.9962044
  61.0577011  67.4123535  60.2366219  62.5184097  67.4177322  60.6332130
  83.1500854  20.2197723  66.3118286  83.2518845  19.2762146  66.4365921
  83.9576340  20.5961380  66.6617584  26.0282402   0.8488977  69.6184311
  26.4855175   0.0605091  69.9109573  25.6307049   0.5995618  68.7841492
  67.9866943  23.5532703  38.5875626  68.7646637  23.0470715  38.3535538
  67.6984634  23.1784573  39.4198303  18.7321587  67.8134918   2.7751563
  18.6061363  68.5534134   3.3691838  19.5804615  67.4473419   3.0252547
   4.0162005  28.6379986  81.3675613   4.0372891  29.1365414  80.5507126
   4.2300024  27.7421131  81.1069641  55.9259415  26.7293301  67.5972214
  55.0242004  26.8866291  67.8771515  55.8429375  26.3621941  66.7171402
  81.7435608  57.1795425  19.9700680  82.6018600  56.7932358  20.1441879
  81.8055649  58.0684052  20.3198013  67.3660202  49.2261086   6.1551070
  68.3056335  49.3473053   6.2917585  67.2670059  49.1739502   5.2044711
   1.0549875  12.3039608  85.7144241   0.6432452  12.7343884  84.9651413
   1.6862837  12.9447784  86.0416107  78.8909531  44.8851624  71.4533997
  79.4990005  45.0846519  70.7415619  79.3458633  45.1732559  72.2447815
  36.4814606  35.3002396  67.2268143  36.6144409  36.1703491  66.8507080
  37.3534851  35.0263329  67.5110321  26.3648758  54.6212769   0.1455077
  26.3326530  54.3213501   1.0539339  26.4848557  53.8215637  -0.3666403
  36.1978264  63.6502342  87.3296661  36.0889359  64.1534958  88.1365738
  36.0505371  62.7416458  87.5923538  44.2945175  25.1650352  80.5148315
  44.5272522  24.8757858  81.3971024  44.1933327  24.3544331  80.0159149
  40.1836433   8.8208323  11.4677191  40.6882095   8.9898186  10.6720505
  40.2524109   9.6317129  11.9716797  46.6399040  16.5646706  17.8526134
  46.5871773  17.2631874  17.2002888  47.3544312  16.8307953  18.4312820
  19.8942642  27.5238609  66.3108139  19.8147011  27.1927853  65.4162216
  20.7221413  28.0043068  66.3156509  60.7818489  25.4076500  69.9165802
  61.4568253  26.0393887  69.6684952  60.5968399  25.6031437  70.8351593
  46.8549881  67.4177246  61.6479836  45.9491463  67.6242981  61.8782272
  46.8560066  66.4711838  61.5055008  85.0189743   2.0299125  31.2007656
  84.3116531   2.6657069  31.3088760  84.7512436   1.2809224  31.7332745
  57.2577934  48.4249992  82.3838959  57.3076248  47.8191910  81.6444702
  56.4289780  48.2118835  82.8126984  63.6225815  40.6323471  43.8807983
  63.3825493  41.3876343  43.3439903  64.4561234  40.8786774  44.2817459
   4.7284350  70.1315689  36.0545959   5.3529677  70.8414917  35.9056015
   4.0139627  70.3087540  35.4427414   5.8980069  66.0571747  45.6465187
   5.0235043  65.8364487  45.3259583   5.7581019  66.3358154  46.5515137
  59.9762726  40.6390839  68.7126083  59.0579224  40.6421280  68.9825211
  60.3640785  39.9062691  69.1909637   3.8591247  64.8191833  47.6323433
   4.0837159  63.9098206  47.8294296   4.1002235  65.3021622  48.4228096
  48.7546577   5.8727226  50.2709160  49.2015724   5.0488997  50.4653778
  49.2848396   6.5410910  50.7049942  32.7620544  40.7496109  71.3765945
  31.9109344  40.4176292  71.0909119  33.3540840  40.5452995  70.6527252
  76.5468292  39.8087959   9.7619629  76.3817215  38.9963799  10.2404566
  77.2936020  40.2041245  10.2117205  77.0284500   4.5769820  84.9045334
  77.3904114   4.1351051  85.6726227  76.0819931   4.4577365  84.9834747
  54.7397041  19.5511932  74.1458893  55.6357079  19.8603420  74.2794647
  54.5303726  19.0703411  74.9466400  33.1875534  38.2885284  62.6626358
  32.7459831  37.6295433  63.1983452  34.0176697  37.8802757  62.4167213
  26.8190994  28.1975708  56.9832993  26.8150826  28.5379581  56.0886765
  27.3267422  28.8384323  57.4811211  36.1207047  27.3982944  72.3078308
  35.6707268  27.7058887  71.5209808  35.7891464  26.5103874  72.4417038
  55.0125275  66.1299438  70.1481705  54.2051926  65.8485336  69.7177658
  55.4931374  65.3181381  70.3101044  78.5585632  26.7501087  17.3725319
  78.9893265  27.3503151  17.9811649  79.2115021  26.0708790  17.2035637
  19.1393661  26.5784416   7.8600860  19.5580959  25.7283821   7.7248278
  19.5513649  27.1536655   7.2154093   1.2235998  65.1683044  64.4375687
   0.4698358  65.1868057  63.8478851   0.9994634  65.7874680  65.1322861
  73.9116440  14.0112658  32.2476883  73.1517410  13.4371920  32.1516685
  73.6723404  14.6089029  32.9560661  77.8408127   3.3840406  78.6218872
  78.0504456   2.8015327  77.8918457  78.4182281   4.1377311  78.5003586
  63.7803001  29.6178493  57.8662453  63.3419762  29.2541313  57.0969505
  63.6918564  28.9392376  58.5354958  17.1102295   2.8055005  48.6401711
  17.5233574   2.6268866  49.4849510  17.0334091   1.9465735  48.2247467
  63.3859940  66.7309341  82.9873352  62.8406715  66.2257080  82.3843384
  63.1561089  67.6432419  82.8110428  83.1420288  44.4218864  78.6032028
  83.0795135  43.6172066  79.1178055  82.6988831  45.0820503  79.1361542
  34.6425591  14.0819693  73.0562820  35.2589149  14.5369329  72.4823914
  35.1259079  13.9525442  73.8722839  29.1819363  56.5652466  43.2365227
  29.2688713  57.3458633  42.6894302  28.6689739  56.8568993  43.9902077
  48.9760284  12.5453043  22.4823513  49.8128891  12.2833252  22.0986042
  48.5137711  12.9871330  21.7700748  71.8491058  46.6474113  46.1796646
  72.1855011  47.4942741  45.8865929  71.3943100  46.8410263  46.9993668
  33.6914749  65.2042694  47.1849823  33.0740585  65.7723236  46.7241821
  34.1282120  64.7116928  46.4901009  23.7018738  42.0774879  51.0217018
  23.5532055  42.2130775  50.0858879  22.8257999  41.9589577  51.3886871
  39.6500893  47.7804146  70.5098267  40.0054054  47.9599342  71.3803177
  40.0335541  46.9386749  70.2635269  73.3532333  45.9973602  22.0893021
  74.0618515  46.6408424  22.0934925  72.8364334  46.2152367  21.3136196
  31.6899490  67.9916000  83.4918518  31.2598171  68.7065277  83.0227051
  32.5725670  67.9597626  83.1227875  10.6803350  26.6906013  79.6061172
  11.4804668  26.6232166  79.0850754   9.9809685  26.4330959  79.0054474
  46.1913910  15.0848970   2.5087876  45.7117043  14.9539566   3.3267045
  46.4435883  14.2029772   2.2352090  62.6623230  45.3944244   7.2508559
  63.2334061  46.1600685   7.1885185  62.9686203  44.9299431   8.0297470
  50.7187767   0.8048131  36.5666389  50.6620255   0.4529922  37.4550247
  50.8335457   0.0341105  36.0106926  82.9174957  34.1891022   9.5022631
  83.0505676  35.0167809   9.9642954  82.6482391  34.4474602   8.6207962
  75.6021042  36.0969467  78.5731735  75.5973511  35.2938576  79.0940018
  76.3055344  35.9659157  77.9373627  16.7477436   1.3730755  51.1165352
  17.0749416   2.0760095  51.6778336  17.3188839   0.6289429  51.3070564
  71.6620865  29.7079048  71.5262604  71.7848663  29.3600178  70.6430130
  70.7154541  29.6797733  71.6653137  49.5821304  19.6251297  27.8789921
  48.8775177  19.1239452  28.2895641  49.2579803  19.8174992  26.9991322
  28.0987339   2.9627306  32.6588783  28.7159042   3.0473714  31.9321251
  28.1148796   2.0314634  32.8795853  12.8462362  53.4073639  29.7349129
  12.7504110  52.4667816  29.8844185  11.9523935  53.7479134  29.7710361
  39.4568748  24.1336746  83.1278992  39.3692513  24.8458138  82.4943237
  39.2620544  24.5393677  83.9726944  13.7720690  48.4392738   4.1791406
  14.2268410  48.3186035   3.3455620  14.1234274  47.7521019   4.7453356
  44.1463814  33.2285767  14.9405956  44.4723320  32.4101295  15.3149357
  44.8489952  33.8597107  15.0962639  51.0374489  50.1800385  84.8610764
  50.5913544  49.8866234  84.0666351  50.7436600  51.0830956  84.9810944
  60.0669746  15.5384970  12.6021690  59.9046898  16.2522316  13.2189980
  59.6976280  14.7650394  13.0282917  34.5655670  70.8387299  72.0586243
  35.4550095  70.5386124  71.8713989  34.5847931  71.0822449  72.9841309
  43.8002243  40.5830193  10.6487503  44.2787971  40.4350586   9.8330860
  44.2466469  41.3247070  11.0572071  82.8184509  34.5089188  54.2746010
  83.3947296  34.6242409  53.5190697  81.9675369  34.2888947  53.8954315
  13.1477671  15.0907669   4.3613982  12.4750910  14.5326910   4.7516418
  13.3779469  15.7090702   5.0549035   9.3196058  19.6110725  29.1736088
   9.5149240  20.1106491  29.9663944   9.4584312  18.6981125  29.4255276
  58.1669350  66.2376709  79.4362488  58.3800316  65.9317551  80.3178635
  57.5494652  65.5880966  79.1000595  86.2013702  65.3225327  85.0146942
  86.7506180  65.0039902  84.2983932  86.8212204  65.6747894  85.6533966
  41.8444061   5.2418194  69.6562729  42.2024193   5.6963468  70.4188080
  40.9017181   5.4010534  69.7033005  77.6423340  25.3626976   3.9622030
  78.5049973  25.6664886   4.2446179  77.4977188  25.7991543   3.1226659
  11.1828909   9.0209627  57.1428032  10.7278509   8.1844158  57.0460587
  11.9058723   8.8325548  57.7411613  34.0687218  11.4874163   7.8307538
  34.2137604  12.1368141   8.5188513  34.3400230  11.9274168   7.0251327
  53.7220993  29.1568317  14.5334330  53.3503761  29.1043129  13.6529236
  53.0580292  29.6170425  15.0467052  56.2353706  54.3609772   7.6292019
  55.4327698  54.7616386   7.9631705  56.9293556  54.9714012   7.8781981
  65.7059631  43.2115135  37.5337639  65.0038071  42.9012566  38.1055527
  66.2872391  42.4571648  37.4373016  65.4354630  30.1914368  41.7271156
  64.8449402  29.5616970  42.1405716  65.3768921  30.9720631  42.2779541
  38.5233955  65.0843353   8.6813593  38.6703186  65.8894730   9.1777506
  37.7549438  65.2720947   8.1424131  85.4923859  50.7634048  57.4099159
  85.8342667  49.9302750  57.7343330  84.7179260  50.9299965  57.9472084
  44.9645233  28.6693954  36.1879578  45.3275528  28.5689487  37.0679321
  44.1075172  29.0724373  36.3269882  81.6662140  31.4908981   9.9486284
  82.3162155  30.9896507  10.4410543  81.9094467  32.4053764  10.0928545
  62.2362938  29.1672764   0.5528913  62.2931290  29.2957611  -0.3939423
  61.7107391  28.3739109   0.6558211  73.2509460  33.1865044  85.4423294
  73.5974808  32.8160286  84.6306076  73.2286530  34.1303368  85.2844696
  57.1171532   2.8786769  29.9770470  57.8177719   2.9987993  30.6180916
  57.1935425   3.6342266  29.3943462  77.6325607  48.5190353  85.8550720
  78.1681137  47.7294922  85.7773514  77.0627518  48.4985847  85.0862198
  74.5461960  27.3390026  35.1546860  73.7328873  27.7044582  35.5028229
  74.6884079  27.8102112  34.3337288   4.3800044  18.3094082   0.5975479
   4.6448922  17.6150970   1.2008721   3.5791399  18.6671124   0.9808175
  60.2186508   8.0844364  76.2144623  60.5542679   7.9578748  77.1019211
  60.4455566   7.2759466  75.7550201  57.7298813  54.7759209  44.0783081
  57.7728806  54.5543442  43.1480980  57.0358696  54.2158928  44.4260864
  83.3029556  28.7688408  49.3536415  83.3652725  29.6874886  49.0920448
  82.6413345  28.3978958  48.7697830  52.2022858  69.1677933  39.4570351
  51.5392723  69.4313660  38.8189316  52.5326653  69.9923706  39.8136292
   2.7995496  50.9110031  75.4744263   1.9040111  50.5976257  75.3477783
   3.3250062  50.1137619  75.5417709   0.1687233  13.6334276  73.3029099
   0.6959416  13.6064186  74.1013718   0.3039695  12.7769289  72.8975067
  59.5941010   3.3509109  84.1866837  58.9664421   3.7567890  83.5887375
  60.3573570   3.1621170  83.6407623  10.2019567  33.0721817  69.3814926
   9.9223108  32.1931915  69.1257477  10.9479113  32.9263954  69.9633255
  84.5285263   3.3894374   9.2044201  85.0670395   4.1763978   9.1211815
  84.5997543   2.9592409   8.3523111  11.9794245  28.5958652  84.3288116
  12.7898197  28.1012154  84.2071075  12.2532034  29.3987904  84.7721939
  50.5418015  70.3987274  79.6075821  49.8705025  71.0374603  79.3675613
  50.8101959  70.6535950  80.4903336  39.2464714  21.1791859  11.0419340
  38.8106956  21.9462147  10.6704550  39.1376610  21.2766228  11.9879246
  17.5923519  48.9949989  62.4140701  17.6819553  48.0506248  62.2861710
  17.9357224  49.1512032  63.2938004  36.7145653   3.3721888  29.9676113
  35.8724518   3.7189474  30.2622929  37.1044388   4.0863361  29.4634056
  31.0611534  47.3430748  32.5403938  30.3645706  47.7027550  33.0896034
  31.7037067  47.0009956  33.1619568  28.5339146   7.7001367  80.9982300
  29.3275280   8.2308702  80.9294434  27.9381275   8.2279606  81.5298996
  77.4862823   3.1401103  10.3236294  77.6392899   2.2014377  10.4318638
  76.8603973   3.3618257  11.0130787  38.8765182  40.3546028  23.8894272
  39.1060486  39.5525093  23.4201756  39.5927200  40.4813271  24.5117035
  60.0853729  22.6946850  79.4517899  60.2743988  23.4237881  80.0424728
  60.8574791  22.6359386  78.8890915  55.6054306  10.1515865  23.9660835
  55.4422417  10.9560652  23.4737263  54.7532959   9.7172794  24.0045280
  34.8214760  68.1498337  13.5547962  34.2604218  67.4694290  13.9269629
  35.6701965  67.7229538  13.4378338  39.7594795  12.0211554  73.3089142
  39.3948708  12.4855213  74.0623474  39.7527084  11.1000156  73.5690842
  50.3905983  69.4698792  86.0364914  51.2145348  69.8201523  85.6978683
  50.0853500  68.8729401  85.3533249  57.7642212  19.1748772  73.4628830
  57.3489609  18.3155270  73.3900223  57.5588684  19.6110039  72.6359253
  68.0212936  13.1048555  87.5403137  68.3402176  12.3469362  87.0503387
  68.6778183  13.7839193  87.3851395  58.6825066  36.0270386   9.8754196
  58.6719704  35.1592674   9.4715691  58.1503067  36.5688400   9.2928009
  26.2436752  62.3416328  41.8885231  26.6551647  61.8663635  41.1667023
  26.9767666  62.6480026  42.4223289  83.7422104  22.2868118  39.2515984
  83.0794296  21.8090820  38.7528648  83.3283157  22.4577312  40.0975952
  65.9938583  16.2242908  83.9968796  66.7618942  15.9250927  84.4835281
  65.7958069  15.5055876  83.3964844   2.3303871  23.1674919  74.3365707
   2.8583167  22.8101273  73.6225586   2.0610056  22.4007168  74.8422546
   6.0683341  22.9026527  62.2419662   5.4420447  22.5267410  61.6233521
   6.7514005  23.2831516  61.6898155  71.8736267  51.4942589  88.6525421
  72.0811234  52.2879486  88.1593552  71.1558380  51.7523804  89.2307968
  59.9111671  45.5174408  80.6891327  60.1061020  45.8735924  79.8223038
  59.0084076  45.2062302  80.6227341  85.3678360  64.4918137  81.9226151
  84.5291290  64.0511169  81.7863083  85.1442795  65.2888260  82.4032669
  50.0582809   5.0505285  44.4622841  50.9498787   5.0019979  44.1174240
  49.7368813   5.9054422  44.1758270  39.0082474  52.6632729  46.2793350
  39.3413162  53.0979118  45.4942360  39.3689423  51.7777824  46.2341576
  25.9771729   7.0847077  79.9922409  26.8989544   7.2123432  80.2164307
  25.9415932   7.2108955  79.0440598  52.1562080  21.6420479  31.4906216
  52.1382179  22.2092438  30.7197781  52.1475372  22.2463531  32.2328949
  22.5572948   6.6890259  82.6645203  21.6994724   7.0758896  82.4892807
  23.1777573   7.2772360  82.2340927   9.0160170   6.7897358  60.5555153
   9.8301201   7.2930236  60.5685425   9.1502695   6.1002150  61.2057190
  69.4547501  39.3552132  13.2986641  69.6696548  38.8711128  14.0959682
  69.4115601  40.2697182  13.5780249  71.2474289  63.2246437   3.1158237
  70.4147415  62.7817764   3.2793205  71.0808258  63.7723618   2.3486986
  59.8656082  65.4384918  87.5917206  59.1944046  65.8704605  88.1200409
  60.5836792  66.0702744  87.5534973  46.4141426   2.0290463  83.3515244
  47.1106415   1.5255077  82.9301300  46.8748856   2.6439662  83.9223328
   2.5551481  32.4396858  25.3116627   3.4057817  32.0914001  25.5787792
   2.6400423  32.5822754  24.3689575  20.5316467  63.6343460  87.8782959
  20.3115139  62.7514191  87.5812836  19.9694977  63.7780724  88.6395798
  75.8614960  44.0493774  13.3812904  76.2737656  44.8980141  13.5427999
  74.9564743  44.2622223  13.1535778  80.8569565  59.7876854  17.7274132
  79.9630356  59.4502678  17.6700649  81.3914337  59.0179710  17.9225941
  12.6628942   4.7586207  33.3938332  13.4568272   4.3262181  33.0792999
  12.6923742   5.6301184  32.9990463  78.9367371  41.9332657  72.8604584
  78.4213715  41.2156181  72.4922028  79.7070770  41.9896278  72.2950974
  64.1811447  52.1353111  63.0660286  64.4528351  53.0506630  63.1334915
  64.7912369  51.7501221  62.4370232  27.2877998  18.2685261  29.1626778
  28.1254234  18.6108150  29.4748631  27.0722675  17.5663643  29.7764740
  60.3820038  46.8054733  36.1510773  59.6137695  46.2354507  36.1175652
  60.0545120  47.6646805  35.8850975  38.5115852  67.1272812   3.1285059
  38.2340584  66.4501648   2.5114727  39.3792725  66.8458633   3.4186089
  15.4507236  43.8051949  82.7099762  15.2880220  43.6548767  81.7787552
  14.8681021  43.1912766  83.1570587  41.9688530  19.1486225  17.9569931
  42.8123665  18.9893570  18.3804932  41.6160316  19.9162102  18.4070549
  72.8261185  39.0917473  56.5053711  72.8458405  40.0021553  56.2104073
  73.5735397  39.0159187  57.0985374  68.9863510  38.9175644  60.8613930
  69.1937943  39.8482628  60.7777023  69.3238907  38.5236626  60.0569420
  70.7365341   2.1065013  43.8114052  71.6283722   1.9702322  43.4915733
  70.4220428   2.8693557  43.3262482   4.2261267   6.8005090  42.6378250
   3.8253157   7.0565505  41.8071480   3.4871778   6.6885958  43.2358704
  32.0789871  55.8447037  47.6314507  31.4474125  55.6232719  48.3157845
  31.5589142  56.2841148  46.9586411  73.4276505  14.1141739  88.2638626
  73.4221420  15.0045652  87.9125748  74.1391296  13.6766310  87.7963257
  17.4873886  28.7291927   8.5065327  17.5275936  28.7046871   9.4625740
  18.1450558  28.0942116   8.2227983  82.8846054  32.6272278   1.6013970
  83.6873093  32.2002335   1.3021250  82.8293839  33.4269562   1.0783095
  80.4294052  11.3173637  17.6559696  80.3823471  10.8671064  16.8125935
  81.1735840  11.9129610  17.5683098   6.9781470  58.0731316  31.5032558
   6.5666184  57.3310699  31.0602913   7.5594530  57.6734924  32.1502495
  29.2909126   8.4254665  62.7637787  30.0244007   7.8459845  62.9697571
  29.7009830   9.2132025  62.4066391  11.4686565  54.7594872  65.9083786
  10.8909473  54.1148109  66.3168793  11.8741407  55.2180481  66.6442642
  62.8458595  66.7827301  52.8941002  62.6441765  67.3995056  53.5977631
  62.0924454  66.8355560  52.3060455  39.1133957  62.0144234  10.0516968
  39.4452438  61.4616508   9.3442001  39.7907829  62.6796150  10.1737528
  69.0463791  50.4420547   0.6608543  68.1471863  50.7701378   0.6541466
  69.4949646  50.9859695   1.3082768   2.9576516  18.6768188  53.7779808
   2.3169835  19.1602936  54.2995453   3.6014040  19.3358765  53.5182533
  13.1418152  17.2917099  75.0883560  13.0791292  17.2085686  74.1368332
  13.7163296  16.5737267  75.3541794  54.5923615  43.9580460  34.0112152
  54.7057381  44.6275215  34.6858826  54.5070152  44.4518929  33.1957016
   7.9921122   3.9544871  33.4308815   7.5127192   4.2118573  32.6433678
   8.6529055   4.6378574  33.5430794  37.8587036  45.3099442  55.9331169
  38.1816406  44.8504028  55.1580276  38.5757904  45.2483749  56.5641747
  23.8258991   3.6338005  37.0460815  23.7191677   4.2653103  36.3347206
  24.7068825   3.7983556  37.3822708  60.5497513  45.2685089  55.7753067
  60.0463676  45.4317322  56.5729218  60.2784309  44.3942337  55.4955521
  75.3147812  10.9180231  42.8860970  75.5499878  11.5088997  43.6014786
  74.3827362  10.7432671  43.0163994  40.2484894  17.3937016  12.8769197
  39.4929543  16.8093300  12.9394283  40.4533730  17.6182194  13.7845802
  43.2990036  61.4603195  66.1592789  43.8390045  62.1667137  65.8048172
  42.8043365  61.1362381  65.4066162  84.5271606   8.3852320  87.7623825
  84.7485352   9.0385637  88.4259949  85.3733902   8.0702124  87.4447556
  55.1329079  27.0563011  83.4192123  55.2297745  26.1104755  83.5299377
  55.9446983  27.4228668  83.7697220  47.6352158  56.4871483  83.1261444
  47.0619087  56.1976166  82.4164124  47.2184982  56.1549873  83.9212875
   1.3475899  23.2705059  43.2449875   0.6590375  23.3393440  43.9063416
   2.0386429  22.7630520  43.6706276  70.4395142  45.3919907  44.1249619
  70.9683533  45.9300117  44.7141113  70.8388443  44.5232735  44.1707039
  66.2054367  -0.1258276  86.9553604  65.9859543   0.4495327  87.6881714
  67.1553040  -0.0482424  86.8660812  38.6486473  37.5522919  64.6619415
  38.0840073  38.2531586  64.9878235  38.0435677  36.8541527  64.4115143
  56.0961227  48.4118919  36.6897087  56.4446640  48.0479431  37.5035210
  56.5499878  47.9301910  35.9981918  27.0267372  60.8788681  79.3637161
  27.5914936  61.4320183  78.8239822  26.1432247  61.0464668  79.0357742
  82.4931717  60.7472267  72.2052155  82.8776703  61.4954033  72.6619720
  83.2311630  60.3366051  71.7546692  78.0080032  14.0465231  39.9535141
  78.9081039  14.0427504  39.6278725  77.4718475  13.8838253  39.1774406
  13.7574110  44.7980537  22.7206440  13.8302326  45.2089043  23.5821152
  13.2784538  45.4354820  22.1910038  47.4767647  61.5043564  58.8428307
  47.0078201  60.6857681  58.6808586  47.4304199  61.9755783  58.0109444
  32.4088554  44.9575005  61.5705528  32.4557724  45.2713776  60.6674957
  31.4853268  44.7427902  61.7018166  57.1601524   8.2987394  48.2203827
  57.6946297   9.0271273  47.9041290  56.8275070   8.5958099  49.0673332
   8.0595989  45.2894287  38.1207237   8.1171255  44.3754539  37.8422050
   7.2351565  45.3410072  38.6043205  79.9699860  44.7918701  10.8595095
  79.3552399  44.7508011  10.1269569  80.7847977  44.4322128  10.5088577
  51.2304420  32.3614349  29.5573578  50.3774338  32.0449028  29.8547077
  51.8127327  32.2172470  30.3032665  60.1701927  32.9956245  37.0248680
  59.9636612  33.2662582  37.9194832  60.9635849  32.4671974  37.1116219
  63.0442772  19.4388809  33.9109802  63.3228035  20.3545742  33.9235992
  63.8292885  18.9464321  34.1507339  46.4439964  69.7838898   9.4501276
  46.5728226  70.7212677   9.3053465  47.1278191  69.5417938  10.0746298
  72.6132736  23.6843185   5.7742171  72.4771194  24.5640163   6.1261034
  71.7876892  23.2293797   5.9405732  41.7914886  27.2822876  89.2785416
  41.2718849  26.4824696  89.3593903  41.2771797  27.8444805  88.6991806
  74.4741745  49.5616875  69.1914444  74.2659454  50.3416824  69.7057190
  75.0247192  49.8849525  68.4782639  85.5958176  17.2822456  53.0048637
  85.5542145  17.2330036  53.9598923  84.8113098  16.8218307  52.7068901
  11.5378942  22.1020012  20.6887341  12.0026178  22.8184929  21.1210575
  10.6277800  22.3959312  20.6496258  45.6980247  49.9663734  25.2313805
  45.3473663  50.7401237  24.7902679  46.2047920  49.5149269  24.5563869
  75.2439651  31.5211639  13.0087328  75.3498001  31.7183933  13.9393950
  75.9028473  30.8503246  12.8296289   3.6932056  24.1842175   9.9872952
   3.0119305  24.7974491   9.7115383   3.3168082  23.3192215   9.8250036
  79.7354126  63.4264412  33.2519264  78.8765106  63.0153923  33.3497124
  80.1737366  63.2671394  34.0878296  44.8177643  44.7152672  49.8232689
  45.4163017  45.4287148  50.0445824  45.3124771  44.1681213  49.2132492
  20.8436317  58.1399117  79.1921921  20.7781429  58.6381416  78.3775101
  20.0649757  57.5832138  79.1957397   6.7452679  70.1812744  43.1373634
   7.4333158  69.7770004  42.6087990   6.7365899  69.6731110  43.9484863
  63.9001045  50.2957306  27.6194515  63.3546638  49.6385956  28.0517693
  64.3833313  49.8057976  26.9541016  60.2670708   3.2073367  30.9398708
  60.8084984   3.9693098  31.1459846  60.2634850   2.6909881  31.7458496
  52.2736282   4.9819193  34.3817482  51.8830109   4.5033164  35.1129036
  51.6116676   4.9463601  33.6912613   3.0286145  38.4440575  12.0912666
   2.6603677  37.7730980  11.5164280   3.6321421  37.9667320  12.6606064
  19.3711395  28.5999413   5.5839624  18.5711842  28.1763344   5.2727423
  19.7833481  28.9446888   4.7918353  27.5108089  26.9109993  59.3950882
  28.2491055  27.3888760  59.7729607  27.4478226  27.2381287  58.4977341
  55.8628273  62.6820068  36.2180328  56.3160820  62.9451218  35.4170570
  55.5621414  61.7906113  36.0412903  28.4540405  53.3192482  83.4461136
  28.0365543  53.8545151  84.1209717  29.3236408  53.1269417  83.7968903
  64.4826202  51.2387047  54.6090851  64.7258759  51.7274780  55.3953133
  64.7552338  50.3395844  54.7921028  62.8741837  63.3226776  61.8681793
  63.6544456  63.8712044  61.7873192  62.9443398  62.9334221  62.7398415
  22.5620689  43.9475594  69.5494385  21.9878254  43.2040977  69.3657532
  22.6976681  44.3617516  68.6972122   7.7308769  56.6591530  66.6346588
   8.2192640  56.0574608  67.1965103   8.0144434  57.5300560  66.9127884
  33.2895699  71.3502121   6.0356479  33.3062363  71.2509079   5.0837588
  32.5631332  70.7963333   6.3215580  86.4259567  46.1825600  48.9181900
  87.1936417  46.3753166  49.4564629  86.7871857  45.8581276  48.0932693
  37.1412582  44.6192284   1.9467900  37.7831573  45.1941376   1.5300430
  37.1536064  43.8223572   1.4166260  79.5994949  56.3987617  40.1401100
  78.9330063  56.6973534  40.7588692  79.2024689  56.5292549  39.2789650
  55.7892532  35.0507927  32.8387222  56.7028236  34.8014717  32.9782181
  55.4813271  34.4583015  32.1528893  72.7218399  18.3716888   3.6487708
  73.2402496  18.4577427   4.4488153  71.9594193  18.9313812   3.7960455
   4.6402974  27.6306534  27.3030033   4.6486635  26.6739769  27.3334885
   3.7465687  27.8702908  27.5480652  72.8755875  38.8051300  41.9452324
  71.9600677  39.0619469  42.0552254  73.3725433  39.5984688  42.1449318
   2.1604948  53.4208832  51.1333694   1.8142248  53.3126945  52.0191574
   3.0922773  53.2171021  51.2139091  64.9063492  17.2085972  39.3031616
  65.3933563  17.2462730  40.1263504  65.1157913  18.0324059  38.8630447
  74.1163635  70.2568054  42.0878296  74.0436935  69.6019745  42.7821960
  73.5580292  69.9238586  41.3852310  60.0946350  17.9788475  26.9246883
  60.9521408  18.3392944  27.1505089  59.5211029  18.7430611  26.8675079
  46.5746155  67.4618607  20.1309814  45.8554192  67.0559311  19.6470337
  46.1526489  68.1293945  20.6718826  52.3274536  50.9369431  52.8067093
  51.5957603  50.5568466  53.2929077  51.9165840  51.3862457  52.0681000
  86.0597229  21.6926479  59.9666634  85.6927567  22.5757275  59.9249496
  86.5368042  21.6704693  60.7961998  33.6990738  66.0441666  14.8796034
  33.1175804  65.5003052  14.3482761  33.5499763  65.7479172  15.7775097
  45.3378830  34.2863083  41.7493706  45.1218987  35.1993523  41.5598030
  46.0144844  34.3354721  42.4246674  85.2535400  51.2271957  47.8578949
  86.0165482  51.2808800  48.4333687  84.9701080  50.3150597  47.9203911
  83.4090271  47.3671303  57.9411583  83.1576920  47.0867310  58.8211823
  83.6502914  48.2878189  58.0429039  61.7078247  22.9145470  69.4462891
  61.2362175  23.7474117  69.4587021  62.6232414  23.1555176  69.5883408
  12.3204117  42.2154961   4.3084216  11.5578499  41.7315903   4.6255474
  13.0360126  41.9356842   4.8792567  23.9182148  54.2584000  70.8441010
  23.8612232  53.5221252  70.2350998  24.1083355  55.0144577  70.2887039
  55.1951103  68.7920609  54.1085892  54.5691948  69.3122482  53.6047401
  55.0117607  67.8869247  53.8568916  65.1535492  39.2783356  69.4739914
  65.6983261  38.8628311  70.1424255  65.5374527  40.1475258  69.3584290
  50.4202385  54.0769348  64.6934586  51.0153847  54.7614555  64.9991837
  50.7732315  53.8148537  63.8432007  10.9012747  69.5117188  10.2444992
  10.2232456  69.9513321  10.7575760  11.1282263  68.7380753  10.7604513
  46.9109039  59.0742683  33.9890099  46.0563698  59.3900299  34.2827835
  46.7075272  58.4165802  33.3239403  52.6696587  20.2352352  72.9103012
  52.2212753  19.4062996  72.7428131  53.5233192  19.9794559  73.2596817
  17.0804768   7.7917066  16.2890530  16.6993465   8.6637383  16.3916836
  16.6892223   7.2749081  16.9933758  13.6755667  53.5291214  18.8442936
  13.1005144  52.8843994  19.2564545  13.1025524  54.0184402  18.2539940
  28.1883774  35.3070564  10.8558874  27.3504143  35.5272293  11.2627983
  28.3647976  34.4104652  11.1409035  66.6238556  42.4533043  66.2008667
  66.9179688  41.9583321  65.4361877  67.0165329  43.3193283  66.0911407
  35.9945946  64.2888260  39.0677872  36.1009979  64.7942657  39.8736687
  35.1278992  63.8904533  39.1475868  57.2771645  17.4399548  68.3689575
  57.2543068  17.5757408  67.4217148  56.6557961  18.0791531  68.7176132
  50.1009331  49.0824127  29.1197166  49.3955116  49.2493057  28.4946117
  49.7594261  48.3915100  29.6873951  48.6725426  44.6891365  35.0503540
  48.1902237  43.8845139  34.8601265  48.0049286  45.3008995  35.3606300
  81.1682587  66.4215012   7.6356931  82.0079880  65.9689026   7.7146850
  80.8357620  66.1612167   6.7766662  36.9783974  63.8496475  42.0589905
  37.7558212  63.5671272  42.5406837  36.5035973  63.0393333  41.8740768
  18.9568710  45.2977715  58.6124344  19.4105949  46.0316887  58.1980286
  19.4376659  45.1477737  59.4264183  61.8131332  69.1097031   8.3097296
  61.9308128  69.6047592   9.1204681  61.1865005  69.6259079   7.8026896
  81.1624603   8.9278975  13.0774994  81.0963593   9.5104523  12.3208675
  80.8143082   8.0919561  12.7673006  31.4770126  69.9090118  31.2323914
  31.4526520  69.2066193  30.5825577  31.8052406  70.6688385  30.7516022
  27.3458576  34.6527443  63.8757324  26.3953190  34.7080879  63.7775230
  27.4790306  34.4343185  64.7981110  72.7996445  28.7263794   2.4298227
  71.8534698  28.8369656   2.5234289  73.1645584  29.0941296   3.2347014
   6.5060587  38.1333275  81.1949539   5.9677896  37.5376434  81.7161713
   7.3819823  38.0579262  81.5735168   4.8866215  28.2267170  20.3720818
   5.1429610  28.5508957  21.2354641   4.5246973  27.3567581  20.5406494
  65.3714066   8.9903727  75.5313873  64.5499878   9.4795990  75.4849777
  65.2392426   8.2443504  74.9463959  73.5461426  50.3472900  18.5997505
  73.1693726  50.0396957  19.4241657  74.4166718  49.9502831  18.5713825
  81.8177338   9.7311640  19.8465366  81.8539963  10.5332394  19.3253918
  82.6536789   9.7102022  20.3123608  56.0797310  55.2066040  36.6487923
  55.9418678  54.5231094  35.9930000  55.7162247  55.9974747  36.2505226
  52.3208885  31.3370190  39.6904297  52.0087395  31.5453434  38.8098640
  52.0541382  30.4284573  39.8303947  51.4713554  67.2781906  47.2608261
  52.2284470  67.1901321  46.6817818  51.8305702  67.6384277  48.0716438
  58.6782875  35.8030586   0.5491350  58.0552826  35.5059166  -0.1140416
  59.1833229  36.4892769   0.1129273  67.5284271  27.9916019  24.3779583
  67.1885376  28.0259781  23.4837971  68.0440063  28.7929058  24.4691830
  41.4234962   6.4339728  14.4612541  40.6419411   6.9825220  14.3941946
  42.1415977   7.0544276  14.5861540   2.5768056   5.4013538  49.1090317
   2.3968992   5.9337792  49.8838768   2.8606505   6.0310621  48.4463615
  69.8660812  53.4890518  59.4518204  70.0855789  52.6048126  59.1582603
  69.8068161  54.0013351  58.6454163   9.2982531   9.5144310  12.7827883
   8.7468824   9.8905697  13.4688940  10.0125999  10.1429148  12.6781569
   1.9071728  35.6029434  18.4960213   2.8297391  35.3883514  18.3579884
   1.7681453  36.4012909  17.9865665  58.5435867   6.5189261   5.8933372
  58.6421318   6.3471279   6.8298230  59.2278519   5.9924998   5.4799509
  27.6845913  48.7361832  61.7920189  28.3133774  48.1903305  61.3198891
  28.2248764  49.2980576  62.3475533  55.4477921  13.0225372  82.3652115
  55.5676460  12.8523865  83.2995071  56.3295975  13.2031937  82.0396042
   5.4491167  28.8449421  23.1639462   5.1092143  28.0293922  23.5321522
   5.5375724  29.4291744  23.9169922  61.5362206   7.2162809  57.3314743
  61.7756844   8.1234312  57.5211258  62.1735458   6.9323153  56.6761780
  27.4853153  54.3180389  46.1943741  28.3085537  54.6641541  45.8498230
  27.4594269  54.6208191  47.1020546  25.6019897  68.6290054  15.8942623
  25.0544090  68.6693192  16.6783295  26.0572548  69.4708176  15.8765249
  50.9020004   4.4115539   9.5903120  51.0767326   5.3526669   9.5876608
  51.5361633   4.0484643   8.9720612  27.2676296  60.4900322  69.5421295
  26.5978928  60.9855080  70.0134964  27.4791660  59.7598763  70.1238174
  51.4599152  38.6368904  63.1497154  52.1695366  39.2732239  63.2377319
  51.4972954  38.1233139  63.9566078  48.4361420  65.7047272  54.7766571
  48.4725876  66.6505508  54.6341209  49.2798462  65.4897537  55.1743736
  10.5007763  16.3687725  60.1838417  11.3621464  16.7302532  59.9750214
  10.4526844  16.4010868  61.1392860   1.8040555  38.1448479  18.2031956
   2.3148067  38.6550941  17.5746918   1.3322526  38.8004608  18.7168140
  78.6049118  54.6441498  86.0599899  77.9026794  55.0099564  85.5221329
  78.9957047  55.4034348  86.4924240  69.0374298  71.7258835  52.1035309
  69.7579041  71.6376114  51.4795494  69.4308167  71.5272827  52.9532585
  72.3543701  67.9495010  33.1716652  71.5499115  67.4416656  33.2773972
  72.7620773  67.9353867  34.0375786  19.9801903  53.6299286  66.3533936
  19.4112740  54.3839684  66.1985092  19.6169090  53.2121849  67.1342545
  36.7355652  47.9084473  32.2312622  36.7122383  47.9497986  31.2752419
  36.5201797  48.7969704  32.5147552  46.7621651  49.5262909  17.2136536
  47.0594482  50.4041023  17.4530277  46.1078491  49.3059196  17.8766327
  37.5897980   8.8141718  80.0120468  37.3214111   9.6717520  80.3418350
  38.0231209   9.0025682  79.1795959  58.4975357  14.3931456  83.8482819
  58.4866867  13.6182871  84.4101639  58.4418755  15.1305265  84.4560699
  25.2064552   0.0925817  88.9909897  24.5913048   0.6589191  89.4569092
  24.8309555   0.0002733  88.1153641  81.0010529  57.9459076  29.1038284
  81.8003540  57.4957657  28.8304672  80.4154282  57.2435722  29.3866787
  62.4712753  58.2835464  35.3364220  63.1814117  58.4844246  34.7268410
  61.7766685  58.9007950  35.1067276  68.0218506  17.6021328  57.7427101
  67.9305954  18.5545464  57.7141571  68.9646301  17.4539623  57.8164902
  38.3566513  10.7945585   2.2312498  38.6950073  10.6951199   3.1211143
  37.9334526   9.9573441   2.0409729  47.2311516  56.1780968  22.1340294
  46.6929970  55.5316010  21.6772289  46.6172333  56.8702011  22.3796482
  68.1578293  11.6659975  43.1489258  68.6905899  12.2242870  43.7152405
  67.5990982  11.1763191  43.7524643  53.9722366  32.6720390  70.7179794
  54.8559418  32.3051338  70.7439728  54.0441208  33.4288177  70.1362991
  60.5372162  56.7624855  74.8164139  60.8200378  55.9143295  74.4745407
  61.3114777  57.3205032  74.7431412  17.5350666  55.0300179  31.9089394
  17.7814617  54.9976654  30.9845600  16.7076645  55.5111885  31.9195690
  79.9781570  27.6793346  85.2239456  80.1493073  26.7376270  85.2351379
  80.3445129  27.9991627  86.0484009  22.8825722  62.9610939  73.0703125
  23.6543179  63.5201416  73.1603622  22.8489780  62.7475777  72.1378403
  56.5955849  16.1500874  76.0118637  56.7664337  16.9053688  76.5745316
  55.7618637  15.8006725  76.3265915  78.4560623  50.6597939  11.0943413
  79.1448898  51.0007362  11.6648664  78.2787552  49.7816086  11.4313688
  13.9931669  69.8690186  26.7536621  14.9078617  70.0260162  26.5193214
  13.8180170  68.9778748  26.4512959  67.7712097  27.5832367   2.8178506
  67.0047989  27.1396370   2.4544325  67.5966492  27.6316280   3.7577546
   8.4876623   5.3370757  37.3838310   8.9708214   4.8343101  36.7280731
   8.2256670   6.1366153  36.9274025  74.5089035  45.2394333   3.3057423
  74.3108673  46.1240959   3.6129608  75.3404541  45.0204163   3.7262084
  71.3053665  13.5459423  63.0259056  71.6950226  12.7176790  63.3058777
  70.8269043  13.8573618  63.7942276  60.5195084  51.2436523  20.3361015
  61.1418877  51.7989349  20.8057117  59.8130798  51.8374710  20.0819931
  84.0034409  38.9751968  62.7625465  83.3300323  39.0011711  62.0827866
  84.4134064  38.1162338  62.6608543  43.4921188  48.0672646  39.5472679
  43.2511902  47.5408363  40.3095436  44.4331970  47.9248886  39.4456329
  34.7503700  58.2795868  64.2534332  35.3094101  57.7416115  63.6928177
  33.8897209  57.8636513  64.2032852  12.3574810   2.9928935   9.6750517
  12.4658947   2.4759529  10.4733315  13.2430096   3.0756471   9.3211842
  81.3834457  10.3737249  80.5209808  81.9868774  11.0932941  80.3357162
  81.6408234   9.6822748  79.9111557  58.6580734  64.6028900   8.0895576
  58.9624939  63.7282181   8.3314552  58.8336449  65.1398087   8.8622923
  20.6247826  30.6530972  61.9791870  21.0829582  30.4308529  61.1686859
  19.9323044  31.2546597  61.7056389  76.1589355  17.9975700  54.6001358
  76.0549698  18.7336063  55.2031898  75.5074387  18.1541328  53.9165649
  24.7604599  53.6996002  21.9103947  25.2251606  53.5419464  22.7322407
  24.0992680  54.3555946  22.1311378  53.1194839  55.3893738  63.5393715
  53.6551361  56.0872078  63.1620979  52.3652039  55.8431206  63.9154091
  83.3506546  48.4566727  42.7710114  82.7122803  47.9511528  42.2678604
  84.2008896  48.1370773  42.4690247  74.2187271  46.4225960  13.1837759
  74.7388535  46.9852562  12.6100979  73.3153534  46.5591278  12.8982706
  26.9414730  50.4034348   6.2615757  26.7684231  51.3363876   6.1355629
  27.8851204  50.3533249   6.4140601  68.4898605  55.1448364  62.3162384
  67.7485504  54.7559395  61.8520660  68.0933762  55.6135864  63.0506172
  60.2306709  68.8398895  86.1152878  60.6274986  69.5365982  85.5924530
  60.7669907  68.0683594  85.9327316  32.0271072  29.9358711  45.8080330
  32.4417877  29.3765678  46.4648857  31.5639915  29.3268700  45.2328186
  82.4379044  69.2383881  55.3513756  82.0597610  69.0788956  56.2161331
  83.3821640  69.2699966  55.5049896  62.4609604  18.0878792  75.2791748
  63.3817444  18.3397465  75.2088165  62.2039490  18.3630524  76.1592026
  21.5362587  58.4523354  30.3416920  22.1737862  57.7425003  30.4186821
  20.8680801  58.2460899  30.9953232  14.7646427  51.7045059  47.9870644
  15.2567081  50.9691467  48.3522415  14.6652441  51.4892349  47.0597000
  15.2444057   3.9361403  43.2453346  15.0900850   4.0327625  44.1850586
  14.3838282   3.7282875  42.8814163   8.4759693  68.7606277  35.1813011
   8.1694298  68.3930359  34.3523598   7.8144317  68.4952469  35.8201866
   0.6748259  12.6722145  23.9926853   1.2058847  12.2340775  23.3276711
   0.9906868  13.5757971  23.9943523  33.3716316  70.3216248  41.0347977
  33.9419212  70.7428284  40.3916893  32.8225098  71.0309143  41.3688889
  30.2865543  50.6907043  66.0659714  30.8219719  50.2453041  66.7226105
  30.8733139  50.8097229  65.3191223  31.1475201  63.2630730  46.1451225
  31.6997566  62.8799744  45.4635811  31.3624382  64.1957321  46.1313972
  60.6526031  45.2832603  65.1364288  61.5699997  45.4793282  65.3266220
  60.1639404  45.9880676  65.5615005  17.8658695  56.2242928  40.6079254
  17.0218868  56.6757965  40.6163826  17.6936932  55.3866234  41.0379181
  26.0548534   5.5080466  26.6543484  25.4004059   5.2668681  25.9987850
  25.6422100   5.2998991  27.4925804  76.7283554  12.7789602  65.6545258
  77.1693497  13.6030226  65.8611069  77.4304047  12.1284409  65.6410141
  84.4108887  25.6377563  65.0517197  83.9015961  25.6573849  65.8619461
  83.8156204  25.9827251  64.3862228  60.0928459  46.7233810  41.8246536
  59.5811119  46.0409889  41.3902512  60.5422630  47.1764755  41.1112366
  67.0012131  46.2331924  34.9678383  67.2044983  45.6108589  34.2695541
  66.1190872  45.9941788  35.2523727  51.4767113  69.3296280  45.1261749
  52.1557617  69.4509888  45.7897949  51.5014763  68.3938141  44.9265022
  19.1240063  59.2100601  55.0484390  19.0900688  60.1356926  54.8070068
  19.9589787  58.9012604  54.6967354  69.4146347  31.3349533  36.5595932
  69.1129074  31.5672474  35.6813927  68.6310196  31.3956814  37.1059380
  49.9307327  19.2526302  84.9569473  50.1757545  19.1648178  85.8780823
  49.2536774  19.9292469  84.9526596  63.6412010  43.6458092  42.8141365
  63.7785110  44.4431152  42.3025856  62.7258530  43.4146194  42.6562729
  83.3860855  14.1004305  38.6221161  82.5223465  13.7023544  38.5137863
  83.7618561  14.1005888  37.7417564  85.3777390  66.1492844  39.1330490
  84.5455627  65.9902649  38.6875954  85.9508667  66.5005722  38.4516144
  82.1144485   5.1017990  17.2504082  81.8134384   5.6021280  16.4919281
  82.0632629   5.7190886  17.9801788  27.8056393  55.0759583  48.6030197
  27.4709778  55.9698868  48.5314369  28.6102657  55.1616669  49.1143532
   4.0010133  34.2165489  72.8140335   4.4700880  35.0149498  72.5716324
   3.1448927  34.5231133  73.1128693   7.0496287  53.7388573  31.6163445
   6.6019588  52.9712143  31.2606144   7.4863205  54.1328087  30.8611393
  29.7650719  68.4181824   3.4625437  30.1020432  67.8909683   2.7381616
  28.8321476  68.2070465   3.4987168  24.2580719  21.7198792  48.3058815
  24.6201954  20.9976883  48.8192406  23.9729328  21.3128414  47.4878082
  47.6881676  22.3863831   6.2234015  46.9831276  22.9177132   6.5933237
  48.3740158  22.4001999   6.8909712  35.6955299  27.3542137  78.8620987
  36.3561554  27.2165165  78.1832428  36.0232620  28.0978374  79.3679123
  32.5390358  24.1520061  82.6001282  32.8983116  25.0382290  82.6421051
  31.6382389  24.2727242  82.2997589  32.6310501  48.4476624  80.7589493
  33.0049706  49.3286972  80.7728119  32.2176743  48.3764229  79.8985519
  53.2375603  68.0547028  33.3180275  53.0654411  68.7326965  32.6646309
  53.9693451  67.5543518  32.9569473  41.0634041  17.7572784  -0.1748143
  41.8776169  18.2546959  -0.2513849  41.0309525  17.4909344   0.7440109
   1.1236393  57.1702881   0.3994953   1.1745024  56.7379684   1.2519888
   1.7674668  57.8767776   0.4504283  28.6333351  68.0963516  64.2583313
  29.3523808  67.7189178  64.7650375  27.9706612  67.4061279  64.2321167
  50.8882446  32.4008026  60.3612976  51.5680046  33.0639534  60.2413406
  51.3696823  31.5970535  60.5573463  83.8164139  30.4670658  56.5181580
  84.7476044  30.6884689  56.5083733  83.6426849  30.2021866  57.4214211
   8.5986538  40.4932861  10.3963957   8.5942125  40.1359367  11.2843771
   8.0404978  39.8981323   9.8959131  11.6346645  13.4800949   5.8654375
  10.8678427  12.9317951   6.0315170  11.5575819  14.1967916   6.4952269
  35.1414680   1.4122045  56.5470238  35.7950134   1.7591630  55.9397926
  35.6344719   1.2179214  57.3441658  46.6362762   8.9952641  41.1221657
  46.3210754   9.8265944  40.7675247  46.0578499   8.3363485  40.7381248
   3.2521920  69.0706024  40.5746460   3.8648365  69.1040497  39.8399467
   3.5183997  69.7944107  41.1416283  21.2884960  24.7519798  57.4052811
  21.0236816  24.0440617  57.9926109  21.6200542  25.4352131  57.9879379
  59.3167305  42.3259010  17.2172832  59.9258537  43.0242081  17.4572144
  59.7626457  41.5195541  17.4765110  25.1781960  44.2559471  61.7357521
  25.5180511  43.6966896  61.0372124  25.4708614  45.1366272  61.5012627
  49.4206886  55.8245468  13.7605162  50.1928482  56.2153015  14.1695518
  48.7563591  56.5127220  13.7966919   8.0550270  70.5164185  79.7536545
   8.2391167  69.6309052  80.0670471   8.1152582  71.0647049  80.5359497
  59.9923058  24.2065487  76.3925323  59.0358620  24.2059898  76.4306030
  60.2127914  25.0101910  75.9216003  61.9687843  52.0417557  41.7726746
  62.3407326  52.6038513  42.4523315  62.0966339  52.5315704  40.9602928
  67.9019547  59.5858192   8.4858580  67.3995819  59.2847824   7.7287374
  68.8148804  59.4264069   8.2462931  83.5416412  32.6377220  33.9310951
  83.8331070  31.8809490  34.4396019  83.5235062  32.3257446  33.0263481
  74.6305008  60.8274002   1.1756182  75.1619644  60.2211380   0.6596480
  74.9431534  60.7155724   2.0733802  69.5783081  55.7595940  20.2495918
  70.1195755  55.5959663  19.4772663  70.2029114  56.0047760  20.9322300
  60.5060081   9.7775288  36.5914383  61.0225182   8.9784737  36.6961212
  59.8575325   9.5576439  35.9225883  86.2003174  47.4957047  39.2390060
  86.9605331  46.9774857  38.9749069  85.4569626  47.0601730  38.8219147
  81.5602951  11.2752132  87.4018478  81.6714020  10.7520485  88.1956863
  81.7938385  10.6809511  86.6887207  17.0447960  59.9556808  72.8796387
  17.3476124  60.1570435  71.9942093  17.6913300  59.3367157  73.2189102
  86.1491852  41.2530937  53.5376816  85.7171249  42.0181961  53.1579704
  87.0709763  41.5038910  53.5979271  80.5359344   7.5712671  69.5725632
  80.9547882   6.7136693  69.4996262  79.9390182   7.6106119  68.8253250
   0.8535038  68.8744354   5.9914808   0.7890481  68.8826141   5.0364881
   0.2746271  68.1626892   6.2645240  52.8163261  31.2487259   1.9808316
  53.5409737  31.6243057   2.4808915  53.0963936  30.3538151   1.7886556
  43.3122826  48.6195030  32.5938416  43.5355988  47.8239708  32.1106300
  43.8216171  48.5597420  33.4020729  49.5605354  44.9358940  87.8516083
  49.5809631  45.6254158  87.1879959  49.7191010  44.1283073  87.3628387
  66.6721725  34.9124603  76.9462814  67.0228195  35.8009071  77.0090408
  65.7388306  35.0350380  76.7728119   4.6180925   4.9096465  45.4056816
   5.1928186   4.3432832  44.8907471   5.1199665   5.1040506  46.1972351
  46.7792778  40.8624763  85.0547409  46.6446419  41.0590973  85.9818039
  46.1313667  41.4001045  84.5993271   5.8710756  12.0617895  74.6738892
   5.9902148  11.2954636  75.2349396   6.7579594  12.3032665  74.4067612
  39.3087082  21.4708080  15.7723846  38.8156891  21.3465576  14.9613810
  38.6615486  21.7947674  16.3988552  12.0953093  52.6994553  32.8299179
  11.9083147  51.9205856  33.3539696  12.8420563  52.4486465  32.2861366
  53.2087173  17.5232792  24.9098778  53.3425026  16.7698555  24.3348236
  52.3887672  17.9132595  24.6068516  67.2252350  33.4803200  57.3639412
  66.8794861  34.3728828  57.3686028  67.7395554  33.4184914  58.1688499
  66.8130722  26.3616791  87.6750565  67.0844574  26.6797314  88.5361176
  67.5323486  25.7979374  87.3903351  53.5586700   6.1362758   2.8215015
  54.0696640   6.0435328   3.6255646  53.0359192   6.9261260   2.9596939
  53.7333755  10.9763393  13.2992687  53.4055901  11.8594971  13.4690399
  54.0221863  10.9993124  12.3869686  35.3839989  54.8500252  19.1181431
  35.0007782  54.0306168  19.4311008  35.5478859  54.6977119  18.1874580
   3.7647555  24.8023148  62.9952240   4.6287889  24.4166126  62.8506126
   3.8868151  25.3908405  63.7401886   8.0642290  45.2755432  59.4372025
   8.3901834  46.0979118  59.8028412   8.8476419  44.8290253  59.1160851
  28.2240314  62.4251785   9.0900269  27.9783993  62.3857384   8.1657209
  28.0091953  61.5574188   9.4321833  12.0340033  27.8704014  16.6524868
  11.3971920  28.4540291  16.2400742  12.1397867  28.2186050  17.5378094
  54.9709740  53.2161255  35.3387756  54.4944763  52.8194542  36.0680428
  55.3225174  52.4723053  34.8495140  81.9715042  43.4286575  42.9181252
  81.9223709  44.2513504  43.4049454  82.8973541  43.3388557  42.6923828
  61.7111778  21.5969238   2.1602938  62.6079521  21.9230785   2.2354901
  61.3664017  21.6363049   3.0523753  70.0478363  37.2144737  23.3406792
  70.4476624  38.0059547  22.9802189  70.6898041  36.8875542  23.9709454
  73.3127975   1.3986173  42.7880020  73.5429688   0.4822746  42.6344795
  74.0529861   1.7520748  43.2813759  14.3483114  57.9398384  17.1612492
  14.3012285  57.5965614  18.0535355  14.4804173  57.1659966  16.6135731
  43.2460022  68.9533844  18.3269176  42.7202950  68.6320953  19.0594711
  43.9110641  68.2777405  18.1948967  21.4805012  24.0061550  74.1219482
  21.5315552  23.1242256  74.4904938  21.7818298  23.9061947  73.2189331
  27.0755291  39.0820847  67.8683777  27.0480137  38.2580719  68.3546677
  27.9884262  39.1676292  67.5935364  16.4986897  65.0545883  24.8881283
  16.0414600  64.7227402  24.1154366  17.0283222  65.7810135  24.5594521
  68.2368240  44.4427071  58.1631355  67.4106140  43.9679565  58.0724945
  68.0506897  45.1267509  58.8063087  27.6132355  44.2649765  77.1007843
  28.0433617  43.6579132  77.7030334  28.0757942  45.0937157  77.2251129
   0.4686536  25.9987221  11.9125290  -0.2119925  25.5109367  11.4488297
   0.1033847  26.1496658  12.7843237  46.0385666  58.0441360  64.8278732
  45.9602470  57.2598915  65.3710632  46.6327782  58.6147232  65.3152847
  61.2375603  55.1561356   4.2977190  60.6954880  54.3767090   4.1757283
  61.3258820  55.2402573   5.2471161  85.8612900  36.2836494  11.4296331
  85.5703430  36.4468384  12.3268223  86.0595551  35.3474426  11.4086819
   6.1874776  38.8918114  12.8765497   6.7098808  39.6147156  12.5290852
   5.4745302  39.3183670  13.3519297   8.9755497  12.1474743  22.1462173
   8.9554453  11.2647305  22.5158005   9.1951160  12.7123766  22.8871002
  62.1109009  47.1150322  22.5172501  62.4708290  46.8257751  23.3557091
  61.3493271  46.5524712  22.3766708  34.6974182  57.9933243  46.6481667
  34.6154022  58.3977394  47.5118523  33.9611015  58.3453026  46.1479874
  14.7180510  47.2038727  84.8852081  14.4554377  47.6028137  84.0556870
  13.9187498  46.7961578  85.2185516  62.8407211  52.1530952  65.5249710
  62.1697464  52.8020363  65.3130722  63.2254372  51.9215546  64.6796265
  26.9509621  37.9011269   4.0096765  26.5724697  37.9082451   3.1305151
  26.9832935  38.8233566   4.2639956  44.5029678  46.9055405  66.4021988
  44.0624847  47.0353050  67.2420578  44.7537308  45.9817696  66.4034729
  79.7980881  24.5433159  28.4944763  80.7064056  24.8314705  28.4041615
  79.2789536  25.3253193  28.3068676  30.5279408  57.8754692  76.7198334
  30.4213333  57.3541641  75.9241486  29.9088326  57.4928780  77.3415756
  53.2405319  44.4594574  75.3386154  53.7358665  43.6899185  75.6191330
  53.2259140  44.3997688  74.3833923  82.8305283   1.1870551  83.3264999
  81.8933868   1.0999099  83.1521225  82.9459457   0.8215296  84.2035980
  31.1552143  32.6664810   3.3275917  31.2062511  32.1864510   4.1541481
  31.7842197  32.2264214   2.7558131  60.7961311  25.6771870  40.3295631
  61.2966499  25.9189377  39.5502892  60.3720856  24.8516369  40.0952950
  60.5280952   8.3659382  52.7136879  61.4227257   8.0269184  52.7442055
  60.5208397   8.9551344  51.9593506  76.0411148  65.3502350   9.6676521
  75.6960526  64.8853302   8.9054012  76.9850388  65.1945190   9.6360989
  56.7530708   6.3597832  37.0018044  57.0113411   6.7342458  37.8440056
  57.5750122   6.0686698  36.6069679  14.7048244  34.9385529   1.4129159
  15.3874550  34.5786285   0.8466092  14.6151133  34.2968369   2.1174614
  40.1092186  45.4779358  20.7710571  39.2632027  45.3346329  20.3468437
  40.7154846  44.9115028  20.2937489  32.7828827  63.1392784  81.7904282
  33.0852394  62.7300720  80.9796448  33.4520988  62.9137459  82.4365845
  78.7082596  39.4064903  32.3369980  78.7078781  39.1423492  31.4169674
  77.8456573  39.1472778  32.6609612  58.9042854  10.4164944  39.5720863
  59.7374039  10.2427292  39.1339607  58.9374657  11.3482208  39.7889214
   8.6937695  14.5433207  76.1610870   9.5382566  14.9081020  76.4256744
   8.0586643  15.2242670  76.3828659  75.5975342  10.7131376  12.6954546
  75.3052139  10.5872355  13.5981884  76.5522614  10.7469149  12.7553596
  36.8397827  52.7909622  70.0387192  37.0490112  53.3465843  69.2878876
  36.0264740  52.3508034  69.7916946  76.7899780  24.5593853  49.7501564
  76.9697418  25.0026436  50.5792770  77.2780304  25.0629272  49.0986328
  43.2278748  22.9719219  79.0389938  43.8868103  22.5131016  79.5600739
  42.5334320  22.3261814  78.9085999   1.1482002  64.2691345  59.9624062
   1.5514890  63.8906288  59.1811752   0.9881334  63.5199165  60.5362358
   3.8155468   1.7980014  44.4501495   3.5734129   0.9278293  44.1332855
   2.9838033   2.2040255  44.6942368  23.1286926  63.4095268  80.2476654
  22.6804142  64.1923370  79.9275360  23.9459267  63.3811722  79.7501144
  30.5502281  17.1857491  77.0192108  29.8731651  17.3603630  77.6729126
  31.3666172  17.1685619  77.5186539  42.5795784  34.1859398  87.1990814
  43.1698074  34.0656509  86.4551773  42.5925560  33.3437195  87.6537476
  10.7746763  19.7158413  11.4698067  10.5955610  20.6549969  11.4236193
  11.6562834  19.6221199  11.1089487  31.1731377  70.2283783  34.1371956
  30.7214489  71.0319214  34.3951340  31.3276138  70.3313293  33.1981697
  36.5812225  31.6312275  63.1755104  36.1086540  32.4023552  63.4889946
  37.3520737  31.9862804  62.7328339  64.6736755   4.3294601  37.8825417
  65.6148453   4.1797500  37.9720955  64.5309830   5.1940980  38.2676048
  57.5396194  58.7894897  80.0561295  58.4965096  58.8133621  80.0508423
  57.3131180  58.4571762  80.9247437  64.3890076  52.8076973  30.9605942
  63.6484871  53.3287621  30.6501884  64.7711639  53.3306656  31.6653576
  33.4423447  22.0973148  -0.1225466  32.5264473  22.2589951   0.1037673
  33.6775665  21.3145275   0.3756000  51.1555557   2.1779141  75.1437607
  51.2512550   2.0010722  76.0795975  51.0396767   1.3143511  74.7474442
  34.5647545   2.6080699  25.4278259  35.1830521   2.5229456  26.1535606
  35.0474930   3.0914404  24.7573433  14.4786673  57.8650284  38.3567314
  14.8342886  58.4652634  39.0120773  15.0062609  58.0248528  37.5742149
  71.6602325  56.2226524   6.7843027  71.1191406  56.9071159   6.3906541
  71.0338364  55.6375046   7.2102838  84.5102921  71.6042938  33.0809517
  84.2403107  71.5517426  33.9977837  85.4667740  71.5831146  33.1113319
  32.6734200  45.7744293  81.1389313  33.2140350  45.4563217  81.8619614
  32.6153107  46.7192459  81.2809753  45.3160362  35.6651955  64.2878571
  46.2637978  35.5600433  64.2046432  44.9565201  35.2054787  63.5291443
  10.2954922  64.3513336  60.5171127  10.4904499  63.4571495  60.2366562
  11.0909224  64.6410294  60.9638824   9.9969044  60.4883499  54.0114441
   9.4120893  59.7698975  54.2523689   9.4691896  61.0449791  53.4388084
  60.3623810  16.7827530  73.8864899  59.8483543  16.3609600  74.5750351
  61.1193657  17.1495152  74.3433228  34.3948479  60.7476997  72.7372894
  35.2879906  60.4067688  72.6893845  34.0534134  60.6506042  71.8483429
   1.9033053  35.8967781  74.0375900   2.3869579  36.4399109  74.6599350
   1.5025649  35.2144279  74.5761414  12.0818520   2.6877739  51.9242706
  11.8539610   2.9227202  52.8237686  11.2398567   2.6172550  51.4744911
  78.6480484  61.2282410  72.5457458  78.8963013  60.3333664  72.3137817
  79.3729782  61.5460091  73.0840149  55.0177689   3.1159251  31.9033833
  55.2840652   3.8383801  32.4720459  55.7213707   3.0471973  31.2580528
  70.7570877  54.7182846  76.5758057  71.1999283  54.5626373  77.4100113
  71.4289322  55.1093330  76.0172882  50.7257462  49.3654594  19.4954319
  51.6720543  49.5075188  19.5190029  50.4177704  49.6610031  20.3521919
  82.9956436  12.4734697  40.9986649  82.1879349  12.9121132  41.2659416
  83.2854538  12.9561481  40.2245445  28.6985607  19.2757072  68.2670517
  28.9766178  19.9543324  67.6519241  29.5086880  18.9865589  68.6869583
  26.2318287   8.1943884  88.9351349  25.5717182   8.4368982  88.2857666
  26.7782555   8.9752169  89.0243225  12.3841352  13.7383213  63.9518700
  12.5299606  12.8458109  64.2655487  11.5020018  13.9567194  64.2524948
  38.6818619   3.4578712  40.6545181  37.7843552   3.4635320  40.3218269
  38.9309464   4.3815098  40.6873856  51.4391289  31.4319477  70.8025894
  52.1905441  32.0212212  70.8686676  51.5838509  30.7813187  71.4895935
  40.6162071   9.2324171  70.3665466  41.5345306   8.9627581  70.3526382
  40.2515640   8.8009491  71.1392746  75.6910934  34.0349426  11.5873156
  75.8589478  34.5191803  12.3957520  75.6769714  33.1165543  11.8567581
   7.1084113   0.9718739   6.7246537   7.0560822   0.2563905   6.0909529
   7.5241303   0.5811509   7.4932532  81.6832428  50.1878738  38.4127388
  80.8499451  49.9907875  38.8405304  81.5424118  51.0368309  37.9936104
  14.4386272  65.1004257  55.6662254  14.1065912  64.5683823  56.3893471
  15.1458292  65.6163101  56.0534744  23.6012459  71.1852798   3.9595058
  22.7848091  70.6943817   4.0526752  23.5577106  71.5575409   3.0787346
  28.8346710  55.5475731  24.2869949  29.0973072  55.9447365  23.4566250
  29.6224689  55.5836143  24.8294983  61.9882736  66.6090622  25.1347923
  62.1072884  66.8378754  26.0565929  61.1548615  66.1389008  25.1103897
  50.3241920  11.5046015  34.1244469  49.4087830  11.2357683  34.2018433
  50.8240204  10.7142687  34.3288422  53.7817726  19.5427151  68.4280319
  53.1399117  18.8375816  68.5118942  54.4460068  19.3416214  69.0872650
  41.4148216   3.7166657  89.0442886  41.5705070   2.8324404  89.3761673
  40.4686661   3.7570913  88.9050446  70.9034500  17.4508648  82.7493973
  70.7517776  18.3916302  82.6589127  71.7473602  17.3021984  82.3228531
  64.5189972  45.5140915  35.7381401  64.9953613  44.7507362  36.0646439
  63.6056519  45.3425713  35.9675064  31.4724865  55.5147171  58.4347343
  30.6965179  54.9582062  58.5010681  31.8155575  55.3437691  57.5576286
  49.5053101  27.2969322  69.0784760  49.3251076  27.8892956  68.3484955
  48.6406326  27.0605259  69.4141541  85.6124496  60.1514130  72.0243225
  85.6826782  59.7843857  71.1430817  86.0487289  59.5108223  72.5860519
   3.6728301  26.0552731  65.7976456   4.5115538  25.8043499  65.4105911
   3.7449374  25.7939186  66.7156448  59.4224854   3.1952088  88.9556198
  59.4743385   2.2690582  88.7194214  59.6195450   3.6610336  88.1429672
   7.2646360  35.9716263   2.9713228   7.1833200  35.7817688   3.9059744
   8.1432400  35.6694946   2.7410998  82.3132019  52.1270981  63.7993813
  82.7367706  52.2581139  64.6477051  83.0344086  51.9436150  63.1973686
  67.1619339  42.5619545  40.1333122  67.9358521  42.3329811  39.6186752
  67.5051117  43.0682831  40.8695831  52.3014717  44.4690552  53.1617088
  52.1204948  43.7007980  52.6201782  51.4655495  44.6666374  53.5841217
  28.4641056  11.3401976  80.6886902  28.0373783  10.8407364  81.3848801
  28.1033478  10.9788837  79.8790359  61.0143509  62.9062119  48.3465309
  61.6966057  63.4487572  48.7420120  60.2410812  63.4700470  48.3273125
  64.6623840  26.2858601  46.6722755  65.5741043  26.4806175  46.8892326
  64.2675705  27.1418896  46.5062447  70.7897186  20.0745735  82.2269897
  71.7011642  20.3603115  82.2891235  70.3887863  20.6855392  81.6087646
  65.3390045  70.9917374  18.2118092  65.5688171  70.1147003  18.5187588
  65.2660599  71.5136871  19.0108624  22.0178604  12.6117773  62.4263115
  21.9854774  12.8071032  63.3628120  22.8085442  12.0830421  62.3191261
  46.0393486  64.8718338  28.0047302  45.6868744  64.1493607  28.5243721
  46.9888000  64.7917023  28.0961494  74.8559952  67.1264420  38.7441254
  74.4540634  66.9779053  39.6000557  75.2375870  68.0020065  38.8074112
  18.8926182   6.0857348  83.6991577  18.3892174   5.4097123  83.2454910
  18.2863312   6.4396830  84.3498306  35.3198547  24.1795311  20.7324638
  35.7874756  23.9789333  19.9217091  36.0105553  24.3814087  21.3636646
  79.5548325  37.2659340  34.9233398  80.0656967  36.5926971  34.4738922
  79.6047745  38.0288506  34.3474121  15.2363367   1.5021492  19.8628654
  14.9202852   2.3171887  19.4729233  14.7167244   1.4009137  20.6603527
   6.7937999  10.2279100  59.3079643   7.7201838  10.2058439  59.0680542
   6.4514380  11.0071011  58.8699226  85.7403336   9.6609011  42.3670807
  85.3566895  10.2043228  43.0553703  85.4889984   8.7670412  42.5996284
  32.7270927  67.3192368  75.1931458  32.5844650  68.1989975  75.5423050
  33.3876610  67.4366837  74.5104370  38.8304482  44.0985947  24.9963245
  38.2313690  44.2197075  25.7329845  38.2816429  44.2114563  24.2202415
  11.5873613  63.4776993  63.9744492  11.5574875  63.7845535  64.8806381
  11.4613161  62.5309563  64.0378876  -0.0285349  14.2185707  45.8095474
  -0.0866460  13.3599682  45.3904343   0.4734512  14.7522802  45.1935997
  72.6093063  36.8245544  50.7565079  72.6368484  37.2797318  51.5981064
  71.7240906  36.9818001  50.4280281  67.7017746  58.9689140  73.9284286
  67.4511948  58.1156044  74.2824097  67.2833328  59.6023293  74.5114594
  54.2876587  18.8054485  33.8305626  55.0442009  18.7722912  34.4160309
  54.5407028  19.4260426  33.1471405  84.3542786  18.5431614  40.1103516
  85.0410233  19.1942749  39.9666023  84.6274796  17.7879295  39.5895653
  46.8894539  20.6863213  19.7699871  47.4623833  19.9625130  20.0231361
  47.3429413  21.1064205  19.0391674  58.0936508  48.6651764  78.8117981
  57.4524345  48.5317345  78.1137543  58.3069534  47.7820320  79.1131134
  77.9013748  60.4503937  68.6949234  77.1585236  60.7217522  69.2341537
  78.6714630  60.6817093  69.2142487  40.4153481  40.9825172  63.1657753
  41.2174950  40.6971550  63.6032181  39.8163567  41.1979942  63.8806267
  44.8248253  67.9913788  29.1915264  45.4919815  67.9775085  28.5052738
  45.3220177  67.9746246  30.0092983  78.3486099   7.6346202  27.8167648
  77.5869980   8.1802549  27.6206493  78.0281219   6.9960361  28.4537315
  52.6372337  56.7442513  36.0641708  52.6062927  57.4515610  36.7083664
  51.9482651  56.1393929  36.3393097   2.6817265  32.9219284  53.0564384
   3.2455318  32.9038391  53.8297615   1.8054696  32.7372246  53.3945084
   5.7174592  55.3286095  65.2264175   5.8642426  55.3071899  64.2807846
   6.5292106  55.6855888  65.5867767  41.6127281  38.4090843  18.0280342
  41.1593513  37.7199173  18.5135555  42.5417252  38.2016754  18.1289177
   3.7185614  12.2362261   4.1095152   4.5877419  12.0850048   4.4808502
   3.8395486  12.1305513   3.1658909  70.9785690  56.2836266  22.6618576
  71.9349442  56.2738533  22.6233883  70.7772064  56.6534157  23.5214729
  44.1632805  58.5850449  37.0132484  44.8702164  58.0722733  36.6214066
  44.5631409  58.9989128  37.7781372  62.7398949  13.6192045  40.3357010
  62.9428902  14.2977295  39.6917877  63.4423027  13.6851072  40.9826279
  47.6396408   8.4727983  30.7349529  48.0255966   7.8324466  30.1372757
  46.7993431   8.6973572  30.3353176  22.9927444  40.8052673  69.5227356
  22.8600807  40.0088158  69.0086365  22.7090569  40.5701256  70.4061737
  78.0094833  33.1522865  78.6447067  78.1997147  33.5468216  77.7936020
  78.2531509  32.2323265  78.5420837  28.7004032  67.3359909  26.4248886
  28.3564339  67.5788574  25.5652771  28.1959820  67.8650055  27.0428944
  13.5381622  10.5013733  30.0462475  13.7779541   9.7627754  30.6058941
  12.9293270  11.0157490  30.5763130  71.2786560   6.3776016  62.4140663
  71.8999329   6.7888093  63.0150261  70.7397232   7.1012721  62.0945587
  10.1317005  11.2838259  72.0047455  10.5145969  12.0600824  72.4134598
  10.3489847  11.3700314  71.0765305   0.2782674  34.5901451  70.8953476
   0.5635297  34.0067863  71.5985870   0.6863768  35.4311104  71.1014023
   9.0005207  37.5971832  58.7562904   8.3650608  37.7993622  59.4429817
   8.4767895  37.2225037  58.0480843   1.0086554  44.8978577  15.9485865
   1.3433484  45.0268478  15.0611334   1.0263747  43.9493027  16.0757313
  51.0468712  49.8215485  13.4699955  51.5777130  49.0279770  13.5384827
  50.3689613  49.7145576  14.1372442  65.5122528  35.7260056  56.1785774
  65.2147598  34.8698959  55.8706703  65.8046188  36.1770630  55.3865547
  44.8102188   4.0070319  15.7099161  44.6644287   3.0823925  15.9099636
  45.4776649   4.2854133  16.3370132  30.0468884  70.5000000  10.3459549
  30.1974201  70.3674088  11.2818985  30.1848583  71.4376297  10.2116432
  44.6616745  59.3670502  75.4955215  45.5420189  59.7058220  75.3328552
  44.2286911  59.4060135  74.6427383  28.2045193  71.4571457  36.5914001
  28.4155769  70.5421066  36.4059563  28.7982082  71.7006912  37.3016510
  65.6657028  15.5256004  80.8701248  65.4981689  14.7682142  80.3092880
  66.5992584  15.7048464  80.7579727  49.5481148   5.7326097  29.3190193
  49.5531807   5.8370552  28.3675480  50.2096138   6.3499813  29.6312675
  23.2876949  60.5052223  36.3841782  23.9830856  60.1106415  36.9104538
  23.5327225  61.4280663  36.3166962   2.8948543  47.1185532  59.6655235
   2.2141807  46.7791595  59.0843811   3.3815353  46.3424988  59.9432182
  72.3336334  44.0933456  75.6207886  72.3592148  43.3621521  75.0035858
  71.4064865  44.3235893  75.6810455  50.8880043  11.6344805  63.7852440
  50.7255249  12.5609245  63.6076660  51.2079582  11.6160164  64.6872025
  41.8422050  11.7857151  85.4436646  41.6899910  10.8729753  85.1987762
  41.4575844  11.8668737  86.3164215  54.7485008   4.9174285  87.0870209
  55.1233597   5.0543041  87.9570694  55.4980431   4.9628606  86.4934311
  47.7669983  66.3940048  32.7556686  47.7666168  65.9608688  33.6092682
  48.4838943  67.0260925  32.8081398  52.8129234  10.5376530  87.8895798
  53.3008766   9.7717314  87.5870972  53.4427948  11.0305901  88.4154205
  76.0153580  54.1797752  62.7048836  76.4298706  53.6831398  61.9993553
  75.0792236  54.0104294  62.5990372  60.6181564  -0.0466050  83.1245880
  60.4917908  -0.1738855  82.1843414  61.0091934   0.8239885  83.1980133
  34.5928726   0.5530319  16.1586189  34.4825478  -0.3132218  15.7666178
  33.8891449   1.0791522  15.7788906   8.1464062  69.7471924  64.1175690
   9.0813046  69.7411118  63.9122429   7.7757039  69.0577545  63.5666771
  49.2263374  37.2593460  80.0966644  49.0039902  38.1164665  79.7331543
  48.5120049  37.0637283  80.7030411  67.1449280  66.6961136  64.5953217
  66.8437500  67.5611267  64.3173294  66.9939957  66.1342545  63.8352165
  77.3933411  56.1871605  25.4920044  77.6001434  57.1217499  25.4944992
  77.1334534  55.9969521  26.3933983  38.9745560   3.5965130  88.7345734
  38.6292877   3.3739204  87.8700027  38.2352409   3.4664364  89.3284836
  37.0433426   8.2005968  40.5761757  36.5192528   8.9334002  40.2528191
  37.8329048   8.6090508  40.9311256  57.8338127  47.1867981  21.7071609
  58.0180626  48.0140190  22.1521244  58.4505692  47.1658707  20.9754467
  17.4233093   9.7886572  78.7649689  17.5116806  10.0233746  79.6887283
  16.4841938   9.8513021  78.5907135  80.8922882   4.6182308  76.7098923
  80.7350540   4.0415397  75.9622726  81.2968521   4.0526862  77.3677063
  36.8012695  61.9814453  14.2665882  35.9105873  61.6308479  14.2654610
  36.8948441  62.4003830  13.4110394  63.9543495  31.9412212  17.7826424
  64.3083267  32.2310410  18.6234379  63.5072823  32.7118149  17.4325676
  75.8086319  49.9202347  32.5899963  75.2069016  49.2212639  32.3338814
  75.5069427  50.1901207  33.4573936  58.0193138  59.9939919  17.9565163
  57.6847000  59.7155685  18.8090096  57.6267166  59.3822708  17.3337021
  27.1207714  48.7628326  72.4362869  26.3260212  48.4404602  72.8613510
  26.9261627  49.6760712  72.2256851  10.1679411  44.9971504  41.8431740
  10.9018660  45.6006660  41.9587326   9.4932432  45.5205765  41.4106903
  36.2920151  38.5940552  10.0507889  36.3895836  37.8713188  10.6707592
  36.9031296  38.3872147   9.3436928  30.7042847  10.2314701  85.0290222
  30.5236607   9.8492508  85.8878021  31.2728100   9.5935221  84.5977020
  83.8272705  32.6267929  42.4469872  83.5248489  31.7321072  42.6029129
  84.5674591  32.5284653  41.8480911  39.6367645  45.3046761  35.9566078
  38.8377228  44.9582253  35.5594559  39.6717949  46.2166176  35.6678734
  16.3588562   3.9343073  83.6761703  15.5990734   4.3088174  83.2304077
  16.1358967   3.9766448  84.6060791  74.3756409  61.2656898  64.0675659
  74.5307083  60.3216820  64.0997696  74.8390732  61.6107063  64.8307343
  77.1258698  24.8880272  61.2251244  77.4235077  25.6306915  61.7505722
  77.0070648  25.2486229  60.3464394   7.2992506  43.9271317   7.7236266
   8.0833092  44.4594612   7.5890603   7.2441859  43.3795776   6.9404359
  31.9171753  53.7810326  87.0259171  31.6683407  53.5120506  87.9102020
  32.7750626  54.1918678  87.1330261  65.1335220  34.3005447  82.9809494
  65.7328033  33.8954506  82.3540573  64.2639389  34.0173035  82.6984024
  78.7519684  39.1407585  25.5325203  78.9561310  39.0579414  26.4640198
  78.5077362  40.0596085  25.4216213  12.0796280  38.7268867  17.7433357
  13.0050993  38.6211128  17.5230007  11.8439121  37.9112206  18.1853333
  71.8038483  50.8578033  83.7904282  71.3177109  50.0789986  84.0612869
  72.4590149  50.5291214  83.1748352  78.0858612  26.5561676  51.2654533
  77.7927475  26.8745289  50.4116592  78.0204926  27.3184624  51.8406601
  33.6408958  53.4630623  37.8335152  34.5344086  53.5535469  37.5023270
  33.4424667  54.3145981  38.2230530  78.4806824  27.2542362  14.6891165
  78.6474380  27.3874950  15.6222124  77.6252289  26.8259487  14.6574574
  13.7329817  34.2773094  14.3971567  14.1681652  33.4925423  14.0640078
  13.9216766  34.9512863  13.7441788  11.1263447  45.3241806  66.4218292
  11.7404242  45.6300697  67.0893402  11.5333920  45.5702171  65.5911636
  51.0200806  10.4466820  43.0488777  51.8775330  10.3598385  42.6323891
  50.8804817   9.6071548  43.4869881  56.8977013  48.9191666  47.2616310
  56.2984276  48.1859283  47.1221199  56.3800468  49.5628967  47.7452393
  30.3285580  44.1641235  84.2522430  29.4107761  43.8924561  84.2625351
  30.3388901  44.9913712  84.7336884  58.9569778  59.9085121  31.6155529
  58.0811234  59.6210136  31.8733368  58.8344231  60.3065224  30.7536926
  78.0945892  51.9466476  71.4271317  77.6141891  51.6262360  70.6637268
  78.3152390  52.8520660  71.2085724  20.0853119   8.3552990  23.8065853
  19.2897186   8.8053169  23.5224228  19.7706547   7.5548768  24.2267570
  34.6001587  47.2517357  74.6710434  33.7003632  47.3339729  74.9870071
  34.5128860  46.8776398  73.7943039  40.5699425  14.1315823  67.6357651
  40.3740578  13.5604944  66.8929825  39.7151489  14.4525290  67.9230804
  17.1183853   6.8286099  79.8330231  16.6609135   7.6670418  79.7699051
  18.0046768   7.0154514  79.5234909  82.9326630  26.1825981  54.1455231
  82.0348282  25.8646526  54.0504189  82.8380737  27.1196823  54.3162918
  13.3645096  53.3939323   0.5738966  13.1321793  52.9020157  -0.2136783
  14.3147593  53.3014297   0.6424527  32.5256424  10.3727913  16.4342079
  31.8555450  10.0127993  15.8531666  33.0996170  10.8749256  15.8557243
   2.4865377   4.8211794  11.8358555   2.1299503   4.8458300  10.9478979
   2.3251038   3.9260442  12.1340227  72.5675583  23.2443008  56.5671349
  72.1281815  22.4759808  56.9316406  73.4008560  23.2886181  57.0360489
  46.7716560   4.5671000  42.8062439  47.6311569   4.1458611  42.8130150
  46.9513168   5.4814510  43.0251465  15.6066914  39.4114914   5.3939443
  16.1231670  39.8993721   4.7524958  15.6593990  38.5015259   5.1016808
   9.9608126  18.8740082  23.6207981   9.3508358  19.1670227  24.2977791
   9.7961388  17.9345112  23.5404110  80.1086731  45.2288971  78.8602600
  80.0081863  46.1473732  78.6101837  79.3264313  45.0342522  79.3764496
  62.0961952  36.8811493  26.5169239  61.1690559  36.7011528  26.3612213
  62.4649162  36.0353241  26.7715912  60.0357132  11.0440779  26.4030704
  59.5823898  10.2745323  26.7473488  60.6187592  10.6965828  25.7281342
   6.3784909   5.8332467  22.2547626   7.1008940   6.2640948  21.7978859
   6.0651989   6.4880600  22.8787003   1.9053917  43.7821960  36.0038185
   0.9647731  43.6163177  36.0666885   2.2812202  42.9382286  35.7534027
  15.1851244  48.3231163  28.0109901  14.6662893  47.5896873  28.3413315
  15.7622576  47.9320183  27.3551006  61.7738228  66.7734833  85.3161774
  61.1432419  66.0653839  85.1850739  62.2109451  66.8647461  84.4695206
  67.9617157  18.2980175  41.6431427  67.1451797  18.7943878  41.5872879
  68.5271912  18.8294201  42.2035713   0.7015097  64.5431671  52.2650681
   1.0497563  64.5671158  51.3737869  -0.1862085  64.1990585  52.1661949
  50.6259193  21.2675114  37.6947098  49.8082733  21.3715801  37.2080269
  50.9374390  22.1618710  37.8336563  57.0631027  17.9950199  65.8707199
  56.4153709  18.6947422  65.9547729  57.7849121  18.3939190  65.3848190
  38.1445732  60.5387650  46.9518242  37.9043236  59.8324814  47.5515556
  37.7981949  60.2610931  46.1037941  45.3027039  69.9505157  86.8236160
  44.8069077  69.4208832  86.1991882  45.2421989  70.8426666  86.4820938
  76.8467331   8.2846498  24.3183784  76.8478165   8.8788691  23.5679569
  75.9206161   8.1045446  24.4799385  25.0080185  58.3773613   8.0044279
  24.6608372  59.1835022   8.3863144  25.1610775  57.8033409   8.7549639
   5.5239406   4.2312093  38.8041458   6.1919332   3.5779660  38.5960770
   5.9083724   4.7502804  39.5105515  41.7739105  47.4319267  17.8443146
  41.6902542  46.7720490  17.1559830  40.9406395  47.9026794  17.8273563
  74.9747849  59.9192314  86.7310333  74.3859711  59.1662254  86.6809006
  74.7430191  60.4554062  85.9727249  84.8623962   4.2407885  16.2009544
  83.9511795   4.5332322  16.1811676  84.9067078   3.6455517  16.9492607
   5.0235305  44.4404182   2.9555185   5.2687645  45.1210976   3.5822291
   4.2575011  44.0199127   3.3461685  60.6745911  43.6732597  84.3649597
  61.1243362  43.4448662  85.1784668  59.9628105  43.0367775  84.2979507
  83.6278229   7.3511615  40.7012520  83.2666779   8.2166748  40.5096931
  83.8361435   7.3798771  41.6350670  75.5858459   2.6783979  37.8293152
  76.0984802   2.6630104  38.6375237  75.8722610   1.9014295  37.3491898
  69.8426285  11.1230412  69.3802338  69.9710999  10.2464533  69.7426071
  70.7215347  11.4118319  69.1345520  42.5650024   1.8605305   1.8310707
  42.6024246   1.8008988   2.7856781  43.4427834   2.1428690   1.5741347
  10.4099083  27.2693100  75.9394073  10.5909500  26.6781254  76.6701279
  10.2958164  26.6904812  75.1856308  38.2214355  30.1725788  19.1442680
  38.1262894  29.7659397  18.2829762  37.5120773  29.7972851  19.6659985
  11.7946091  58.1287041  20.5433559  11.8783426  57.9344711  21.4768925
  12.6383791  57.8749924  20.1693020  30.7924767  65.9632874  41.9324379
  31.6353836  65.9210129  41.4808273  30.7620049  66.8463364  42.3005638
  22.5516853  66.7968597  61.7793159  22.0590134  66.0678787  61.4023628
  22.9750805  66.4250870  62.5531044  38.0798454  67.6034546  26.2682667
  37.3655777  68.2204666  26.4274921  37.6668510  66.7412949  26.3167057
  17.4212570  51.2309685  70.5364838  17.1241283  50.5703850  69.9107208
  16.6157036  51.5734863  70.9237823  64.9629898  60.0072403  58.2680435
  64.6849365  60.8657036  58.5873451  64.7738037  60.0278244  57.3299522
  47.3092690  56.8485146  72.6611862  48.1094627  57.2696877  72.3472900
  47.3186264  56.9917221  73.6075668   1.2121279   0.5912095  82.6883774
   1.6588129   0.5518144  81.8427124   0.3120271   0.8351827  82.4726791
  55.9106178  15.2577028  28.5886879  55.1072960  15.6177998  28.2128716
  56.1621971  14.5558205  27.9884357  33.3361702   4.9321136   2.7324960
  34.0471420   5.1494222   2.1295631  33.5789299   5.3604412   3.5533714
  43.2158699  56.5601196  76.9828949  43.9993820  56.7579498  76.4698715
  43.0334129  55.6392403  76.7960205  49.2995911  59.1710968  74.6423492
  49.9554214  58.6103287  75.0566559  49.6424294  59.3312950  73.7631226
  67.2513733  59.3156013   2.8527052  66.4016418  59.7438927   2.9563873
  67.0374069  58.4053917   2.6478457  29.3582897  58.9809265  30.2858009
  28.6625328  59.6223221  30.1416931  28.9102402  58.1351280  30.2754097
  27.2602196  44.8186111  41.9997482  26.4415340  45.1957855  41.6776886
  27.7764530  44.6569939  41.2100563  37.3417206  70.2963333  37.2409668
  36.7614059  71.0054626  37.5177383  37.3745842  70.3721313  36.2873383
  49.6236000   3.8392098  16.3110447  49.2817802   2.9893794  16.0332298
  49.6945267   4.3450837  15.5015430  41.4548759  14.6995029   9.6324854
  40.6556396  15.2012768   9.4722443  41.5631371  14.7187014  10.5833492
  44.0664406  33.9514503   2.8803167  44.9760399  33.6931801   2.7314463
  43.5599022  33.1598282   2.6987166  54.3536682  42.2993774  29.8713512
  54.7326202  42.4108734  30.7432442  53.8128090  43.0787621  29.7438126
  15.7834129  52.4488831  74.4117279  16.6508102  52.1876793  74.1024933
  15.9535160  52.9394379  75.2158813  55.9343491   1.4971926  49.4170189
  55.5779037   1.3017366  50.2836037  55.9831963   2.4527071  49.3880653
  23.2278728  11.3388672   3.0661550  23.3144588  10.5258875   2.5683615
  22.4228878  11.7375507   2.7355726   5.2693024   4.1668978  49.6398315
   4.5531955   4.7055750  49.9763565   5.3218913   4.3915625  48.7108574
  55.3855019   6.7924228  70.2974472  56.0928802   6.9471951  69.6714325
  54.7758560   6.2189569  69.8330078  54.6098518  63.4206276  64.9176102
  54.5056801  63.7941628  64.0424805  54.0932732  63.9926338  65.4852219
  13.2838793  50.2792091  69.4332275  12.9829855  51.0164261  69.9644547
  13.7882090  50.6830063  68.7269440  70.8902206  21.8306103  33.0865746
  70.9626770  22.7452946  32.8139305  71.6314163  21.6973743  33.6774330
  26.8677120  17.4807625  46.8016243  27.1368065  18.3805599  46.6167374
  25.9620857  17.5584660  47.1016846  84.7822189  29.4462872  86.3661804
  84.1055679  29.8703346  85.8384018  85.2776947  30.1710205  86.7476196
  74.0448685  17.4625893  74.1292572  73.2317963  17.8684540  73.8285446
  74.7364578  18.0261059  73.7822952  21.8074684   4.1073585  43.3290939
  21.1151619   4.2804379  42.6911354  21.8782959   3.1530747  43.3526993
  33.8434944  53.9455032  59.3746414  32.9408646  53.8291969  59.6712265
  33.8599892  54.8247490  58.9966393  53.1949501   1.7446587  33.6980515
  53.6975098   2.3752587  33.1822891  52.2877274   1.8805643  33.4247246
  22.0374069  55.1071281  39.3501625  22.6245937  54.5908127  38.7980232
  22.5848770  55.8186073  39.6822853   4.5937538  43.9076920  50.2986145
   4.5059624  44.5702782  50.9838181   4.2593508  43.1045456  50.6978149
  64.8393784  53.5979309  87.2367706  65.4589691  52.9409218  87.5540695
  64.7659302  53.4243813  86.2983017  57.0832443  41.1724739  65.5670776
  57.8822670  41.5434494  65.1926804  57.3072357  40.2608490  65.7541580
  16.7403450  12.4855328   1.4991859  16.5490704  13.0046339   0.7180459
  16.2225094  12.8955698   2.1919687  62.0843964  56.1809616  26.7694893
  62.4256020  56.1569748  25.8754902  62.8481216  56.0141945  27.3218918
  68.5659561  33.4636955  42.7601662  67.9202042  33.9385643  43.2833595
  69.1480255  33.0618591  43.4051132  15.3730116  37.0613480  70.9043579
  15.1624432  37.9843254  70.7629089  15.1077309  36.8909378  71.8081360
  71.6918030  33.1553154  33.7857819  71.2809296  33.9307365  33.4035072
  71.0573730  32.4529839  33.6427612  39.2816887  64.5756912  87.2744598
  39.5251274  65.2078857  86.5982208  39.8753128  64.7624359  88.0017624
  59.4351578  61.7322655   7.5796432  58.9852943  61.5308647   8.4001884
  60.1482162  61.0952606   7.5348268  52.1013336  69.0092239  18.9917374
  52.7096405  68.3378448  19.3006821  51.4309273  68.5225983  18.5121708
  64.2703857  26.7734509  58.4453125  64.9879532  26.5431499  59.0354691
  63.5310097  26.9532814  59.0260162  46.0361671  59.9781075  82.3423004
  45.6910439  59.2864342  82.9068451  46.9009171  60.1729202  82.7035370
  15.1298962  59.9303017  88.2509308  15.3940601  59.1473885  87.7677231
  15.9261274  60.2149124  88.6995392  60.2143135  27.0134830   0.9884040
  59.6478996  27.4085846   0.3256052  60.0221367  26.0770092   0.9402905
  50.6818008   7.8811655  51.2075310  51.0451698   8.0313940  52.0802422
  51.4409256   7.9035959  50.6248970  45.3874931  16.5169315   0.4020206
  45.6936417  15.9526072   1.1119808  46.1831055  16.9249535   0.0603379
  16.5910931   2.1131413  72.4032516  17.4854374   2.4091055  72.5729141
  16.3676586   1.5773889  73.1643600  74.2425995  66.0612793  45.0766716
  74.7144623  65.3237839  44.6897964  74.0826340  65.7948608  45.9820251
  52.9389305  59.8427582  31.8926926  53.5502586  59.2039833  31.5259857
  52.2237434  59.3140640  32.2465591  85.1342850   5.5868607  12.8079462
  86.0175781   5.8010035  12.5076561  85.1529770   5.7592368  13.7493114
  27.8171978  45.9121933  64.0036774  27.6779461  46.3675880  64.8340149
  27.0750809  46.1747589  63.4591141  69.5886612   2.0249329  73.3926544
  70.1940536   2.0778503  74.1322021  70.1482697   1.8436731  72.6375275
  55.8248787  20.3138409  18.2589607  55.0638733  19.7495384  18.3955765
  56.5061264  19.9360638  18.8152142  21.0069141  55.3127022  32.4996986
  20.1337357  55.7045822  32.4847908  21.5695057  55.9951553  32.8657265
  67.0888367  61.7093048  46.6662750  66.6852951  62.2328949  45.9739990
  66.4654999  61.0003433  46.8245811  72.4887695  40.7403870  70.0004578
  72.3376007  40.0956535  69.3092957  72.0106430  41.5176964  69.7116394
   3.2225342  11.0384388  30.8963680   2.9606440  11.4509335  30.0732670
   2.8434451  10.1604557  30.8555183  42.7570648  54.6130905  70.1623077
  42.1728363  53.8552589  70.1868286  42.1691780  55.3683205  70.1465988
  14.9052410  42.8115730  79.6853256  15.4401121  42.2708549  79.1041489
  14.3655815  43.3368149  79.0944595  11.4237509   8.9670944  80.3137970
  10.8120365   8.2622108  80.5263443  11.5205469   9.4549475  81.1316376
  74.4538498  65.0484924  11.9096241  75.1286469  65.1090012  11.2334452
  74.4186935  65.9252777  12.2920494  64.0204849  15.9797773  48.1036072
  63.1659355  15.8563385  47.6903915  64.5628357  16.3723755  47.4195404
   3.1731839  68.6631012  11.7323895   3.9258041  69.0038223  12.2158203
   3.1730111  67.7244644  11.9199686  49.8418655  15.1703339  33.3841896
  50.6896324  14.7804184  33.5974693  49.9783783  15.5906982  32.5351372
  61.0613861  69.5257111  15.4928255  61.6975784  69.6748962  16.1922817
  61.5884972  69.2406006  14.7464333   1.8372095  22.3978634  88.8613358
   0.9372430  22.6027145  88.6077042   1.8620484  22.5562172  89.8050156
  60.4574165  68.1655197  21.7084961  60.2271042  68.9352264  21.1881676
  59.6157188  67.7989655  21.9794369  56.5720100  37.3789253  50.5414925
  56.2568283  36.4751434  50.5500679  56.5002098  37.6489449  49.6259766
  84.0934296  23.2012405   5.7191505  83.5341492  23.8612843   6.1287632
  84.4514999  22.7018509   6.4530625  59.3458519  68.2097244   3.5265024
  59.2570457  68.5545959   4.4149899  58.6003838  67.6181946   3.4235599
  50.7682114  60.0307808  88.0035172  51.5106468  59.4405861  88.1327057
  50.7734909  60.2205048  87.0653229  56.8769798  57.6418343  45.2734146
  56.7713509  57.8777733  44.3517838  56.9394379  56.6866798  45.2704926
  65.2116776   9.5179291  30.4743366  64.6663589   9.0560827  31.1111660
  65.9292831   9.8819141  30.9927940  56.2851410   8.5635929  35.4056168
  56.4312782   9.3182716  35.9760017  56.3721008   7.8058500  35.9839745
  45.2043571  58.4898605  84.5162888  44.7262688  58.8602562  85.2582245
  45.9846687  58.0961914  84.9066315   5.4136610  58.7721024  85.9485703
   4.7787714  59.4688072  85.7819824   6.2443886  59.2303925  86.0754242
   6.7639999  35.6507187  57.3958511   6.5277748  35.9522438  56.5186348
   6.0890269  36.0193977  57.9656906  50.0576668  20.6293297  34.4719048
  50.0707550  19.6731892  34.5149956  50.9426880  20.8925934  34.7242165
  19.8386650   1.4833887  68.5855408  20.0339260   1.8791715  69.4349289
  19.1187420   2.0087411  68.2363358  10.3786116  14.5204859  87.1166458
  10.3111076  13.7173042  87.6329498   9.6012344  15.0251055  87.3559647
  74.7365646  43.0475235  65.0787048  73.9547882  42.6118927  64.7391739
  74.8513489  42.6836128  65.9565582  56.5490952   4.9466782  23.9127369
  56.4908714   3.9918723  23.9472008  55.6511154   5.2356915  23.7504539
  76.3101120  70.8544922  18.4750938  76.6099854  71.7630005  18.4446411
  75.9673462  70.6858597  17.5974197  32.7444267  67.6331787  72.2691727
  33.1625481  67.4061737  71.4385834  32.6241570  66.7941742  72.7139587
  56.5672722   0.9545600  26.0914440  57.4156303   0.5402409  25.9337769
  56.5977097   1.7641915  25.5817356  54.1915779  17.8542328  60.5399170
  54.4152718  16.9462776  60.7443924  55.0134239  18.3332253  60.6465378
  10.6675444  53.0810013  46.1366425  11.3015490  53.7896194  46.2467728
  11.1727724  52.2820473  46.2871590  82.6120682  62.7279015  20.3332596
  83.4273148  63.2256203  20.3956051  82.8507538  61.9368629  19.8500214
  61.2884331  55.8841476  35.2567139  61.3597069  55.7306290  34.3145943
  61.5894127  56.7849274  35.3760490  76.1746521  52.2825737  21.2187653
  75.9756317  52.2914314  20.2825260  77.0106277  52.7432976  21.2902870
  47.7393417  71.6169968  31.2424793  46.8858833  71.3085251  31.5469227
  47.5598907  72.0168304  30.3914986   9.6861715  42.1485710  51.1515503
  10.5441580  42.4989357  51.3910027   9.5381775  42.4655724  50.2605743
  34.6441689  37.6920509  83.4076614  33.9819908  37.8253288  84.0858841
  34.6736565  36.7432175  83.2848816  63.9739304  38.2258720   5.4991779
  64.4021912  39.0783272   5.4207664  63.1559410  38.4103355   5.9608073
  31.2211819  43.6403618   6.2792253  31.9525604  43.9238510   5.7306352
  31.6352043  43.2883072   7.0671797  63.9689751  54.1552811  54.4525948
  64.9153366  54.1373978  54.5951118  63.8667488  54.5019302  53.5662460
  63.9403152  61.2033615  45.5327644  63.0664330  60.9510956  45.8309669
  64.4215240  60.3778801  45.4758148   7.6608672  40.1439896  35.8746681
   7.1087685  39.4452477  35.5236969   8.1032238  39.7459755  36.6244240
  25.9691811  32.0802422   7.3671961  26.7768002  32.4871330   7.0534759
  26.2456512  31.2282391   7.7046628  11.1715240  61.7897301  -0.1400088
  11.2793055  61.6268578   0.7970542  10.2264738  61.8835106  -0.2596666
  80.8830719  21.6163788  89.1745377  80.6010437  22.4620838  88.8260040
  81.5668182  21.3247681  88.5714645  10.3403082  62.9552155  43.3810921
  10.1216497  63.0777550  42.4572945   9.7884083  62.2257729  43.6631393
  52.3221588  47.5975227  81.5904160  53.1394157  47.4016876  81.1321869
  52.3932953  48.5236015  81.8218231   7.6777158  36.2306595  51.1948471
   8.0854273  35.6388206  51.8270874   7.8623095  35.8351440  50.3429527
  67.9273453  32.1629181  46.5417671  67.9513702  31.7611065  47.4102135
  68.5833435  32.8588448  46.5816193  86.1171112   8.5697508  35.5231628
  86.6580811   8.2032871  34.8236694  86.6081390   8.3898849  36.3248940
  68.0385284  44.9478607  88.7863312  68.5815353  44.3490410  88.2737045
  67.9872818  44.5430145  89.6521912  41.7901382  51.4222336  45.4918480
  41.6426392  51.5142937  44.5505714  41.4218063  50.5659370  45.7093811
  59.2237396  24.3622742  14.3653526  58.4575996  24.9245644  14.4797621
  59.0345612  23.8577595  13.5742092  40.2354240  25.7899647  74.3727722
  40.8793831  26.1510601  74.9820023  39.5304642  26.4372997  74.3579254
  74.0658493  11.8556967  37.9741898  74.5061188  11.3346081  38.6456528
  73.1492691  11.8758011  38.2493401   2.3564923  36.1806679  23.2715092
   2.2783222  35.4974442  23.9373379   2.0597069  36.9778786  23.7103786
  53.0262108  21.6646843  81.7136002  53.7671547  22.1852779  81.4034119
  53.0970154  21.6920795  82.6677856  44.3446960  51.6007843  23.5785713
  44.2261734  51.0140686  22.8316116  44.6956520  52.4057045  23.1975651
   9.8089752  65.5108261  25.2138157  10.1997299  65.9969101  24.4876862
  10.2966175  64.6875992  25.2408752  36.3257256  60.9327545  52.3902321
  36.9917145  60.9695206  51.7036934  35.7548141  61.6797028  52.2103462
  23.2786102   7.6446033  30.4588947  23.8839111   8.2185421  30.9284019
  22.4092274   7.9558916  30.7108994  12.4975605  48.2269478  35.5144844
  11.7865744  47.6743774  35.1898384  13.0062923  47.6516075  36.0858040
  47.6807632   0.6886938  72.1569519  48.3384933   1.3301203  72.4256363
  47.6114655   0.7995384  71.2087173  66.1113968  66.7065048  43.3318481
  66.1734695  67.5365143  42.8591347  66.9859619  66.5730209  43.6973038
  32.7375374  20.4643536  13.2880707  33.1279640  20.3070602  14.1477556
  32.4141922  19.6069660  13.0113668  38.7259369  71.5454330   8.7635412
  38.3219986  70.8964767   9.3396635  38.7370491  72.3508606   9.2806463
  81.6505814  52.0983925  25.3413448  82.0430679  52.9661789  25.2457714
  80.7091675  52.2509727  25.2595539   9.8977890  69.1686249  69.5556259
   9.3198204  68.7118225  70.1667786   9.5130358  69.0052414  68.6945190
  39.1783142   6.4471440  49.7318726  38.3342018   6.6327448  49.3204613
  39.0418282   5.6216063  50.1967316  46.2841988  32.0715446  89.0302429
  47.0266609  32.2430153  88.4509506  46.5728531  32.3829002  89.8881302
  27.3345013  44.0888481  12.9739122  28.2730732  44.1317368  13.1568689
  27.2695217  44.2075844  12.0263309  44.0581551  10.9978209  88.5787888
  43.6994019  11.8781967  88.4671326  43.3315964  10.4865150  88.9350281
  67.6998978  49.4573708  75.3344803  67.2416306  50.2940063  75.2553253
  67.9660187  49.4160194  76.2530136  21.5302944   6.2023511   7.6031032
  21.4914436   6.7327867   6.8072639  21.8565006   6.8014741   8.2745743
  49.5737686  38.0994492  60.9672928  50.0394974  38.2184029  61.7950516
  49.8080826  37.2151604  60.6855736  22.5477638  11.7636547  39.1960449
  21.8141193  11.8553276  38.5881004  22.2588005  12.2139320  39.9897575
  30.0469875  18.4125633  30.2418022  30.7567711  18.1868267  30.8430347
  29.3385353  18.7145710  30.8102379  80.4235229  47.9261780  29.0573730
  81.0997162  47.5810280  29.6403522  79.9421616  48.5551834  29.5948448
  69.5888214  25.2229195  58.0336037  69.0674438  26.0090294  58.1961784
  70.4960861  25.5142803  58.1241722  80.2826843  41.8514175  70.1132812
  81.0782318  41.3196754  70.1376114  80.5932007  42.7389297  69.9340057
  82.6287918  63.5020714  56.5837135  82.3078918  62.6108971  56.4456444
  83.5527344  63.3918495  56.8082199  52.8846779  46.9022102  41.5701370
  53.0216599  47.6824493  41.0328331  52.8254852  47.2353706  42.4655304
  78.3532333  59.8896408  75.3514481  79.0843811  59.6580772  74.7787094
  78.4899216  60.8155899  75.5518570  53.9385490  55.8085823   8.7617750
  54.1228371  56.5603943   8.1987028  53.0005341  55.8690224   8.9426317
  34.8522110  51.9149857  56.5678558  35.0164566  52.6825485  57.1156654
  35.0146217  52.2188988  55.6748314   6.9547815  62.5738029  86.5361099
   7.5389385  63.2079659  86.1203766   6.1374707  62.6415672  86.0425034
   6.8519888  57.2864685   5.9037695   6.3418226  57.8832970   5.3562689
   6.7191086  56.4253044   5.5075741  57.1273727  33.4725990  78.1046677
  57.0416374  33.5213089  77.1525574  57.9253349  32.9636116  78.2475662
  33.3022690  52.6313858  19.5008564  32.7710762  52.1075325  20.1005573
  32.6732330  53.2031937  19.0608768  13.5910988  58.4245453  10.3731585
  14.2359638  58.2523384   9.6870632  13.8087673  57.8030853  11.0678816
  24.6020088  11.3923054  87.8640442  24.1401749  11.8878393  88.5403519
  23.9578686  11.2843475  87.1642838  65.2406006   5.7877665  32.0445709
  65.3278809   5.0110297  31.4920349  65.2055969   5.4439998  32.9372215
  18.8827629  26.3960381  73.0751419  19.0974541  27.3195839  73.2062988
  18.8538036  26.0290527  73.9587250  80.8385849  36.2437363  46.1314507
  80.8765793  36.7093430  45.2959862  81.4624100  36.7055702  46.6916122
  13.2054968  49.6233292  79.5286636  14.1494303  49.7508926  79.6232605
  13.1193428  48.9958649  78.8109589   2.8333104   3.0663233  73.2598495
   3.0273983   2.6551266  72.4175415   3.6870964   3.1626027  73.6817627
  12.8825378  25.6611195  58.9674950  13.2317305  26.2238255  59.6586227
  12.3382893  26.2430058  58.4369888  16.9057178  17.4366474  81.9485168
  16.6149731  16.5311813  82.0572891  16.9305058  17.7887669  82.8382492
  85.5240555  57.1457367  58.0357170  86.0140305  57.0223007  57.2227402
  84.7517166  56.5890274  57.9367638  52.9076691   1.2503444  15.0500860
  53.5682793   1.3859290  15.7293825  53.3280678   1.5498202  14.2439785
  72.5023041  26.8230591   5.9089088  72.2687836  26.7485638   4.9836249
  73.3307571  27.3025398   5.9089971  19.2600346  54.2140503   9.4392662
  19.1701431  53.3787231   8.9805908  18.4098148  54.6399879   9.3300171
  76.1094131  43.9741402  33.8639412  76.3228226  43.2588806  34.4631805
  76.1421814  43.5757790  32.9941902  48.5982971  10.6498528  73.7972031
  49.2770882  10.7250404  73.1265182  47.7814827  10.8326550  73.3328400
  66.1229782  49.3763237  11.8434515  66.3650131  49.7879906  12.6730194
  66.2689209  50.0571632  11.1866484  83.8782730  62.4116058  87.0928802
  83.0920715  62.5411110  86.5624542  84.3788452  63.2197037  86.9804459
   2.7604837  15.6402979  13.2097664   2.2774193  16.1413307  13.8669157
   2.1093161  15.4346867  12.5389929  26.8285465  44.9545860  87.3507690
  27.6677532  44.5262375  87.5195465  26.4016647  44.9907417  88.2067413
  12.0420990  49.7553978  38.5634384  11.3749323  49.7372665  37.8772964
  12.1383553  48.8405762  38.8281479  18.1987801  60.4640579  15.0207367
  19.0663280  60.6330490  14.6532660  18.3685017  60.2065582  15.9268951
  41.9017410  11.3320713   3.2210882  42.1925926  12.0046291   2.6052134
  42.1054268  10.5043497   2.7856319  51.1039696  42.6657104  77.3081512
  50.5071259  43.3951836  77.1411896  50.7552147  41.9457741  76.7825241
   1.5064317   5.0276194   3.3098383   0.5844841   5.2659459   3.4070234
   1.8850851   5.7403283   2.7951550  66.6040192  70.3637619  32.7054024
  66.6733704  70.3315125  33.6595421  66.7593994  69.4623489  32.4233665
   0.7400259  29.7805748  17.9382286   1.2363918  29.0030346  17.6827202
   1.1743468  30.0916958  18.7324581   6.3837590  71.0528564  33.6431923
   6.4203529  71.8801346  33.1630783   6.9521899  71.1903610  34.4009590
  58.0443420  50.8053627  84.5941925  58.9403229  50.7408028  84.2636108
  57.9293289  50.0201035  85.1293259   2.1896670  44.4415550  80.1510315
   2.7388062  43.7068481  79.8773804   1.4417518  44.4168968  79.5541687
  48.6810760  11.7807388  41.8105774  48.7517319  11.7841234  40.8559952
  49.3966904  11.2156057  42.1017075  11.7180910  44.0780907   9.9459591
  10.8251257  43.8370514   9.6994953  11.8588848  44.9300117   9.5328751
   2.7258868  35.9223938  41.9967461   3.2968884  35.6542015  42.7166519
   2.6747534  36.8751183  42.0737686  57.4355431  66.9471817  68.3981857
  56.5185165  67.2151718  68.4571152  57.4817963  66.1379929  68.9074097
   2.0838482  65.5059052  49.9873848   1.6268719  65.3742065  49.1566849
   2.5620942  66.3267365  49.8701515  18.4982872  55.0612755  59.7863922
  18.5081768  54.7843018  60.7025909  18.8090668  55.9664001  59.8064346
  48.9597893  65.9930038  70.7121735  48.5311966  65.4214172  71.3492203
  49.4825516  66.5938721  71.2431259  56.4130325  53.2949867  52.2185516
  56.9384766  52.5832558  51.8530693  55.5556793  53.1968384  51.8043785
  72.7893753  34.6100502  82.0297241  71.8773727  34.5551529  81.7442856
  72.7371445  34.8665466  82.9504395  35.3295860  36.5509987   7.5363283
  35.5537872  36.9133224   6.6791897  34.8104897  37.2360535   7.9576020
  79.9001465  70.9595795  72.0834808  80.3635254  70.3404236  72.6475372
  80.5547180  71.6241531  71.8687820  86.3487930  21.7151413  29.6938572
  85.4153900  21.5276737  29.5946331  86.6167145  22.0557976  28.8403931
  46.2419128  21.2249298  77.3034821  46.7354507  20.4304028  77.1000748
  46.6390877  21.9008102  76.7542419   7.6441803  34.7881508  79.6088791
   7.8990650  35.0335960  80.4982758   6.9613695  35.4163017  79.3734436
  81.5162582  22.9861450  53.0716133  82.4104919  23.2494431  52.8542633
  81.6067657  22.4683800  53.8715897   1.5754241  19.5788403  37.9974976
   1.3640571  19.0212822  37.2487068   1.2233065  19.1085949  38.7532196
  34.3519135  69.1573639  30.0940571  33.4952240  68.8246536  29.8264408
  34.1532707  69.8607712  30.7121105  20.4609432  64.5009460  49.2373543
  19.5412083  64.3830414  49.4748764  20.6186466  63.8457832  48.5575600
  68.6655502  51.9185524  70.3181915  69.1747589  52.2885895  71.0393066
  67.7570724  52.1296425  70.5334549  45.8663101  13.9471264  17.9138851
  46.2322044  14.8210239  18.0504723  44.9287949  14.0519609  18.0760994
  66.4567871  22.1840172  25.6535988  66.7746124  22.3006878  26.5489235
  66.3241577  23.0745220  25.3285732  68.9965057  47.9590111  11.8449717
  68.6449051  47.6495781  12.6797523  68.4105377  48.6707039  11.5873442
  76.8706207  64.6696701  66.5871887  76.1039734  64.7819290  66.0251465
  76.8554382  63.7441559  66.8309479  40.0119705  70.0900574  55.9338226
  40.2334824  69.3938599  55.3153801  40.4666824  70.8624649  55.5978737
  86.5764771  49.9260902  54.9760323  87.5285492  50.0103302  55.0280457
  86.2594833  50.2720299  55.8103409  71.5852890   0.1785963   3.8182306
  70.9487076   0.6193903   4.3809910  71.0729523  -0.1243147   3.0685692
  44.6879272  66.6994324  84.5897903  43.9345779  66.2193909  84.2459030
  45.1106949  66.0842667  85.1890182  13.6943188  66.9486923  -0.1288367
  13.4833527  67.8064728   0.2398740  13.0110073  66.3688278   0.2074206
  56.2634811  69.2047882  15.2617693  56.5355835  69.9529419  14.7302971
  55.5747986  69.5516891  15.8288746  39.1852303  32.8689728   0.2011982
  38.4489403  32.9961243   0.7994800  39.8719826  33.4425163   0.5412743
  52.4681664  23.3840694  53.2766304  53.1001663  23.8097229  52.6972923
  52.2473488  22.5663815  52.8306961  68.5749130  44.4129028  12.0530596
  69.1558533  44.8244972  12.6928434  68.7862473  44.8444328  11.2252007
  66.3769226  29.0022240  28.6397858  67.1979828  29.2336502  29.0739918
  66.4863129  28.0834332  28.3946514  36.5470810  58.7483978  31.4618111
  36.6852112  59.6645546  31.2213783  35.9961128  58.3975945  30.7620926
  77.1552124  29.0462532  12.0819311  78.0348816  28.6723099  12.1326275
  76.9833832  29.1279640  11.1438313  65.0457764  29.6447201  78.5528488
  65.0201111  30.5947762  78.4389725  64.1258392  29.3836040  78.5949173
  14.7003136  14.7855682  80.9929123  13.8282280  14.8640814  81.3796158
  15.2962608  14.7961226  81.7418900  67.2787247  14.2186289   9.2514954
  67.5416641  13.9179897   8.3816051  66.3800430  14.5275326   9.1366453
  23.2704201  51.2045288  52.8356323  23.2357731  51.0597572  51.8900757
  23.1866760  50.3297577  53.2150955  68.3545761  60.4217186  38.9139137
  67.9931488  61.1854134  39.3637733  67.5994568  59.8532829  38.7625923
  78.7468872  17.5649967  64.0778122  79.1629181  16.7632599  63.7610016
  79.3256912  18.2679272  63.7826691  82.3658829  67.8251343  24.7717419
  83.2752457  67.8826447  24.4785080  82.2689819  66.9227982  25.0760956
  82.2714157  38.4191513  83.5140533  82.0165176  38.0893478  84.3757248
  82.2203064  37.6546898  82.9402771  56.8752670  55.0393181  33.2960205
  55.9410324  55.1961670  33.4332733  56.9527893  54.0868034  33.2418175
  43.1522217  59.3355713  49.2580109  43.0364723  60.0902748  49.8352890
  43.4600449  58.6371498  49.8356705  72.2454834  68.7682419  81.8862686
  72.0828705  68.9613876  82.8095703  71.4310760  68.3711395  81.5775986
  21.9826241  25.9075050   6.5786791  21.9448338  26.8541470   6.7153206
  22.0891666  25.5427628   7.4572258  35.5510674  44.9142914  17.8002186
  34.7929382  45.4206543  18.0918903  35.4385033  44.8388062  16.8526611
  18.6402550  51.1955070   0.4981005  18.7009010  50.5869980  -0.2382905
  19.4257336  51.7377777   0.4260215  50.2645531  63.1466446   9.8558922
  51.1304474  63.2845955   9.4719315  49.8075676  63.9767723   9.7206707
  81.6245804  13.7910652  70.3820267  81.0436478  13.1874790  69.9189529
  81.3458786  13.7377739  71.2962036  86.2371597  17.3481102  84.7756882
  85.5318985  17.2950153  84.1306915  87.0094833  17.0223827  84.3134689
  82.2310181  14.7737474  33.6439476  81.3193893  14.5253620  33.7971497
  82.4394913  14.4027510  32.7865486   5.9255843  49.5026665  62.9667969
   5.6956983  48.6000557  62.7461624   6.8826699  49.5097237  62.9798164
  84.8411789  27.1829529  52.3718414  84.3194351  27.9529877  52.5978165
  84.4339981  26.4664536  52.8587341  30.5145569  15.6614103  66.6307678
  30.2592201  14.7409668  66.6925659  31.1313152  15.7878008  67.3517838
  12.3609390  55.8413506  53.9930573  12.6774874  56.6827583  54.3217812
  11.6156807  56.0667763  53.4362793  76.0244446  67.3284531  83.5671082
  75.4880142  67.0919342  82.8104477  75.5276108  67.0115204  84.3213882
  77.0930634  21.1470776  21.6588383  77.0979614  21.4069805  20.7376118
  78.0076370  21.2173996  21.9324093  85.6698608  54.2022171  62.5522575
  84.8604889  53.8253059  62.2071724  86.3421707  53.5513878  62.3506165
  66.2887192  23.1979370  85.0250092  65.8885956  23.8255672  84.4231644
  65.5633163  22.8926105  85.5698013  13.4454432   8.9460421  52.9168015
  13.2391100   8.0658407  53.2312927  13.2214861   9.5205812  53.6489067
  78.9807510  19.1493492   9.3537083  78.5183945  18.5048580   8.8179026
  78.7736664  19.9911137   8.9477768  68.3854294  13.2581778  70.6115799
  68.8713989  13.2774858  71.4360123  68.7787476  12.5381670  70.1185074
  49.4047050   6.7443748  68.4044037  49.7085953   7.1142793  67.5755157
  49.2926064   7.5023255  68.9781418  54.5693169   5.7093043  78.9658890
  54.9690437   5.8442397  79.8251038  54.0510750   6.4999900  78.8159866
  34.0639000   6.3824329  60.0722008  33.9216805   6.2628922  61.0111961
  33.9496880   5.5082197  59.6994553  83.2107391  57.5555344  31.9063873
  82.2739487  57.6256866  31.7227077  83.3867722  58.2628250  32.5268555
   8.2573433  58.8280487  45.6509933   7.9532084  57.9244080  45.5663223
   7.5377927  59.2829247  46.0886803  73.7172394  12.8953199  81.6889801
  73.3552399  12.0869608  81.3260117  74.6183624  12.9199238  81.3671036
  59.3810921   1.2985964  26.5430164  59.5944748   1.4267080  25.6187401
  58.8286324   2.0474048  26.7673054  63.2089424  53.9112129  24.3293896
  63.2723732  54.8549271  24.4764194  62.9341888  53.5551033  25.1743317
  54.6432457  57.3814011  65.7557983  54.8446350  58.1090088  66.3442383
  54.3259354  56.6871033  66.3332901  15.5913477  13.5550880  63.3799744
  16.0947456  13.7327223  64.1744995  15.9703150  12.7480202  63.0317574
   0.8076015  52.9895439  53.7266121   1.4997599  52.3429146  53.8645172
   0.2639480  52.9296913  54.5121613  40.2256470  67.9636307  35.4570961
  39.8838730  67.5418167  36.2454491  40.5863304  67.2447968  34.9380379
  41.9687881  58.7108459  66.6672134  41.8098030  58.1792374  65.8872452
  42.7402306  59.2333069  66.4477997  16.0227070   4.9821620  47.5199509
  16.3906803   4.1979246  47.9271355  16.7744102   5.4196877  47.1202698
  64.9236374  60.7382584   3.5148308  64.1352005  60.5223846   3.0168352
  64.5977707  61.0140533   4.3715582  18.8566742  10.3528547  81.2779083
  19.7305393  10.2817612  80.8938065  18.8349781   9.6728945  81.9512711
  10.3744497  31.7000217  16.8742237   9.8671188  32.4164543  17.2557640
  10.1469355  31.7140064  15.9445610  79.4246445  71.9093246  69.1089630
  78.7094269  71.5852585  68.5615311  79.7483597  71.1323547  69.5647583
  54.9086952  70.0661697  26.2246284  55.5975914  70.3522339  25.6247768
  54.0950851  70.2116852  25.7418308  69.8530502   9.9091129   2.0681422
  70.4286194   9.4318962   2.6658125  69.9525681   9.4589634   1.2292787
  20.4428749  47.5886307  36.7234726  21.1942577  47.9057503  36.2223816
  19.9347496  47.0760956  36.0947075  80.7989960  56.2112465  46.6254387
  81.2031479  55.9081116  47.4384613  80.3835297  57.0412216  46.8594360
   0.1722423  49.4582138  67.0100021   0.5858874  48.6303596  67.2545166
   0.9044634  50.0514717  66.8422775  57.2138290  13.8907166  42.2994652
  57.7676163  13.8202829  43.0770187  57.1909256  14.8278446  42.1058159
  42.1795006  67.7061691  86.4673920  41.5079155  68.2676315  86.0801392
  42.9999847  68.0132370  86.0817184  18.4083710  53.7882042  80.8387070
  19.2801895  53.3944054  80.8716125  18.4504261  54.5153885  81.4597244
   4.6075125  47.3839760  62.2804260   4.1686997  46.5431213  62.1514511
   4.0548511  47.8486595  62.9088097  28.3945904  27.3999481  77.9739456
  27.7156563  27.6503220  78.6005173  27.9370384  27.3426914  77.1351395
  70.1286545  12.6779203  73.6166840  69.4741669  12.0938215  73.9997101
  70.7966537  12.7676153  74.2963638  47.6124458  18.2914848  73.9457703
  47.9572105  17.4111443  74.0953369  46.6948929  18.2379894  74.2131042
  36.8427505  16.7012081  72.2992172  37.5381203  16.1604061  71.9247437
  37.1721840  17.5972023  72.2291946  55.8537216  57.3872528  28.7787342
  55.7843857  58.2089195  28.2926407  56.5955734  56.9339180  28.3782597
  62.9766426  58.7986298  44.0481224  63.2951279  58.3044395  44.8034897
  62.0505066  58.5657616  43.9827461  39.9792404  50.8853073  13.5807142
  40.6653786  51.4251595  13.1882782  39.2030411  51.4454346  13.5783310
  50.1552925  62.9862213  78.5077133  49.6958351  63.8116951  78.3536987
  49.8361206  62.4024391  77.8195572  78.1091309  32.1082306  31.1413670
  78.4969635  31.2751007  30.8735790  78.8278503  32.7375031  31.0806446
  54.5312195  29.2134094  55.1806641  54.8503952  28.3277912  55.0073471
  54.1156082  29.4827938  54.3615608  48.0918350  69.7766571  70.4785233
  48.0122986  70.4152908  71.1870880  47.1882210  69.5597610  70.2490311
  73.0335846   2.8584595  20.2471523  72.4095612   3.5804038  20.3221092
  73.6607590   3.1516354  19.5861378  32.2556725   2.2533832  88.7279282
  32.4565201   1.3427302  88.9438095  31.3309689   2.3546727  88.9535370
  86.0155487  60.9460106  19.0140438  86.6384811  60.3174019  19.3787842
  85.9826126  60.7364960  18.0806370  42.7784843  69.3619308  35.0171509
  41.9265060  68.9256287  35.0163498  42.7056084  70.0309525  34.3364639
  75.9801941  40.5139046  84.7195816  76.8003922  40.8471718  84.3556595
  75.3052139  40.8331833  84.1206741  69.2032471  35.0151367   5.0475497
  69.2550049  35.5161972   4.2336121  68.7239609  34.2213326   4.8100805
   8.1650410  47.6313133  60.9658928   7.2786288  47.5426941  60.6156731
   8.0973825  48.3320465  61.6144485  71.6484909  57.5176277  79.2513275
  72.0927963  56.6704674  79.2175446  71.0979691  57.5307388  78.4683914
  72.7973862  54.5112686   4.9554744  72.4468002  54.5774040   4.0672483
  72.2873001  55.1433258   5.4619799  31.0418072  31.4842587   6.2256060
  31.8756466  31.9468727   6.1423616  31.1608658  30.9102421   6.9822845
  30.3097954   4.0501275  51.0610580  29.8964882   3.7529862  51.8716850
  29.6141872   4.5117216  50.5927734  43.9652214  36.5375137  74.5182800
  44.7210579  36.3036613  75.0570297  44.2904968  37.2219391  73.9334793
  56.3733101  28.5818882  -0.1148790  56.7576218  28.4544106   0.7524660
  55.8516617  27.7932911  -0.2639717  63.8676186  70.7191925  78.1108932
  64.4451904  71.0899658  78.7781067  63.0844536  71.2687836  78.1398239
   0.8618200  66.1630020  76.6371918   1.5612241  65.5784378  76.3450470
   1.3074776  66.9839325  76.8462143   7.7717037   4.1468358  77.0318985
   7.5350571   3.4483891  77.6421432   8.2176237   4.7976265  77.5739822
   5.3888192  71.7036667  79.6635742   6.0271540  71.1043320  79.2768402
   4.6369395  71.1498032  79.8736801  10.5962486  49.8991318  57.9764671
  11.1983337  49.9213142  57.2326698   9.7252989  49.9304771  57.5806198
  41.5300026  31.0336819  61.5009232  42.0796471  31.8117867  61.4077835
  41.9820328  30.3590717  60.9941711  24.4345779  12.3976030  56.0376244
  25.1306896  12.8930120  55.6060791  24.7495728  12.2719450  56.9327354
  22.6417255  36.9728966  83.5231552  22.4763050  37.5545959  82.7812042
  22.6544304  36.0952721  83.1412506  67.9325027   1.8181477  19.4258251
  68.0591507   0.9237393  19.1092396  68.5055161   2.3508191  18.8743267
   7.3395720  33.0636292  42.7820320   6.5913343  32.6075935  42.3968010
   7.8444595  32.3739624  43.2129364   2.2237148  12.7174187  14.6808767
   2.4783475  12.3147030  15.5110655   3.0279596  13.1201372  14.3534012
  36.8402901  68.0852356  61.2689438  35.9750671  68.3526764  61.5789413
  37.4257736  68.2713013  62.0029869  73.3637772  58.6903763  44.4905510
  73.6388092  57.8178062  44.2091064  73.1742325  58.5924034  45.4236641
  46.0336761  31.6628094  40.7587166  45.3280411  31.2291622  40.2788582
  45.5999565  32.3717461  41.2336082  24.0759163  60.8390694   9.0855989
  23.4098606  61.3711777   9.5208683  24.0996933  61.1718712   8.1884308
  77.4803925  38.6902084  42.9543228  77.4049911  37.7359962  42.9586678
  76.7487946  38.9907379  43.4934731  84.6590652  56.4927788  62.5116920
  84.9390945  55.5782166  62.4744072  85.2501450  56.9488602  61.9126549
   8.1867218  59.0842018  57.0884972   8.3355951  59.9507790  56.7101898
   7.8522315  59.2609558  57.9677620  68.4673615   3.6252205  25.0986156
  68.8971405   4.0558696  24.3596535  67.6131973   3.3600597  24.7575550
  79.0251312  14.1526728   9.1331310  78.7690353  14.8308954   8.5081024
  78.2188721  13.9457397   9.6057386  53.4328880  52.8816299  55.5106964
  52.8248444  53.6208801  55.5058746  52.8759117  52.1125984  55.3898582
  72.8771286  67.6927948  50.4085617  73.3883438  67.8989182  51.1911278
  71.9698486  67.6745834  50.7130890  73.3772125  21.8385105  13.2303572
  72.5147858  21.5068970  12.9804058  73.1945419  22.6566219  13.6924782
  75.1476898  49.1895523  74.1329727  75.9484406  49.7017670  74.0204773
  75.3555145  48.5708313  74.8331375  14.9801779  63.5807266  61.3394394
  15.5434923  64.1434402  60.8081551  14.6824541  62.9007568  60.7350960
  70.3552628  14.2471991  76.8354034  70.7595901  14.6722155  77.5917816
  71.0770569  13.7910414  76.4027786  37.0396957  57.9973984  25.2162418
  36.8643913  57.0600510  25.2991695  37.7527618  58.0523453  24.5800438
   3.3673539  66.1172256  44.0811119   3.2994206  66.9853592  44.4785690
   3.8350091  66.2659988  43.2592888  41.3674774  39.2964172  84.3727417
  41.0943222  38.9971542  85.2399597  42.3114014  39.1389961  84.3513718
  63.6112137  10.1034107  79.1459885  64.4431915  10.2723703  78.7038422
  63.4834328  10.8629589  79.7143097  21.2516899  58.9447632   1.2315336
  21.0451908  59.5681343   0.5351155  21.3499146  59.4852524   2.0154057
  85.0883026  24.0118656  74.6015778  84.4682388  23.6405525  73.9739761
  85.5267410  24.7127094  74.1190567  60.7456779   0.7712545  51.0175514
  61.1465569   0.9951011  51.8574448  60.0793228   0.1198163  51.2362556
  68.3893433  51.7246094  23.8042469  68.8885117  52.5382652  23.7333412
  67.4782181  51.9911118  23.6815395  19.4133739  69.7693405  36.3399048
  19.6703053  69.0485382  35.7648735  18.7392941  69.3947678  36.9069481
  75.2929382  60.4636574  43.4030266  75.0877380  59.9350777  44.1742134
  75.2053528  59.8577881  42.6671715  79.0935898  20.7897778  25.7143250
  79.6228714  20.2345543  26.2868748  78.6872787  20.1801300  25.0983105
  78.8438568  31.7957840  59.7633667  78.4523468  32.6684074  59.7248917
  78.3412933  31.2797852  59.1329651  58.9164543  12.9109926  58.4100266
  59.5529137  12.2101583  58.5513840  59.3011169  13.4476690  57.7170258
  63.7624664   1.2020947  67.9854355  63.7104874   0.2990144  67.6724243
  62.8512802   1.4909188  68.0358887  48.3391991  42.1720695  20.5822411
  47.9987450  42.9762535  20.9741688  49.2771797  42.3336143  20.4806023
  63.9313622  16.7748928  70.7970505  64.0899429  16.1622028  71.5151672
  64.3309097  17.5943565  71.0887222  31.8553772  37.7088890   2.4154756
  30.9907684  38.0794487   2.2383609  32.4423103  38.1751556   1.8202132
  72.2855072  69.8281403  31.4216404  72.6588593  70.6758957  31.6627922
  72.5633698  69.2364349  32.1208611  83.0556259  37.3161926   5.2236958
  83.3643036  36.9728546   6.0621891  83.1112366  36.5715065   4.6248779
  57.4245949  16.5651703  14.8495283  56.8250885  16.0522289  14.3075752
  57.1080856  16.4372234  15.7437773  12.9949865  64.3136139  74.8230515
  13.3767157  64.8508530  74.1288681  12.2368736  64.8144913  75.1240692
  62.7733727  70.8853531  49.5508766  63.1661720  71.2254715  48.7469711
  62.1388092  71.5539398  49.8088684  39.4141350  42.8622704  84.7705841
  38.8436775  42.5057983  85.4515686  39.5564308  42.1305580  84.1701050
  63.1352005  53.4758263  39.4297829  63.8907356  53.1831779  38.9201241
  62.5294495  53.8295746  38.7785072  14.7979298  51.8242989  64.2261581
  15.0209913  52.6725502  64.6094894  15.3224993  51.7772827  63.4268761
   4.2498336  32.2224159  84.9329758   3.9087305  31.6314545  84.2616730
   4.0183792  33.0975113  84.6217270  63.8324432  35.7460098   4.1321220
  63.6710243  36.4306183   4.7813430  63.0925751  35.1462364   4.2274995
  13.7978239   1.1777036  67.4498901  14.4808064   0.6108232  67.8082352
  12.9781084   0.7803277  67.7438126  66.5221634  50.3044624  65.7006226
  66.8740005  49.4143562  65.7127075  65.5877380  50.1903191  65.5272751
  13.3035288  52.2653885  36.0792313  14.1642027  52.3896446  35.6791916
  12.7961617  51.7980728  35.4155846  65.5393600  16.5453091  45.5886497
  66.4729004  16.6779289  45.4238892  65.1191864  16.7309914  44.7488823
   8.1036272  44.0102692  78.1583099   7.3528805  44.1786690  77.5888748
   8.8254251  44.4890671  77.7508926  74.2830582   7.3042941   8.7387924
  75.0233688   7.1362104   8.1557665  74.3448639   6.6219339   9.4072208
  80.5687408  20.1637573  27.9465103  80.4429855  20.6536312  28.7591839
  80.2813416  19.2750015  28.1556683  45.7673912  60.4740715  30.5396175
  45.6085701  59.5815773  30.2322693  46.3751678  60.8434105  29.8989716
  32.1957855  33.2010345  82.0713959  31.6677303  33.5933533  81.3760757
  31.6531487  33.2772751  82.8562317  23.2975426   5.4365301  11.2205839
  22.8299847   6.2080112  10.9005241  24.0354862   5.7920551  11.7158375
  54.9544067  14.0967455  72.8809586  55.3782310  13.7801180  73.6786804
  55.2641106  13.5059032  72.1945038  85.3967133  37.3515053  13.8771706
  86.1968002  37.8176575  13.6347008  84.7265549  38.0334740  13.9224339
  53.9206543  50.0248146  69.1913528  53.3596039  50.7278023  69.5188522
  53.3102264  49.3521500  68.8894653  30.9881973  57.6641350  13.8160963
  30.7912865  58.5091133  13.4117804  31.0790291  57.0609970  13.0783949
  41.4986954  41.7179413  23.7357140  42.2645187  42.2643623  23.9122772
  40.7581215  42.3229866  23.7769279  40.0002632  34.0207062  74.2795258
  39.4643517  33.3928185  74.7640762  40.8052940  33.5435181  74.0783997
  65.7784500   4.1665955  53.3163719  65.6598129   3.8806489  54.2221260
  66.0369110   3.3735714  52.8467522  21.5383873  39.5729523  72.1978531
  20.6844559  39.9953499  72.2906570  21.8702888  39.5044937  73.0930557
  80.6504059  46.2685547  26.9364319  80.6255722  46.8608627  27.6879539
  81.3418579  46.6211967  26.3762856   2.9240968  29.6050835  65.4516907
   2.6099966  30.3829479  65.9126663   2.4210472  28.8835106  65.8291931
  -0.1820308  10.0609941   2.7077174  -0.4256741  10.6239195   3.4425545
   0.7392808  10.2639256   2.5457435  45.6476974  40.4527817  37.2383804
  45.4223442  39.7449074  36.6347542  46.5828743  40.3360977  37.4058914
  18.5703106   2.9915142  76.0476837  19.2245560   2.5724225  76.6067505
  17.9887371   3.4448380  76.6580124  24.4024105  60.5082779  41.6265831
  23.6055183  60.2583847  42.0942917  24.7681465  61.2263184  42.1431961
  78.2360611  44.2634506  80.4179688  78.9018021  44.2478905  81.1055527
  77.4773026  43.8306580  80.8093872  81.0432892  60.4376869  63.2926979
  80.3445358  60.2116699  63.9066162  81.3622131  59.5941925  62.9717102
  68.6382675  65.7543716  28.9085045  68.0693130  65.8972321  28.1521244
  68.3749847  64.8990479  29.2481136  52.6416664  51.4308701  34.6923294
  53.3102608  50.9272270  35.1566048  52.6200600  51.0486603  33.8150139
  77.3663483  36.7382660  26.2724648  77.7741318  37.4869995  25.8373337
  77.6100311  35.9859314  25.7331638  63.4852219  23.4009399  59.0879326
  63.0601349  22.6339760  59.4717255  62.8633728  24.1149082  59.2285995
  48.5137711  24.2989998  14.1659555  48.0468979  24.0541096  13.3670244
  49.4030724  23.9704552  14.0339365  27.5375957   1.2923710  66.5142136
  27.8081322   0.5085785  66.9924469  26.6171207   1.4103131  66.7488327
  57.1931610   6.6085382  31.3136063  57.4155655   6.9148636  30.4344406
  58.0282288   6.5961442  31.7813072   2.4745560  28.6230373  29.4596882
   2.0887079  29.3722153  29.0057220   2.7865682  28.9812603  30.2906857
  59.5522995  65.4852982  34.1294060  60.5058670  65.4218597  34.1834030
  59.3865967  65.8795319  33.2730446  26.1686516  17.7167492  10.4314079
  26.9388695  18.0898457  10.0026951  25.7481136  17.1897202   9.7519827
  76.1217346  51.2010651   0.3137695  76.8027191  51.7149010   0.7478936
  76.2777939  50.3025093   0.6044180  56.5701103  68.0156860   4.8936672
  55.7031784  68.1444016   5.2784958  56.4030342  67.5374756   4.0814872
  80.8470917  28.7402267  34.0217628  81.1208801  28.0086651  34.5750160
  81.1950912  29.5161514  34.4611588  51.0953865  57.6915092  76.3629761
  50.5662270  56.9092674  76.5189209  51.1755524  58.1020050  77.2239609
  30.1663418  68.1313477  55.7555275  29.2829685  68.2898407  55.4227219
  30.1232071  67.2568970  56.1424446  27.3815422  28.0503883  16.7519264
  27.5038071  27.2881432  17.3178444  28.1621056  28.0651760  16.1980915
  79.8717728   4.1597466  11.5577087  79.1819916   4.1077304  10.8960972
  80.6653061   3.8846235  11.0985374  53.7143211  70.5961304  28.8820229
  54.4777298  71.1702728  28.8203583  53.8162766  69.9830704  28.1540184
  27.8376751  44.0840378  53.3528709  26.9376583  43.8003197  53.1925430
  27.7757816  44.6562119  54.1177368   9.9162617  57.4281998  24.7015591
   8.9889584  57.3826256  24.4686165   9.9665346  58.1325073  25.3478260
   1.2354550  34.4364662  28.9308796   0.4017782  34.2935524  29.3789749
   1.8870583  34.4380531  29.6320515  46.7845001  11.2450953  17.5817356
  46.8080902  12.1753225  17.8061295  47.0430641  11.2142744  16.6606331
  61.5697784  69.1667557  33.8487968  61.7036514  70.0871048  34.0752258
  60.6403160  69.1071854  33.6279411   5.7272615  52.3158493  29.5786133
   5.8180776  52.9213867  28.8428783   4.8188033  52.0177994  29.5327778
  43.0169716   0.8380317  86.3888931  43.4996262   1.6394005  86.5915833
  42.0979843   1.1057823  86.3875427  11.5870895  56.1602478  49.6753540
  11.6153946  57.1000328  49.8549042  10.6545029  55.9445801  49.6743355
  47.2308617  14.4666119  88.0974579  47.0766182  15.2462940  88.6308823
  46.7575684  13.7688770  88.5506668  61.0277939  40.7825966  84.1602402
  61.4180603  40.6184692  85.0187149  61.7257042  41.2005920  83.6558304
  45.2509270  49.7656479  79.7666016  44.7037811  49.1787872  79.2446289
  44.6488380  50.1519966  80.4025726  48.4931450  28.8725815  76.3138733
  48.8319473  28.5313072  77.1415100  49.1862030  29.4481983  75.9905090
  76.4596405   4.9641733  67.7041931  76.3351746   4.1832924  68.2436066
  75.5786667   5.3217931  67.5936127  34.4990387  34.4924355  71.6277695
  34.2880554  33.7780533  72.2289200  35.4489784  34.5891571  71.6947327
  50.0286598  25.4344692  74.7145309  50.0153809  24.6279602  74.1991653
  50.6540375  25.9988708  74.2600174  56.6176491  62.9526825  31.1608105
  56.6636200  63.8885422  31.3564758  55.7090302  62.7139778  31.3442879
  57.1762123  16.7071037  43.2919121  56.9055901  17.0517712  42.4409103
  56.6576500  17.2016640  43.9265251  56.7066956  29.6065598  11.3737707
  56.5093842  30.5415688  11.3184738  55.9952316  29.1828327  10.8936605
  10.2197256  22.6185493  32.2435989   9.6339445  23.0045357  32.8948364
   9.8719177  21.7383461  32.1004028  77.3403397  54.9222641   5.3425527
  77.5735931  54.5585785   6.1966939  76.8218002  54.2355232   4.9233375
  69.4585342  21.5058765  52.1245537  69.8429642  21.5558472  52.9997368
  69.2875900  20.5735931  51.9909172  27.0762291  24.1505432   5.6019893
  27.9584923  24.4504242   5.8208833  26.9452705  23.3740749   6.1462126
  44.0169563  55.4500008   9.3799076  44.7981834  55.4968033   9.9310246
  43.8542557  54.5126762   9.2741499   7.8337002  60.4241714   9.5675535
   7.4052315  59.7674103  10.1164713   8.6631136  60.6026077  10.0107994
  26.9544315  32.6141739   0.9997547  26.3713779  33.1370125   1.5501392
  27.8350773  32.8887978   1.2552496  81.9274979   5.6228266  67.7937851
  82.7172089   6.1213746  67.5839157  82.0427628   4.7887487  67.3385239
  67.0925369  68.6676407  62.6089249  67.4024277  69.5447540  62.8344917
  67.5980530  68.4273453  61.8324318  41.6743088  46.2012215  82.2009048
  41.1713104  45.4027328  82.3610382  41.3479538  46.5255966  81.3615570
   1.6429160  36.7477837  10.3779631   0.8612951  36.5096321  10.8765469
   1.7652026  36.0236931   9.7639837  76.2941437  57.6122208  36.2678185
  75.8347473  57.9347916  35.4924927  75.7162628  57.8336639  36.9980583
  56.2654572  18.9009876  88.4272385  57.1757278  18.7567139  88.1687393
  55.8429680  18.0514736  88.3005219   1.1914830  25.6606083  41.9010010
   1.2580770  24.7885933  42.2900848   0.3023176  25.6983738  41.5485954
   5.3999429  49.8712311  88.5328293   5.2157793  48.9636879  88.2905960
   4.7923226  50.0559959  89.2490005  49.4039993  16.1451359  74.3389435
  49.8507080  16.6069660  73.6294403  49.5110741  15.2180748  74.1260452
   3.6247847  14.3022432  79.5541840   3.0480800  15.0402193  79.7517624
   3.1538446  13.8019896  78.8877106  25.0405159  60.3551445  14.1538506
  25.6727810  60.4020882  13.4367247  24.5208492  61.1543655  14.0676908
  72.8858337  26.6161137  57.5818977  73.4096756  27.2356567  58.0898285
  72.8880081  25.8148804  58.1055908  64.5836945  62.9262390  71.5396271
  63.7243919  63.3177757  71.6962357  64.4005814  61.9987259  71.3898773
  37.8267746  51.6576157  22.5491085  37.7767448  50.7538986  22.8605957
  37.0692444  51.7543335  21.9720268  48.7808228  16.8095093   9.8772087
  49.7061386  16.8918571  10.1079550  48.6854286  15.9013138   9.5903082
  64.6998367   5.6488819  60.4346809  63.9200401   5.4061513  60.9339066
  64.5087051   5.3673496  59.5400085  79.8780136  53.5828590  69.5582657
  80.5932312  52.9784966  69.3596878  79.4129944  53.6847534  68.7278366
  63.8726463  32.3431320  39.5865631  64.7260056  32.3167152  40.0193634
  63.3122330  32.8291740  40.1914864   3.8366992  22.8451557  22.4839687
   4.4056516  23.2557697  23.1350613   3.2448609  23.5449066  22.2077274
  47.8229752  27.5685863   4.3074803  46.9626045  27.9850426   4.2569251
  48.3728371  28.0822411   3.7158380  27.6473274  15.3470602  14.2247057
  28.2062283  16.0118179  14.6271467  27.7851448  14.5638180  14.7574053
  11.0548191  19.5476875   1.2400923  11.0005217  18.6477146   0.9186396
  10.4061985  20.0260258   0.7236472  53.5314980  53.0138817  71.8121796
  53.4538803  52.6858864  72.7080765  53.6456985  53.9589691  71.9121780
   5.9439173  34.2543144  15.8910980   5.5645804  35.0878525  16.1695728
   5.2288456  33.6242065  15.9798117  55.8261757  31.4693947  22.5578461
  55.3634453  32.2437820  22.8779030  55.3791161  30.7334366  22.9758568
  43.7426872  66.2249680  54.4085388  43.6471367  66.5599518  55.3001022
  43.6071663  66.9899902  53.8494263  66.1336441  25.7478390  60.5313797
  66.3771896  24.8244114  60.5961952  66.5369339  26.1562386  61.2974129
  26.4765511  61.4710083  54.1046562  26.4945736  60.6533737  53.6072807
  26.7094402  62.1449814  53.4661026  37.5491753  13.5265102   1.6610575
  37.5723190  12.5706387   1.6162715  38.4532814  13.7795038   1.8476433
  74.7345123  14.6377029  64.8973312  75.2993317  13.8895760  65.0910263
  74.0437012  14.5937681  65.5584564  13.6273451  50.3052673   8.7825050
  12.8193760  49.7924461   8.7618170  13.3327160  51.2142410   8.8390427
  37.2437782  62.5303230  70.7759094  37.6720238  62.2776527  69.9579926
  36.4472961  62.9834099  70.4992218  58.1105003  13.4323826  13.6931190
  57.8932381  12.5204515  13.4996948  57.2685127  13.8874454  13.6786680
  30.4528332  50.5912209  73.4243011  30.3286438  51.4935646  73.7185440
  29.7835922  50.0922928  73.8927231  70.9745712  39.5469666  22.4500217
  70.5835800  40.2758446  21.9682617  70.9181366  39.8094330  23.3688011
  38.2941513   4.5371838  11.4010973  37.8577499   4.9161544  10.6381006
  38.9534721   5.1861515  11.6468000  59.6596832  20.3517551  47.2879257
  59.8014030  19.7660542  46.5442200  59.0557747  21.0167828  46.9573784
  80.4157257   8.7210264  45.9415245  79.9432755   8.9809361  46.7323914
  81.3394699   8.8287621  46.1680527  61.4820557  27.2197037  17.6587219
  61.8063927  28.1065845  17.5022659  60.5803108  27.2343941  17.3379784
  56.6895676  44.3352127  23.2385674  56.6352806  44.8188705  22.4143314
  56.0192909  43.6561279  23.1623821  18.7864056  68.7524338  32.9234123
  18.8341980  67.8131790  33.1016006  19.5836296  68.9433365  32.4292259
  86.2623062  33.2539520  59.1318779  85.7169342  32.5037994  59.3686638
  87.0095291  32.8712044  58.6721039  69.5663986  16.4988575  36.5294762
  69.2191010  16.6864071  37.4015083  68.8443298  16.7028236  35.9351349
   6.6376028  41.2131119  45.6227570   6.9293714  41.5278931  46.4783363
   5.7157760  41.4666252  45.5758858  26.4502125  34.8277473   2.4222651
  26.6962929  34.7758713   3.3458371  27.2266655  35.1796303   1.9869149
  81.7323456  37.1246567  31.8588562  82.3275528  37.6785393  32.3640060
  81.4667816  36.4381065  32.4707031  63.1378822  14.5151567  66.0658569
  63.8623619  14.3439178  65.4641647  63.1679306  15.4603357  66.2140732
  10.4929924  66.1932373  40.9333191   9.8869848  65.4629822  41.0586739
  11.1618319  66.0676956  41.6064644  68.6739960  42.4694748  84.1733398
  68.4018250  43.2443581  84.6649857  69.4544983  42.1572876  84.6311493
  61.4704628  55.2677689  83.1305389  60.7423477  55.5299606  82.5672150
  62.2312813  55.2583961  82.5497665  76.5762711   2.3869059   7.7670379
  76.7854233   2.3305790   8.6994076  75.6250381   2.4903758   7.7407851
  54.9896126  32.2631760  42.1936378  54.9591446  31.3321495  41.9734268
  54.0769920  32.5003471  42.3582687  35.4530907  10.4602194  68.6732483
  34.9632835   9.7052002  68.3472595  35.3754730  11.1141558  67.9785690
  42.3481216  59.8716583  29.8099155  41.9487228  59.0024757  29.7747173
  43.0141106  59.8572311  29.1225414  15.4552021   6.7463651  65.3731842
  14.7471323   6.5551825  64.7581024  15.0396471   7.2626667  66.0638199
  47.5864944  31.6815643  76.0043106  46.8901062  31.2431946  76.4932938
  47.9777374  30.9890347  75.4718018  77.6242294  43.3463974  63.1739960
  77.3077240  44.2072906  63.4477119  78.2989807  43.5354843  62.5219345
  72.7305832  65.5670242  48.1551361  73.0159912  66.0305557  48.9424820
  71.8439713  65.2701492  48.3601227  64.9574814  22.8045444  37.3332863
  65.3024902  22.4637241  38.1585388  64.5203323  23.6209488  37.5754013
  56.4012146  50.6437874  63.7903252  56.3366928  49.7914391  64.2211075
  55.6104088  50.7016220  63.2541199  65.9125671  38.5741348   1.0755718
  66.8024445  38.7884712   1.3555913  65.7126694  39.2198563   0.3978441
   3.5764449  52.8494759   7.5376787   3.8433836  53.0002251   8.4444590
   3.7955093  53.6639023   7.0849648  54.2287178  69.7325211   2.7358871
  54.5962029  68.9093399   3.0576816  53.3085289  69.5329285   2.5637023
  11.0260019  47.4736977  83.5911484  11.6762390  48.0058289  83.1326065
  10.2938490  47.4091187  82.9779510  85.5434113   4.1991696  57.2080498
  84.8124008   4.0986271  57.8177605  85.1825943   4.7104702  56.4837494
  71.5440598  42.7641373  54.0790520  71.6081161  42.0366707  53.4602509
  71.9257278  42.4243927  54.8884583  62.9779282  64.9950638  57.8444786
  62.5740929  64.8268585  58.6958656  63.1739120  64.1252289  57.4963150
  84.8264694  44.7398949  75.0438843  84.0443344  45.2036362  75.3429565
  84.8430252  43.9372597  75.5651627  49.9990616  71.5494308  17.8281231
  50.3219795  70.7232285  18.1877689  49.0554962  71.5275574  17.9876137
  15.5208902  11.3575659  83.4232941  15.8830652  10.4780560  83.5306396
  16.2729340  11.9405794  83.5270157  13.4787521  57.4721489  28.2134037
  13.5054064  58.3183556  27.7667999  12.7004194  57.0400772  27.8616276
  76.7313766  18.4327240  82.6487656  77.0546875  18.8386021  83.4531097
  76.9707642  19.0489731  81.9565506  74.8754272  17.1867752  22.2089596
  74.1991653  16.5110188  22.1615543  75.1334534  17.2031670  23.1305809
  79.2713928  26.8466473  88.5434036  78.4918213  27.0786285  88.0387421
  79.4010391  27.5860424  89.1373062  35.7991409  47.8310966  10.6984472
  36.7463913  47.9666061  10.6742973  35.4447021  48.6696053  10.9942675
  24.1727390  62.9238548  14.2206907  23.8992920  62.9946442  13.3061152
  23.8460484  63.7245674  14.6310167  48.4353638  47.2190971  54.5349579
  47.5923233  46.9082985  54.2049255  48.2296638  47.6158333  55.3814354
  77.3598709  62.0018959  14.5532560  76.5681839  61.8594551  14.0344410
  77.0996857  62.6408920  15.2167435  57.2383995  26.7664604   9.0988760
  57.7174759  26.1382999   8.5583820  57.1315994  27.5337429   8.5366468
  58.7109451  59.1146240   0.8529071  59.1450310  58.4772644   1.4199810
  59.3837967  59.3717003   0.2225011  86.3881073   6.3399577  45.6987038
  86.0061874   6.5802784  44.8545380  87.3327179   6.4182029  45.5651970
  76.0204544   1.8616688  66.1587296  76.3060379   2.1176291  67.0357437
  75.5592880   2.6303916  65.8231354  76.0898438  70.4611435  84.4025345
  76.0899734  69.5447388  84.1260605  75.1633453  70.6969147  84.4498367
  10.4241695   2.2818768  79.7582932  10.0758877   1.6896603  79.0917969
  10.4523678   3.1365156  79.3281403   2.9532743  43.1222000   4.5452147
   3.0040891  42.3457603   5.1027007   2.1471999  43.5605125   4.8179049
  28.9101715  15.2516623  84.7228241  29.3970165  15.5027599  85.5077820
  29.0030003  14.3000479  84.6775894   7.3477368  70.6780319  89.2413177
   7.3377233  71.0880127  88.3764191   7.9985957  69.9800110  89.1679764
  72.2741165  31.0201073  82.0570755  72.7921906  31.8034687  82.2419510
  71.8984222  30.7762604  82.9030228  18.1693974  65.8795547  16.4739113
  18.8922157  65.3132858  16.7442932  17.9573193  65.5900116  15.5865450
  47.3048820  57.1274109  16.9548645  47.9523964  57.6497879  17.4282341
  47.3435822  57.4548683  16.0562515  53.1004868  70.3884277  85.9120102
  53.8361664  70.0794983  85.3832703  53.4879189  71.0250397  86.5127182
  85.9827118   6.4125371   1.8424489  86.7210922   7.0191693   1.8974166
  85.3598328   6.7336822   2.4944675   7.8886542   1.9190756  20.2366676
   8.4905033   1.2312196  20.5210342   7.7227545   1.7257718  19.3139858
   6.6664305  60.9318314  55.6937904   5.7698526  61.1887436  55.9091377
   6.5686765  60.2806664  54.9990501  71.8349152  14.3772936  37.0440178
  72.4214859  14.5628042  37.7773323  71.1062241  14.9870386  37.1600075
  71.5916519  22.6675472  86.9680252  71.5958023  22.4335480  86.0398788
  70.7290573  22.3941250  87.2801132  72.4266129  19.2475548  55.0833931
  72.9532700  19.3553619  55.8753777  72.3613510  20.1295509  54.7172585
   5.0671911  49.4391556  68.3526459   4.8831530  49.3526382  69.2879944
   4.4253683  50.0768852  68.0402374  65.1268463  67.6712341   0.9727670
  65.0606995  66.7196198   1.0520869  64.2426910  67.9888840   1.1560638
  19.8835659  31.6010017  80.9741592  20.1432648  32.1059113  80.2035446
  19.6945896  32.2614708  81.6407166  60.3079872  19.2490349   0.9888620
  59.7346153  18.9830875   1.7077149  60.7221146  20.0546322   1.2982908
   9.6239481  40.2797318  53.4188881   9.9670734  40.9728622  52.8549156
  10.3317080  40.1028175  54.0385742  71.5059204  32.6890907  21.0613937
  71.6107483  31.9693813  20.4390888  71.2120743  32.2668648  21.8686180
  37.9399109  53.7419167  32.7374344  37.5809288  53.5402336  33.6015434
  38.8685799  53.9101067  32.8971786  76.7970123  42.0027847  24.4012585
  76.0505447  41.9347153  24.9965630  76.7638474  41.1989365  23.8826408
  24.7060547   2.9734981  10.5304461  24.1285191   3.7141707  10.3458204
  25.3281078   2.9676704   9.8029509  15.1956625  69.2265396  20.4777775
  15.8577433  69.5207825  21.1033192  14.3886414  69.1745758  20.9898796
  37.9737282  38.6593819   7.2656131  38.6075325  39.3237762   7.5359926
  38.4564667  37.8342285   7.3137064  83.4500275  30.9698601  31.7244377
  84.0043716  30.3388004  32.1834526  83.5350266  30.7355862  30.8002491
  24.9175816   4.4112167  40.6921234  25.7458649   4.5086250  40.2223434
  25.1530132   3.9567940  41.5010147  62.5591812  13.6330996  20.0651398
  62.4074974  14.1557407  20.8525867  62.7625160  12.7575655  20.3942699
  67.4292145   0.0643126  81.5992584  67.3743362  -0.2319405  82.5077972
  67.9414291   0.8718496  81.6411743  11.4184456  47.9552574  49.7068405
  11.7209435  48.8252602  49.4464149  10.5257816  47.9000244  49.3657646
  41.4271049  45.3503227  38.1826668  41.5820465  46.2382698  37.8605232
  40.9860153  44.9063416  37.4584084  10.3293457   2.9792171  41.6797104
  10.5158167   2.9964795  40.7410049   9.5459042   3.5202703  41.7782631
  82.3102112   6.9227200  19.2655163  82.9506454   6.6852221  19.9360924
  82.5172577   7.8315372  19.0477676  81.8975525   2.8403649  78.6146927
  81.8111801   3.5036068  79.2994385  81.3483658   2.1153095  78.9128952
  48.2862396  45.2270355  23.9851036  47.3370895  45.3507538  23.9910469
  48.4385948  44.5130539  24.6041756  27.7462940  34.2906609  66.6258926
  27.3482819  34.4282150  67.4854813  27.9851608  33.3637772  66.6181030
   2.9702699  65.5081253  79.3633270   2.1420560  65.1187668  79.6438522
   3.4218364  65.7242126  80.1791840  52.0784378  61.4529114  34.2999039
  51.8546257  61.1711006  35.1868782  52.8622932  60.9497566  34.0793610
  32.1146126  62.5953979  64.5091553  31.6984596  62.3960304  65.3477859
  32.0520668  61.7804337  64.0110092  31.6220722   2.2106609  36.7806931
  32.4490509   2.0367658  36.3311386  31.4804783   3.1504390  36.6666756
  62.3600197  17.1767845   4.9703484  62.3587952  18.1132145   5.1686649
  63.0975037  16.8270302   5.4703646  33.0281525  28.9473171  81.8785400
  33.3564835  28.1019936  82.1849060  32.3173523  29.1614513  82.4828186
  73.8578720  64.9924698  61.8977966  73.2248230  64.7260056  62.5644836
  73.6559753  64.4411163  61.1418343  81.3732071   9.5939531  67.4538040
  80.7104263   8.9215631  67.6114349  81.9222794   9.2307959  66.7589188
  30.8075027  41.5016327  82.7304764  30.5603561  42.3074150  83.1841965
  31.6863804  41.6762276  82.3938446  30.6984692  54.8382492  75.3999710
  31.2713203  54.4039459  76.0319901  31.2923260  55.3496208  74.8503647
   5.4983859  56.2861404  88.3432846   5.2229099  55.4675827  88.7559662
   6.4417372  56.3277969  88.5000763   7.5062032  32.2744942  72.0039902
   8.3404808  32.6474228  72.2888336   6.8436456  32.7949867  72.4582367
   6.9035311   4.9396973  31.2337742   7.5718389   4.8770590  30.5513725
   6.0984645   4.6444817  30.8083954  57.7872810   2.1607826  15.1328726
  57.4711075   2.0598600  16.0306911  58.6637230   1.7760941  15.1429234
   0.4261999  53.1283798   4.2133465   1.1998303  52.7388115   4.6207328
  -0.2842695  52.9504547   4.8296318  62.4124298  38.1834412  12.7739334
  61.8066521  37.4505196  12.8838997  63.1177521  37.8317757  12.2307148
  37.2829590  70.3131256  63.5097198  38.1937752  70.6046066  63.5508385
  36.9031181  70.8152313  62.7887230  47.9795647  46.3565254  74.1480865
  47.6125298  46.7677078  73.3654938  48.5807724  47.0113106  74.5030975
  81.3368225  14.2637043  85.4774704  80.9847717  15.1488228  85.5715866
  81.9997406  14.3413124  84.7913666  38.6717758  61.7957954  62.2415352
  37.7309341  61.6484795  62.1448708  38.7411346  62.4575806  62.9296227
   8.4235334  47.9886322   9.3259048   8.6702862  48.9134789   9.3248301
   8.4369087  47.7360992   8.4027147  58.1051445  60.5864906  76.0085983
  58.4492378  61.2827187  75.4490509  58.2041206  60.9238129  76.8989029
  41.5192566  61.0148849  20.0905914  41.3544235  60.7423935  19.1879234
  40.6505890  61.2008553  20.4470558  61.8938179  51.8181953  69.2582397
  62.6521835  51.9889488  68.6997070  61.5321541  52.6850395  69.4426575
  26.8782959  41.5644608  22.4741154  26.1856365  41.1006355  22.9445591
  27.5862541  41.6492424  23.1127377   0.4986159  37.2975121  77.1144257
   1.2274517  37.7603302  76.7011185   0.9168773  36.6422958  77.6729813
  42.3626747   4.9479289  30.1039181  42.7898598   4.0995336  30.2221184
  42.9059410   5.4019547  29.4597473  79.6965103  31.3398132  42.8184242
  78.8020859  31.3853493  43.1563072  80.1101685  32.1462708  43.1262321
  38.4210739  15.2642517  14.2913160  38.2092514  14.3793344  13.9941902
  37.9687233  15.3498268  15.1305332  79.1196213  49.5206451  39.4809799
  78.8372269  48.7454529  38.9956360  78.5027237  50.2044601  39.2200890
  83.2606659  55.8431816  13.8094397  82.8969193  55.8458214  14.6948299
  82.7304764  56.4803848  13.3307886  77.9522629  52.0561676  13.8924580
  77.5553284  52.6720543  13.2765322  78.8513947  51.9520340  13.5811062
   4.3152237  42.0643959  21.0547714   3.4174256  42.3959885  21.0701389
   4.8577166  42.8338013  21.2278366   2.8880398  28.0416241  13.9670000
   2.6396739  27.3925343  14.6252003   3.2140014  27.5237274  13.2309542
   0.0731214  52.8115997  39.2581978  -0.2235543  51.9178886  39.0864487
   0.6005330  53.0401382  38.4927940  78.2881012  47.8062439  11.7403336
  78.3474655  46.9477959  11.3210831  78.9556122  47.7845802  12.4260397
  45.5564995  10.4718256  67.0949326  45.9615135  10.3753090  66.2330246
  44.6353989  10.2538271  66.9525070  70.8396454  30.5369644  47.8715210
  71.3691635  30.2282848  47.1362915  71.3756180  30.3585320  48.6442642
  23.6586952  67.1816483  83.4926529  23.6413689  67.2788696  82.5405579
  23.1976719  66.3592148  83.6578598  69.7786102  55.7126923  69.0022964
  69.1158981  55.5125084  68.3412628  69.2824631  55.8212624  69.8136444
  83.7899017  14.6021357  58.6513100  84.6974411  14.3350220  58.7970963
  83.6860352  14.5882387  57.6998634  39.4757271  28.2035484  70.5805130
  39.6344604  27.9705486  69.6657791  40.0980492  27.6702175  71.0749817
  46.4242554  27.1178741  13.3904991  46.5661850  26.6473942  14.2119236
  45.9899025  26.4818344  12.8221474  80.8707504  68.2514038  15.4078283
  81.8094482  68.4030838  15.5176792  80.5309601  68.1959534  16.3009682
  83.6278458  45.1153297  81.6640167  83.1022034  44.3621063  81.3945923
  83.1685257  45.4675446  82.4263840  74.6472397  70.2898178  57.3453560
  75.3877258  69.7792282  57.0179214  74.7642441  70.2993011  58.2953339
  70.8012924   2.8772993  79.2030029  71.1328812   2.2388954  79.8344421
  71.2445755   3.6939535  79.4328003  43.4534302  51.0313530  65.9932785
  44.1360474  50.3774414  65.8427124  43.9123001  51.7680054  66.3970261
  23.9274940  52.6927872  85.2174149  23.8843803  52.0742760  84.4881592
  24.7948513  52.5543861  85.5979004  42.8758965  20.0059776  66.2378769
  42.9855728  20.2439976  67.1585007  43.7030220  19.5879612  65.9983902
  76.6562881  60.1418877  51.6203957  75.9299927  59.9192581  51.0380173
  76.2793884  60.7579803  52.2485771  12.1579599  25.2697716  25.3442497
  12.5248747  26.0372238  25.7831402  12.4872103  25.3266010  24.4472580
  66.8955231  29.3312531   6.9406266  66.0634689  29.3862877   7.4106169
  66.9909363  30.1865501   6.5215859  47.5312576  43.7840271  85.3047180
  47.9982758  44.5937386  85.0985947  48.2219048  43.1577187  85.5214615
  82.8916779  62.0527916  59.6201019  82.0057220  62.1053772  59.9786301
  82.7641525  61.8274269  58.6985893  43.0764694   9.4937935  39.2175751
  42.8197975   9.7602701  38.3347702  42.7783432   8.5871124  39.2902641
   7.4687304  29.9165421  29.6476231   6.5999780  30.0126591  29.2574139
   7.7296238  29.0207806  29.4336662  72.3262939  16.3989944  18.0730972
  71.8291168  17.2141857  18.1402588  71.9693069  15.9638271  17.2988720
  64.1917191  22.4591656   2.8081567  63.9769402  23.3319092   3.1374280
  65.0749741  22.2901268   3.1360698  56.3902283  45.5916443  76.3440018
  56.4325943  44.7247925  75.9402618  56.5796509  46.1986198  75.6285095
  64.6589966  48.5870819  25.7440243  64.8331070  48.9114227  24.8604412
  64.3431015  47.6930466  25.6130657   9.0465536  39.8874512  64.0415344
   8.9454222  39.4797173  64.9016266   8.9773254  40.8267784  64.2121353
  16.8095589  70.7417679   1.5812906  16.9182758  71.4777374   2.1835926
  17.3886757  70.0622635   1.9264256  70.6653290  24.8875885   1.1689150
  71.0834503  25.2285919   1.9595599  69.7789154  24.6571331   1.4471139
  36.4718285  26.7695312  82.1872406  36.1591263  27.1369381  81.3605194
  36.2644234  25.8369160  82.1285324   4.7868071   2.0014932  68.5655670
   5.0845342   2.5842385  67.8669968   3.9899697   2.4143171  68.8985214
  78.5898209  58.0107956   8.5521698  79.0386734  58.7583084   8.1572104
  77.6821289  58.0948563   8.2601910  86.8246918  45.3428421   9.5178766
  86.2704468  45.8292007   8.9075499  87.2887192  44.7110023   8.9686174
  51.9852104  47.6086311  52.0284233  51.4953804  47.0330734  52.6158218
  52.1586761  48.3920250  52.5503769  39.9117355  57.9875679  50.1869431
  39.8916512  57.9879684  51.1439323  40.0810127  57.0753937  49.9513168
  49.9815788  13.6685629  53.2187271  50.1388474  14.0877953  54.0647430
  49.2095070  13.1213160  53.3624420  12.3381748  52.3992119  87.4390564
  11.6833143  51.8665619  86.9877548  13.1768045  52.0845871  87.1015015
   3.2897487  31.6895580  50.5681496   4.0949092  32.2063408  50.5384407
   2.9117687  31.8841305  51.4257660  11.5526390   9.3754072  24.5364532
  12.4539785   9.5111246  24.2442207  11.4542217   8.4240856  24.5756111
  15.7030411  16.4337254  25.9245911  16.0558109  16.5886135  25.0483532
  16.0392075  15.5715132  26.1691647  37.5850677  53.8459549  58.5117188
  38.2095261  54.1366920  59.1763649  36.9720154  54.5757637  58.4235229
  84.1414032  49.7510414  75.2434387  83.2189178  49.8267097  74.9994431
  84.1405792  49.1741295  76.0072479  73.1883850  44.0129471  31.2282410
  73.3332367  43.1668663  31.6517963  73.8992691  44.5669899  31.5505848
  47.5864220  71.3078232  75.1836700  47.5770607  71.6464462  74.2884216
  46.7103424  71.4961929  75.5201721  78.7117462   9.2255030  58.4353104
  78.5314407   9.4029083  59.3584824  78.2486496   9.9177265  57.9634972
  30.5005283  42.1371002  22.0815086  29.9299030  42.0676689  21.3161335
  30.8004150  41.2417831  22.2386875  41.6946144  45.3242722  15.9937096
  42.0786171  45.2334671  15.1216259  41.6208305  44.4265556  16.3175831
  11.3592882   7.1396103  71.4688873  10.4183245   7.2970347  71.3911972
  11.5767212   6.6057806  70.7047043  42.8046303   3.5280929  65.6324921
  42.2721558   4.2800369  65.8918839  43.5941429   3.5971057  66.1692734
  84.1218414  14.8591471  23.5271835  84.3669052  15.5781965  22.9448223
  83.7732010  14.1858988  22.9428749  25.2104759  27.1254082  71.2122269
  25.6960125  26.3646545  70.8932571  25.6821594  27.3977890  71.9993439
  68.6105804  15.7430344  62.5840149  67.8374939  15.2961016  62.2393112
  69.0719681  15.0709791  63.0857086   8.9349003  52.3687744  83.7249298
   9.3903570  51.5276566  83.7611618   8.0083189  52.1431503  83.8072205
  59.5687256  69.6123199  24.2759151  60.0062943  69.0900726  23.6035919
  60.1786385  69.6126099  25.0136395  85.8144379  44.0423698  78.2474213
  85.9175797  43.1152306  78.4618988  84.8798599  44.1439896  78.0672073
  49.5493431   2.0699444  87.7718201  50.3756104   2.4994767  87.5504227
  49.2753792   1.6444312  86.9593430  12.4255619  67.7923355  56.6513977
  12.7831535  68.5774155  56.2366676  13.1161480  67.1361923  56.5575676
  63.6893616  67.6452713  16.7900677  62.8665009  67.8390579  17.2390404
  64.3592987  67.7373810  17.4675121  38.6107101  69.9073792  80.0545731
  39.4790344  70.0725403  79.6872025  38.4560661  68.9764023  79.8945541
  15.9722357  41.0877380  65.0220261  15.4909945  41.1178093  64.1951447
  16.8904419  41.0128822  64.7621765  25.7116318  64.0271683  79.1707611
  25.2966366  63.9522591  78.3114624  26.6113472  63.7329521  79.0286942
  49.0063324  42.3437614  26.8825912  48.0767403  42.4532166  27.0828667
  49.2953606  41.6403198  27.4638557  66.3616867  27.0330982  43.6471367
  66.2449722  27.1031494  42.6996651  65.6293793  27.5270748  44.0158386
  71.7744370  46.8555527  19.9887943  71.7993851  47.7413712  20.3506489
  71.5701370  46.9810410  19.0621090  11.4013214  46.5662575   8.6942005
  11.9326677  46.5972252   9.4897795  11.2572947  47.4847488   8.4664726
  20.3665562   6.1484675  29.3566189  20.3194447   6.0875578  30.3107166
  20.9267082   5.4168897  29.0972843  12.3872089  22.4230976  66.3522491
  12.8718233  22.7899551  65.6127930  12.8395500  21.6035480  66.5521469
  33.0926781  31.4158783   1.7664177  33.2204323  30.4757633   1.8932805
  33.9235764  31.7238083   1.4044484  61.0527802  68.9168701  80.1640625
  60.7627144  69.8140259  80.3289642  62.0048943  68.9522476  80.2560654
   6.7812676  49.4546928  73.2347031   6.7057071  50.2796249  73.7142944
   6.3663216  48.8073425  73.8047791  52.0460930  61.8237152  17.2629414
  51.5688667  62.3199272  17.9279671  51.3895950  61.6251526  16.5952473
  70.1133728  54.0793152  34.8116760  70.3560181  53.3263550  34.2727852
  69.2763214  53.8325615  35.2049828  61.3126793  64.4313049  64.3290558
  60.6098175  64.6093826  63.7041512  61.4654922  63.4892464  64.2556000
  31.1128426  26.3397465   8.3886185  31.5255451  25.5394611   8.0638876
  31.6602879  27.0469608   8.0474672  22.9744644  50.3478661  49.6798325
  22.0825214  50.6142311  49.9028053  22.8665676  49.5247192  49.2033653
  48.5032654   2.5149188  40.9298935  49.0180016   2.4708333  41.7357063
  47.7650070   1.9256582  41.0847321  22.3171635  22.4823399  61.5159721
  22.8194599  21.9963455  62.1699905  22.7049141  22.2279682  60.6786079
  17.4402256  31.3129005   6.8176088  17.2171116  31.1339111   5.9041457
  17.6228848  30.4514370   7.1927738  65.1331329  15.4926596  77.5575027
  65.6462555  16.2700043  77.3368835  65.7771988  14.7861776  77.6053925
   9.1680183  68.6855698  42.2174873   9.6398211  68.2016144  42.8952904
   9.8448582  69.1950302  41.7718697  23.4163494  37.4587440  34.6195259
  23.9533997  36.9368629  35.2157211  23.8055973  37.3134804  33.7571945
  85.6789474  57.7190437  12.8603773  84.9423370  57.1204300  12.7366896
  86.2251663  57.2933540  13.5211849  50.7082787  31.8288059  26.6982079
  49.8147697  31.5129662  26.8328152  51.0091858  32.0760689  27.5725918
  59.1465797  12.5278950  54.7623787  58.4927979  13.2053709  54.5896683
  58.6358833  11.7272739  54.8824844  23.5973091  46.9250870  22.8650227
  23.6845913  46.3573189  22.0993538  22.6540413  47.0587692  22.9577923
  47.8273239  23.4718494  11.6799450  47.1339836  22.8150959  11.7446661
  47.4019089  24.2306957  11.2806864   1.3505386  43.6712036   7.7778392
   0.8356537  43.0514221   8.2945547   2.2606149  43.4399796   7.9636574
  29.6154900  45.1292610  49.1010628  29.0058250  45.2803688  49.8233566
  30.1035728  44.3473625  49.3592148  50.2787399  60.2528000   7.4241447
  49.4967308  60.5923271   7.8593650  50.7663651  61.0342827   7.1638885
  82.1516647  64.4320908   0.2152566  82.9939041  64.0802765  -0.0730000
  82.1324234  65.3233337  -0.1333804  84.5911102  27.4710846  36.8182411
  84.9459991  26.7160397  36.3489952  85.0930176  28.2160873  36.4876480
  82.8499451  50.1087646  59.2320404  82.5538559  50.7436295  58.5797310
  82.0555801  49.6399193  59.4877701  62.1178932  22.8204670  20.4424858
  62.1683159  23.7039127  20.0775013  61.9250488  22.2611084  19.6900501
  24.8809395  29.1075001   1.8786161  25.5006828  29.6525440   1.3937680
  24.2102280  29.7193489   2.1819582   5.3865957  67.4780426  28.5959187
   5.3679581  68.4345474  28.5647011   5.9699645  67.2263565  27.8799820
  38.4677467  56.7921295  22.8177261  38.1288109  56.0926628  22.2590694
  38.7081184  56.3521652  23.6331310  51.2598572  34.4524422  14.8360777
  50.3361359  34.7026253  14.8556776  51.2496452  33.4958382  14.8683558
   6.2392259  28.5473347   9.3135757   5.8224921  27.7455196   8.9978905
   5.5503836  29.2102184   9.2654715  61.2124939  35.2038460  14.4570093
  60.7090721  35.6589165  13.7819500  60.6201363  35.1580544  15.2075081
  43.4897041   0.4109629  33.6381836  42.7418175   0.1774105  33.0883217
  43.0988617   0.7848884  34.4279022  45.1550255  15.1155453  11.9015017
  45.0924606  14.3519154  11.3277531  45.0709229  15.8652840  11.3123913
  77.5946350   8.3498850  60.8577805  78.2961960   8.7936506  61.3343468
  76.7941818   8.6077318  61.3149719  81.9584274   0.1253321  48.7592430
  82.1624451  -0.4361804  48.0113716  82.2617416   0.9942467  48.4961433
  28.5418282  61.8372154  47.0034943  29.3018532  62.3969078  46.8443146
  28.5227051  61.2407227  46.2551231  10.2369461  34.7818947  85.8518829
  10.8050356  35.4978523  85.5674362  10.2291689  34.8472366  86.8068161
  76.6302414   5.9196906   0.7390283  76.6759491   5.9887590  -0.2145816
  76.9184952   5.0268269   0.9285908  43.6096115  19.3130455  74.1084442
  44.2700272  19.3857994  73.4193878  43.6751671  20.1371040  74.5909958
  73.0594101  28.0220661  74.3546906  73.0972137  28.2599373  73.4282837
  72.8304367  27.0926552  74.3541794  12.6947994   6.7769227  69.0000458
  13.4494667   6.7919984  69.5886688  13.0376043   7.0901809  68.1630325
  33.4082069  42.3801765  66.4124069  33.4174194  41.4458694  66.2045135
  32.4961090  42.5671349  66.6345596   7.5453482   2.3359931  39.1375389
   8.1468182   2.9701319  39.5278397   7.2909765   1.7680775  39.8648605
  17.7898598  64.0441513  27.5662098  17.3071461  63.7427750  26.7965393
  18.4087372  63.3380737  27.7524128  33.5111923  22.0544453  80.7081985
  32.7929993  21.4863853  80.9870071  33.3459778  22.8854847  81.1535187
  39.0175667  69.6113358  29.6792202  38.8002701  69.0447006  30.4194489
  38.2214546  70.1199646  29.5251560  55.2417145  47.5671959  84.9325562
  55.4562721  46.6387138  84.8424606  54.3863487  47.6572189  84.5124664
  22.0203571  20.4458389  11.2738905  21.3677731  19.7459850  11.2977657
  21.5094604  21.2455387  11.1486044  13.5800047  71.7495117  77.4685593
  13.3813753  72.2288361  76.6641769  13.4280148  70.8315048  77.2440720
  67.6318359  69.2208252  52.1464348  68.1486130  70.0135498  52.0023842
  66.7565842  69.4447174  51.8301277  81.7307358  63.4387550  85.6633911
  80.8912354  63.2131233  86.0640945  81.6650925  64.3762436  85.4816132
  55.2053833  24.3186226  38.8015900  54.7853775  25.0690937  38.3813248
  56.0709724  24.6393623  39.0547981  67.3517990  52.7561913  46.9040184
  68.0967484  53.3409576  46.7650032  67.4985352  52.0324287  46.2950249
   4.1418338   8.1431818  64.0556641   4.5421028   7.8330493  63.2433624
   4.3542304   7.4681959  64.7002716  26.6572113  47.1523819   2.5794182
  27.4192314  47.1003418   2.0024896  26.9964447  46.9257164   3.4453139
  62.5738220  33.5040092   0.7810487  61.8024940  33.7893677   1.2707978
  63.0346298  32.9171486   1.3806185  86.1045227  37.9926414  85.3771439
  86.3501740  37.5455360  84.5672226  86.4065475  37.4096375  86.0736542
  66.0941772  46.8085785  45.2052765  66.5609436  47.4252853  44.6413345
  65.1709824  46.9356117  44.9866104   2.2518198  20.5343151  80.8904266
   1.8150131  21.2391033  80.4121933   1.5722893  20.1748581  81.4607391
  78.6843948  35.0564613  67.9680862  78.7626801  36.0101166  67.9934540
  77.8275299  34.8761215  68.3547363  29.7256298  32.7066574  18.9665718
  29.6239719  33.6474915  18.8225918  29.2491016  32.5358124  19.7789536
  63.1325912  20.4015331  56.7625504  63.7047920  21.1282215  56.5160904
  63.5875130  19.6207619  56.4468422  13.5450335   4.4103222   7.0971103
  13.6931562   5.2982402   7.4225230  13.8759356   3.8420157   7.7926416
  33.7729034  67.8601837  17.9028473  33.7922363  67.0967331  18.4799099
  34.5529900  67.7669220  17.3560371  56.8238945  42.1086082  17.9220200
  57.7456284  42.0123672  17.6824913  56.6284981  43.0309448  17.7566643
  67.0364380  24.5777912  66.8091049  67.5363541  24.8888493  66.0544128
  67.6919861  24.1840916  67.3848572  42.6272087  34.7940865  42.0590706
  42.7888489  34.5264130  41.1543884  43.1979637  35.5511894  42.1904564
  38.5935707  54.7570305  18.2355480  37.8485832  54.4578667  17.7142773
  38.4499321  55.6975098  18.3408985  62.2785645  34.1879158  17.3102894
  61.8505173  34.2015800  16.4542408  62.4825935  35.1055450  17.4907303
  64.9341583  39.0938454  39.5033226  64.5901489  39.9813156  39.4019012
  65.2393036  39.0573997  40.4098511  56.7728920  57.7123909  83.8283768
  57.3586121  58.4248276  84.0844955  55.9509850  58.1476784  83.6020432
  16.9639187  58.8512154  68.4259338  16.1358356  58.6979980  68.8809433
  16.7709713  59.5567551  67.8085098  35.9337425  51.1307640  43.7950516
  36.1901703  51.5550652  44.6138611  35.9480934  51.8342018  43.1460533
  43.2656517   2.8354828  72.7621536  44.1647148   3.1218798  72.6012421
  43.2547951   1.9172659  72.4919891  36.4657288  63.3598633   9.8834105
  37.2995491  63.8165550   9.7720127  36.6291275  62.4779701   9.5490532
  56.5680580   5.0824113  43.6734543  56.3656845   5.8797569  44.1628571
  56.7750473   5.3892407  42.7907066  63.4765282  70.1225204  67.2947769
  63.8735428  69.7274628  68.0710144  62.8203583  69.4859772  67.0110703
  51.9828224   1.4727618  21.0463543  52.1354141   1.6503859  20.1182404
  52.7429733   1.8486856  21.4902935  44.9962921  27.7720909  41.9177933
  44.7152100  27.1065941  41.2898293  44.3240242  27.7577152  42.5990295
  84.5736694   1.3033034  57.4965706  85.2637177   1.9572738  57.6078949
  84.3775787   1.0082721  58.3858032  50.0300980  24.2203541  72.2114944
  50.2913818  25.0247402  71.7632446  50.6846504  23.5745392  71.9455719
  44.4499130  46.1494865  13.5747070  44.6194954  46.1745720  12.6329832
  45.0407028  45.4734039  13.9065351  77.7893143  12.0520048   7.9796662
  78.3525085  11.3562775   8.3187962  76.9396133  11.8943100   8.3912210
  14.0409708   2.1287770   4.8560824  14.6866713   1.6740291   5.3969226
  13.1977644   1.9022580   5.2484145  81.5174484  31.2923584  53.2071381
  81.1745453  32.0968742  52.8180313  81.7847061  31.5482655  54.0899239
  47.1713562  68.2126694  88.6771317  46.8075600  68.7318649  87.9599686
  46.4067421  67.9219131  89.1741791  83.7861786  68.0995789  71.9479446
  83.7221451  68.8810120  72.4970322  84.2436371  68.3964462  71.1612854
  13.4784412  47.8383865  13.8710203  13.5366249  47.4459686  14.7421436
  13.8604908  48.7098694  13.9749041   1.5318699  36.8730659  71.6022949
   2.2690654  37.4690018  71.4695053   1.6656672  36.5187302  72.4813690
  77.2321396  54.2160683  29.4263401  76.6634445  53.5153046  29.7453251
  78.0504837  53.7751656  29.1979866  24.3231201   8.5323935  81.5148697
  24.5815353   9.4529209  81.5605011  25.0533981   8.1002903  81.0719147
  76.1996689  50.6721687  66.8938370  76.3066788  51.2633934  67.6389771
  76.4989014  51.1804123  66.1399231  35.7393646  33.8882904  64.5885239
  35.6456146  34.0061111  65.5338058  34.9788094  34.3336143  64.2150650
  64.4221497   9.0163469  65.2444534  64.5468903   9.2571306  66.1624374
  65.0890884   8.3500080  65.0788651  77.5744324  26.7298527   1.6892769
  76.8523254  27.3276005   1.4956357  78.3474045  27.2930126   1.7291409
  71.9807053  43.0791588  37.9475517  72.1102219  42.3551559  38.5601463
  71.1515350  43.4748039  38.2162056  44.4615936  48.5766869  57.0133743
  43.7712402  49.0040512  57.5203247  44.2327118  47.6474571  57.0327950
  79.6178894  36.6892395  41.2481194  79.2934570  37.4185715  40.7198677
  80.4568558  36.4589729  40.8489380  64.3172760  50.6696358  81.7025146
  63.6521721  51.3454247  81.5714264  64.8547897  50.7059288  80.9113159
  82.2580490  23.1099701  58.5040855  81.5231094  22.9464798  59.0951614
  82.2710342  24.0608902  58.3953819  75.4698639  40.9011765  22.1537132
  75.0368881  40.4477463  21.4304104  75.1763153  41.8090401  22.0772724
   7.0274310  53.8384247   1.8876125   6.4225259  53.9122849   2.6257632
   7.6786518  53.1983452   2.1747377  70.1383438  61.7327690  47.2391434
  69.6752396  61.4014702  46.4697227  70.5222855  62.5604248  46.9496460
  51.4288521  44.0410271  26.3830662  51.4658852  44.0773506  25.4272728
  51.0551376  43.1811218  26.5757675   4.3225861  68.3930893  38.0443954
   3.8629858  67.6676865  37.6215668   4.3543487  69.0782089  37.3766823
  54.4191589  71.0044250  36.2000275  54.1656151  70.2900925  35.6154976
  53.5890961  71.3834915  36.4890404  31.2295933  60.2211838  22.5693550
  31.8401356  60.8085480  23.0148602  31.7881126  59.6513634  22.0405884
  38.9857635  60.0774536  57.6759834  38.2638397  60.4779053  58.1604385
  39.6259499  60.7817993  57.5745277  41.9974709  67.5331268  15.2792273
  42.1322365  66.6998520  14.8278589  42.8812256  67.8604584  15.4467239
  47.3353233  24.5073566  86.8431931  48.0749817  24.2684250  86.2845764
  46.7911911  25.0701733  86.2923889   4.7731972  10.7611542  44.4994850
   4.5543771  10.4064255  43.6377907   4.6778383  11.7083635  44.3998260
  44.4249382   3.2321725  86.3968353  44.4044189   3.6094112  87.2763214
  45.3239288   3.3695381  86.0982132   8.4273195  40.2047501  55.9488602
   8.1507473  39.2936859  56.0473633   8.9028778  40.2222290  55.1183357
   3.7129924  53.2269630  22.3268890   3.1198008  52.4805336  22.4117470
   4.5875263  52.8501511  22.4240246  56.7120743  22.8240566  66.4291992
  56.4203300  23.3717880  65.7004242  57.5915909  23.1430683  66.6314621
  54.7541351  49.8200569  86.6830978  54.8929634  48.9072876  86.4304733
  54.4947014  50.2563667  85.8715820  66.8234100  12.5893774  16.4301376
  67.1282730  13.0165243  17.2306595  65.8714828  12.6867771  16.4543018
  78.2122955  57.5387459   4.8284726  78.1030579  56.6220703   5.0814605
  77.3355865  57.8215332   4.5683718  83.8954468  64.4327545  78.2153702
  84.3220367  64.6605453  79.0414276  83.6242371  65.2731934  77.8461304
  84.8977280   6.1732392  67.3210526  85.4196320   6.9230132  67.0352478
  85.3169174   5.4182644  66.9081039  84.5840988   6.1756411  60.1504669
  85.0997696   6.9126830  59.8232346  83.9047623   6.0460649  59.4886932
  77.1623383  60.5317307  22.4598255  76.4815445  60.0956612  21.9473839
  76.8725815  61.4422073  22.5173759  68.3877335  18.2993031  11.7199335
  68.4245911  17.8833733  10.8586111  68.5139008  19.2312222  11.5414820
  83.9200363   1.8221434  27.1828823  83.9257584   2.7250249  27.5006943
  83.9972229   1.9023776  26.2321796  68.1389923  53.1394196   5.7581949
  67.7390137  53.9458694   5.4327941  67.4183578  52.6649704   6.1727037
  68.7321014  48.4037132  78.4733124  68.1758652  48.5989761  79.2274323
  69.5585327  48.1082840  78.8553696  65.6956482  39.4421425  27.5958366
  65.5173035  38.5634689  27.2606316  64.8656235  39.9087830  27.4981766
  11.3146477  28.2691326   7.8891587  10.4876270  28.6668549   8.1613445
  11.2116623  28.1219883   6.9489594   3.2991083  68.5704803  60.2961006
   2.9441066  69.4588547  60.2643394   2.5323386  68.0031433  60.2159920
   8.5698271   5.4812865  10.6240578   7.7154813   5.7615280  10.2957458
   8.4048023   5.2221770  11.5306225  84.7952805  60.6806526  88.8667145
  84.5593948  61.2368317  88.1242447  84.4679947  61.1522102  89.6327133
  34.7450638  58.2854118  51.7287445  35.0103912  59.0915756  51.2861023
  34.2788773  57.7862434  51.0581245  27.2602139  47.5248985  17.9583054
  26.8075371  47.8656464  17.1868095  28.0596600  48.0479889  18.0174255
  10.9436140   0.7375453   8.3685293  11.2646942   0.7532206   9.2701349
  10.0767965   0.3361849   8.4299183  45.9595604   2.9340224  75.1290970
  45.0347633   3.1543033  75.0174789  46.3690033   3.1940551  74.3038940
   3.0016735  40.9473152  18.0455647   3.5602715  41.7219658  18.1097298
   3.4691205  40.3637924  17.4478798  68.5403137  42.5082970  16.6313419
  68.4879227  42.2899246  17.5618267  68.6183395  43.4621391  16.6132011
  36.7882843  42.3273315  65.8971786  35.9082031  42.7019730  65.9337540
  37.1143074  42.5659866  65.0294342  10.6832237  40.2033081  76.5999908
   9.9789686  40.8060760  76.8385925  11.1345367  40.0237694  77.4248047
   0.0052579  27.0652676  34.4059944  -0.5078617  26.3096867  34.6924171
   0.5744206  26.7212067  33.7175827  47.8739510  22.8817844  75.6145554
  48.2158928  22.4239159  74.8466644  47.4551201  23.6657009  75.2591858
  47.4617882  61.1725540  28.6749687  47.6937218  60.6552734  27.9036980
  48.1114769  60.9257050  29.3331490  13.8639135  40.4900932  22.3727016
  14.1819725  40.2924423  23.2536125  14.6483974  40.4696350  21.8246155
   2.1606319   6.2746639  74.7439346   1.3374524   6.1576405  74.2696838
   2.0866046   5.6918736  75.4996490  86.3495712  39.7760849  25.5193958
  86.9617004  40.3846970  25.1057358  86.9056702  39.1851540  26.0271149
  41.5256462  70.3606033  73.4807816  42.0540276  69.8013382  74.0502243
  40.6508713  69.9730759  73.5092697  54.0308113  29.1104908  81.8032684
  53.2857399  29.4383907  82.3068390  54.4217491  28.4397469  82.3631744
  34.3085213   3.9520607  58.7982178  33.5941124   3.3790109  59.0765533
  34.1784363   4.0564990  57.8556671  61.9193382  66.0537033  12.9223013
  61.8097878  66.9862518  13.1082563  62.3693352  65.7070923  13.6927538
  64.0897141  10.8124971  73.4883804  63.7337036  11.6798859  73.6810608
  63.5030708  10.2067814  73.9413605   6.7374945  47.7892914  15.8951473
   7.0201159  47.4902802  15.0308847   7.3984580  47.4448204  16.4957314
  54.0434189  12.0012445  32.1518326  54.5674629  12.4175863  31.4675331
  53.2396965  11.7316475  31.7073326  41.2274017  15.1988630  81.4814072
  40.7415085  15.1411276  80.6587219  40.7690163  14.6018162  82.0727158
  37.7592812  28.7379818  16.5079441  37.0174522  29.1007080  16.0238495
  38.5114059  28.8756237  15.9320993  14.0308828  67.2949677  23.5286007
  13.7731180  66.3864899  23.3722324  14.0475473  67.3784943  24.4820042
  61.2734375  21.0544891  44.5829391  61.4104576  21.1042290  43.6369019
  61.1122971  21.9595833  44.8495255  26.7660847  71.5271912   9.7423944
  27.6518459  71.1863708   9.8669024  26.6746235  71.6155777   8.7936821
  73.7391281  16.3445606  30.4409561  74.1254349  15.5641441  30.8383827
  72.9380112  16.0288677  30.0228786  16.7706070   7.8993711   3.0133069
  15.9552574   8.3442554   2.7819707  17.1884327   8.4803591   3.6489995
  84.4419556  41.1952667  26.9788914  84.9154358  40.4264717  27.2966976
  85.0677490  41.6437912  26.4101791  69.7075043   4.0779657  22.5515499
  70.2690887   3.3032129  22.5763397  70.0605164   4.6068711  21.8360977
  51.5614624  68.8662949   1.4815365  51.4992828  67.9437866   1.2338659
  50.9528542  69.3136826   0.8935973  27.0402699  66.2370300  56.4842110
  26.8708382  65.3632736  56.1319733  27.7383709  66.1054230  57.1257477
  79.5803223  39.0494080  83.0427628  79.4431381  38.4337578  82.3227692
  80.5220871  39.0156631  83.2105942  20.7545929   2.8056254   9.2061291
  20.4994469   3.3415928   9.9570427  20.0920200   2.1158602   9.1680136
  78.0449219  14.1232023  76.0324707  77.7365494  15.0180416  76.1752930
  77.8533936  13.9480486  75.1111298   5.6263056   2.8418148  72.6761398
   6.2216964   3.5432632  72.4121170   6.1308737   2.3222840  73.3020248
  52.1834641  33.9673233  68.6958771  51.6809311  34.7237816  68.3934555
  51.5682869  33.2356758  68.6461105   5.1868520  16.6690693  63.0763588
   4.9090047  16.9966068  62.2209358   5.9614353  17.1885719  63.2916946
  21.8232708  48.3133583  33.3144341  22.3164864  48.6858215  32.5835190
  21.4520893  47.5032806  32.9648170  52.5935440  15.8914165  56.8970909
  52.9380074  15.0352306  57.1511078  53.1520958  16.5197029  57.3548126
  10.0333395  54.2279091  74.9641800  10.8282785  53.7033310  74.8686752
  10.1039448  54.6129150  75.8376923  18.6511307   9.5937376  67.8623810
  18.1020184   8.8558025  68.1272583  18.2160358  10.3613634  68.2334290
  59.6310349  59.0276337  65.4887924  59.2268105  58.6178322  64.7240067
  59.5545959  59.9676590  65.3252640  42.2901306  46.5675354   5.4836020
  43.0727425  46.1144791   5.7974396  42.0499229  47.1549873   6.2001419
   3.5904300  10.1317196   9.2263556   3.2519403  11.0122042   9.0638628
   3.7005756  10.0889826  10.1762362  73.4052200  67.7591476  53.3104477
  74.0674362  67.1028137  53.5270844  72.6032104  67.4343338  53.7197227
  -0.0416632  24.2383595  17.2941570   0.2203634  24.4431934  18.1917191
   0.1800072  23.3135929  17.1850586  51.0118752  65.1362381  42.0644417
  51.2120132  66.0550461  41.8856125  51.1917000  64.6868286  41.2386551
  82.0572281  18.3957863  48.5519180  82.4073105  18.3689766  49.4423981
  82.2186203  19.2923336  48.2580032  71.7678375  22.3383389  51.0953484
  70.9687042  21.8117752  51.1137619  71.9666595  22.5042076  52.0168610
   4.6572289   0.2706934  39.0476570   4.1609883   0.8119295  38.4336205
   4.1100569   0.2355615  39.8322563  31.9683266  56.1643829  80.7932510
  31.6214066  56.9550552  81.2064285  32.7846451  56.4477654  80.3814926
  55.3044662  16.0845165  83.3251114  54.9190903  15.3810854  83.8475113
  56.1759453  15.7622185  83.0951614  61.2950592  22.0886440  23.0510101
  60.9416618  22.7108021  23.6868267  61.5518837  22.6293583  22.3040829
  54.9935532  65.2036896  51.7114067  54.6766472  64.7227707  50.9468689
  54.9005547  66.1252975  51.4701042  23.0175667  41.6899719  74.4729462
  23.5680981  42.3728638  74.0897980  23.0911198  41.8250351  75.4177094
  66.8869476  22.3345032  22.4970760  67.1831131  23.0936241  22.9993248
  67.0505981  21.5876350  23.0729580  13.3178310  47.8325500  70.6178513
  13.2369022  48.6871872  70.1944427  14.2382793  47.7788467  70.8749924
  81.0711594  47.9434395   3.3230085  80.6158676  48.4858475   2.6790102
  81.3144073  48.5526199   4.0201192  25.6703453  46.7274742  24.5434341
  24.8357658  46.7978210  24.0800114  26.0839920  45.9469719  24.1747303
  54.1132011  11.9000492  46.9032555  53.5384674  12.6484632  46.7426643
  54.3450127  11.9704437  47.8292923  43.2455406  60.9766731  25.9717331
  42.3564758  60.9248352  25.6208668  43.4950714  61.8936729  25.8573818
  46.0294304  38.9149666  53.6988869  46.2743530  38.9528465  52.7743263
  45.6436386  38.0459099  53.8090477   3.2064240  70.0806885  80.1642456
   2.7379367  69.3660049  80.5955124   2.5394704  70.7521286  80.0208206
  44.4693756  20.2614403  69.0329742  44.2869873  20.5780468  69.9176941
  45.0849419  19.5393658  69.1591492  17.2137852  28.5256310  69.8382568
  16.4322166  27.9890537  69.9704285  16.8804016  29.3529358  69.4909058
  41.2251015  11.7315178  77.0782928  41.4243431  11.4534225  77.9722748
  40.3124313  12.0178242  77.1143188  40.9737091  37.3087845  88.4604797
  41.5680008  36.8166733  87.8940201  40.7020683  38.0575905  87.9296875
  83.1198273   5.8722768  33.1647072  83.4524765   6.4692502  32.4944801
  83.0291290   5.0327296  32.7139664  23.8473206  28.9872475  87.8572083
  24.4732094  29.5763168  88.2785034  24.3918648  28.3421383  87.4060516
  39.1793671  50.1200256  74.7605133  39.6229858  50.7598610  75.3173294
  38.2628632  50.3961487  74.7616653  47.5352783   4.8518806  57.8308601
  47.9711800   5.1478763  58.6299896  46.8346481   5.4887328  57.6902542
  22.8098164   6.0312052  40.2063332  22.7749233   6.9000502  40.6064873
  23.6352863   5.6580806  40.5155411  33.3421326  44.4336662   4.5481524
  34.2624435  44.4130898   4.2857866  32.9691010  45.1650848   4.0561156
  10.9883146  30.9457970  63.2821960  11.0069141  31.3146267  64.1652832
  10.9303417  31.7076492  62.7056084  41.2606354  23.1760693  62.5337563
  40.8730240  22.3433590  62.2643433  40.5496445  23.8108559  62.4456253
  38.3098068  20.5205498   4.7192307  38.9929619  20.5099182   4.0488424
  38.2057686  21.4459915   4.9405165  86.1019287   6.1634121  40.2072487
  85.1848831   6.3883429  40.3642998  86.3957062   6.7981706  39.5537910
   1.4469665  10.9831915  34.2386856   2.3143666  11.3725080  34.3495064
   1.4455370  10.2295246  34.8287849  83.8083038   7.5588932  43.5195808
  83.5967636   8.3912764  43.9422188  83.3082581   6.9070077  44.0107346
  57.0245399  48.4682999   4.9375939  56.8958054  48.1172218   4.0564547
  56.5456123  49.2970695   4.9375405  72.1003647  48.2080727  83.8677597
  72.8414383  47.6462593  84.0944977  72.2254181  48.4065704  82.9397507
   5.3604403  11.1079502  82.5522842   4.7876043  10.6740713  81.9199524
   5.8093901  11.7837782  82.0444107  12.1005888  55.5943604  79.5621719
  12.7569189  56.2341003  79.2861328  11.2963848  56.1039009  79.6614685
  28.7043438  47.1564598  79.9260864  29.0050240  47.3698349  80.8094330
  29.5086842  47.0127525  79.4274750  21.6677017  62.8835526  68.2923660
  21.2741528  62.1184959  67.8727951  22.4843025  63.0256996  67.8136292
  23.8811092  49.1853180  34.6397171  23.0396080  48.8801956  34.3005867
  24.4746723  49.1322441  33.8906517  83.5023651   5.1262035   2.7442040
  83.9559174   5.5581636   3.4680359  84.1474228   4.5153670   2.3878100
  57.4842873  69.3058548  61.9211617  57.5222092  70.2582932  61.8337173
  57.3070068  69.1574783  62.8500252  83.8838196  65.2210693  86.9619980
  83.1195450  65.7190704  86.6719818  84.3514557  65.0080872  86.1544189
  20.2744846   3.5618703  37.1453667  20.0953712   2.6383739  36.9684372
  19.4188347   3.9870770  37.0879593  79.6848068  25.4944992  53.3398361
  80.2003937  24.7457504  53.0402031  78.8726883  25.4431763  52.8357887
  61.2819939  56.5359535  49.2118378  61.3902435  55.6672058  48.8248024
  61.5674858  57.1405754  48.5268860   1.4869688  58.0092964  53.3268166
   0.7919145  57.3516045  53.3029022   1.0468485  58.8129349  53.6037560
  34.7617264  67.1609268  32.8258591  34.9439964  66.3864899  32.2936401
  33.8370590  67.0789108  33.0592918  37.7121582  70.3452148  15.9769859
  37.1797295  70.6353912  15.2363453  38.4807701  69.9401169  15.5752792
  46.0189476  25.5658302   6.9288940  45.2139435  25.4833851   6.4176126
  45.7893944  26.1607075   7.6427984   0.8886754   8.0125217  32.4133644
   1.8184720   8.1988306  32.2829857   0.4578702   8.3981037  31.6504993
  56.0144081  45.2870483  11.0265894  56.8572769  45.7253838  10.9096909
  55.5185814  45.8706055  11.6009111  24.3238850  45.2953377  76.3689728
  24.7790699  45.8230934  77.0251083  23.8616905  44.6283684  76.8766708
  47.2400169  20.9099178  37.5281143  47.8797379  21.4689999  37.9690399
  46.5199509  21.4997807  37.3049431   9.6645527  16.9642677  29.4499264
   9.0582447  16.8792515  28.7141323  10.5051098  16.6648254  29.1034718
  45.2281990  64.7192078  31.1259727  46.0338211  64.6800842  31.6414070
  44.8047676  63.8744888  31.2788925  16.7172756  66.7664642  88.0937805
  16.7005119  67.0893478  87.1928329  15.8422260  66.9558334  88.4323959
  25.5092964  57.9851227  17.9424515  25.5076332  57.6827011  18.8506203
  25.5833111  58.9372559  18.0072079  32.2297592  15.2735796  89.1756821
  31.8475361  14.7305717  89.8650894  31.6199684  15.1937618  88.4421844
  72.5870361  48.3507423  33.3230667  71.7362061  48.2350883  33.7460899
  72.8905792  47.4599686  33.1480942  20.3550606  56.4273415  74.1838379
  19.5717583  56.9584999  74.0405273  20.9303226  56.9852867  74.7072906
  42.1355515  63.0114174  48.8966141  42.5233154  62.8148193  49.7493820
  41.2031136  62.8266907  49.0091743   7.1821208  32.3180199  69.2090530
   7.6293936  31.7263203  68.6040115   7.7637210  32.3695297  69.9675446
  32.2576866   1.9942468  16.2996922  32.4049988   2.9381657  16.3592644
  32.0918999   1.7203084  17.2017479  82.7223511   4.3789673  70.3160095
  83.4596405   3.8394778  70.0303726  82.7058258   5.1090021  69.6971359
   3.5492382   6.4972014  13.5657635   3.7777076   5.9294710  14.3017769
   3.1651704   5.9064975  12.9178495  30.1781139  55.9059753  86.6418457
  30.7842445  55.1709213  86.7342377  30.5777607  56.6113853  87.1506805
  56.7955017  18.8512650  27.0710468  56.2986298  19.5356331  26.6227264
  57.4056816  19.3279343  27.6338081  39.2514153  38.4133911  78.0059967
  39.2145767  39.2045593  77.4684830  39.4210434  37.7076035  77.3820419
  79.1941223   9.9634590   0.9128554  80.0831833   9.7803020   1.2165992
  78.9945145   9.2469997   0.3102982  38.8148346  54.1841164  43.0572052
  39.6370850  54.2207756  43.5458717  38.9065971  53.4177055  42.4911423
   8.8641148  41.2194214  59.9503479   8.6252403  41.8462868  60.6331444
   8.4993534  41.5900383  59.1467171  10.1184454  34.9570503  72.2677383
  10.8225756  34.6066742  71.7221527  10.4821796  34.9636879  73.1531143
  49.5350113  28.0275536  38.3700523  50.3714485  28.0569935  38.8345299
  49.1763344  28.9097595  38.4664574  69.4570923  13.1775713  28.3139439
  69.1261063  12.9914579  27.4352837  68.7419128  13.6452990  28.7451954
  72.2987213  23.6616859  25.7941570  72.2618256  22.8031673  25.3724766
  73.0456238  24.0979652  25.3842411  85.2767029  43.7648811   2.9756076
  84.9070282  42.9123192   2.7460079  84.6446075  44.3990173   2.6371412
   7.4846897  33.0388870   0.8568216   7.7773185  32.9719963  -0.0520930
   7.8022599  32.2361717   1.2703760  36.1809692  39.4141769  72.1432724
  35.3676872  39.3786621  72.6468048  36.8440094  39.0563049  72.7336426
  64.3115005  13.3638954  79.6601105  63.7095146  13.8542700  79.1003036
  63.7520714  12.9811850  80.3359833  23.5776539  30.9675941  21.5028515
  23.1384163  31.8080196  21.3725128  24.4311905  31.1978149  21.8698750
  50.5849838  55.9310036  33.9291801  51.4124336  55.8373108  34.4011803
  50.0986824  55.1333313  34.1376419   1.7418220  65.6552811  16.0187492
   0.8189665  65.8857193  16.1258392   1.7267767  64.7790070  15.6338530
  38.6802368  44.6799278  12.6137381  38.8625221  43.7752304  12.8677626
  37.7284813  44.7594681  12.6774712  80.4194946  52.3730125  87.2280884
  79.6315308  52.8989258  87.0911102  80.5542679  52.3858261  88.1756668
  61.5323601  30.1388359  17.6055965  60.8451881  30.7929401  17.7327633
  62.3409538  30.6482658  17.5518360   2.4672835  42.0250549  32.6123466
   1.7929684  41.4023056  32.3408394   2.6860566  41.7660446  33.5074921
  17.4058418  70.1832047  27.4818287  16.7800140  70.3158493  28.1938534
  18.1883430  69.8382721  27.9118748  75.9867249   8.7417212  63.4024773
  75.6324387   9.6296291  63.4507561  76.8085251   8.7848434  63.8913689
  84.0698166  30.0210171  29.2503757  84.7273560  30.5859890  28.8445625
  83.7244034  29.4977283  28.5271244  38.4070663  15.4350805  68.4722443
  37.9130859  16.2549648  68.4696198  37.7392731  14.7533484  68.5465775
  85.5580673  63.4096832  20.0138855  86.1700745  63.9241943  19.4876156
  85.7617264  62.4999161  19.7969208  45.1697235   0.4073352  64.8558655
  45.9548683   0.8705873  64.5640106  45.2270241  -0.4501848  64.4344330
  69.1216583  19.5659161  37.4710312  70.0284576  19.5890141  37.1653900
  68.6467438  19.1079483  36.7775192  55.5682831  24.0335140  30.9614944
  54.8590775  24.2627068  30.3608856  56.1277657  23.4428654  30.4571724
  53.9272537  61.0094223  14.8914223  54.1105385  61.4718437  15.7092295
  53.0493164  61.2995071  14.6438217  56.7817268  35.6357498  23.7380562
  56.9787827  36.5690956  23.6589031  57.4693184  35.2020874  23.2327003
  55.1135674  18.1771812   9.9802237  54.5561256  18.0343380   9.2153158
  54.7638130  18.9700394  10.3867731   4.9903436  52.0115776  18.0216351
   4.9943457  51.9742470  18.9780979   4.2496228  51.4629440  17.7636261
  37.2226105  71.6536636   3.9589868  37.5247421  70.9975510   3.3309214
  36.7856445  71.1467667   4.6433449  77.9044647  37.4286690  84.6480789
  78.1134720  36.7873421  83.9689255  78.5933685  38.0890884  84.5740128
  55.1564331  46.8622627  67.5807800  54.9283714  46.0144691  67.1993713
  54.9074211  47.5004349  66.9122314  59.3434525  42.3550072  78.7689133
  58.5397110  42.7573051  79.0981293  59.7422905  43.0306625  78.2205963
  58.0186157   0.5623414  22.3714180  58.0157700   0.2506204  21.4664021
  57.5324860  -0.1047747  22.8560467   9.0638189  70.1141357  60.4498672
   9.1244936  70.7275925  59.7175980   9.7863960  69.5021057  60.3100967
  23.0066128   5.4448366  46.8901863  23.2510910   6.1492939  46.2900162
  22.4577751   4.8624325  46.3650055  28.0739136  70.7421875  53.9777908
  27.7496166  70.9562302  54.8525772  27.7462139  69.8585358  53.8104401
  83.9379654  34.0434418  66.0564575  83.6018219  33.7931099  65.1958847
  84.7277222  33.5142899  66.1683044  27.5420761   5.0445743  73.9001770
  27.0309715   5.5786643  74.5082474  27.8053665   4.2815380  74.4146576
   0.9767011   5.0196509  68.4842300   0.2883538   4.8481898  67.8415756
   1.7911179   4.9581809  67.9850540  86.4044647   2.6194487  37.5427513
  86.8652802   3.3636892  37.9300308  85.5313568   2.6484153  37.9340096
  47.1372414  33.5181503  13.2479010  46.7423744  34.2816086  13.6691360
  46.3967743  33.0427361  12.8711777  38.8638611  28.0974808  81.9906235
  39.4705925  27.6341362  82.5680542  38.0247040  27.6558113  82.1209183
  41.6463585  20.5053463   3.8225658  42.3144913  21.1517277   3.5944932
  42.1342697  19.6921215   3.9523373  53.8471298  63.5861778  62.2262993
  54.5459557  63.8561096  61.6304741  53.1666679  64.2498932  62.1136703
  55.5047035  38.5719109  22.4847317  54.8311005  38.2385063  23.0774651
  56.2791100  38.6774139  23.0373535  48.5109978  53.0465012  14.0620794
  48.8138809  53.8973465  14.3791809  49.2594261  52.6885796  13.5846043
  65.1070480  23.3640957  71.7165833  65.7434921  23.7758789  72.3010483
  64.2577057  23.5555363  72.1143341  49.5391579  31.5221443  11.4577694
  49.8630791  31.2429180  12.3141212  49.3348579  30.7060204  11.0012217
  21.9564114  13.2407370  65.2059250  21.5434608  13.0186272  66.0404205
  22.8291187  13.5521879  65.4459534  86.5116119  65.2784958  36.1490440
  87.1046371  65.7872086  35.5960808  85.6478806  65.4094467  35.7578087
  72.7011948  30.7208652  67.2072449  73.3526611  31.3766956  67.4556427
  72.8914185  29.9695587  67.7690125   4.0594568  53.3798027  25.2507820
   4.0515814  53.2819672  24.2986259   3.1375413  53.4770813  25.4891930
   5.5882988   2.9262321   0.9095154   5.5368342   2.7355170   1.8461108
   5.2482228   3.8172145   0.8274750  86.4178314  43.7173538  70.4662552
  87.1804733  43.9696350  70.9867935  86.6167374  42.8312149  70.1638794
  43.1181831  53.6560936  20.7640400  42.7594872  52.8360863  21.1033936
  42.8049736  54.3247604  21.3731537  55.6615601   6.6810942   8.4443750
  56.5430717   6.3962855   8.6853065  55.4459534   7.3598080   9.0839806
  30.3164787  13.1542244   3.4267423  31.2229786  13.1308784   3.7332482
  29.9414043  13.9281330   3.8470004  73.9572220  24.7926483  48.4658623
  74.3994293  23.9452572  48.4147034  73.1735229  24.6867905  47.9265633
  86.6620941  15.3161583  10.5627279  87.4072266  14.7399302  10.7329550
  86.1224289  15.2488718  11.3504238  68.9898071  32.9562721  59.7017822
  69.2971268  33.7867813  60.0651665  69.7522736  32.3792000  59.7449455
  17.8513832   1.4071733  64.5493240  17.4174213   2.0261817  65.1364670
  17.3699818   0.5881767  64.6664963   1.7380110  37.3853645  51.2261696
   1.6560168  36.7845078  50.4855728   1.0707793  37.0927658  51.8469925
  35.1297684   4.9718065  73.7357025  35.5453873   4.1694503  73.4199219
  34.2675438   4.6904693  74.0417328  53.3774185   3.5838242  22.4358196
  52.7924042   3.9322729  21.7630844  54.2412872   3.9225743  22.2008419
  62.5437164  62.7065811  43.5339355  62.9445496  62.2658043  44.2831192
  62.9875145  62.3347244  42.7717018  32.5334015  19.0400543   2.3353693
  32.8902931  19.8054695   2.7859275  33.2861633  18.6522751   1.8890355
  81.8555527  40.6792908  23.5157776  81.0181580  40.6005516  23.9727173
  81.7976227  41.5145302  23.0518208  62.6903458  39.2399254  33.1406097
  61.9358940  38.6918678  32.9245834  62.3101616  40.0787354  33.4015579
  32.1988297  17.1818695  47.9029388  31.9932022  17.0102978  46.9839668
  32.1667976  16.3210449  48.3202972  19.5658665  39.4173355  86.5278778
  19.2467556  39.7434196  85.6864090  20.0859413  38.6455536  86.3040237
   0.7809528  56.6290665  56.0895767   1.6196518  57.0638771  56.2436981
   1.0097442  55.8269119  55.6200714  64.7184906  23.9047508  42.3034515
  64.4306641  24.7286129  42.6966896  64.6559601  23.2657661  43.0133934
  16.1758060  40.5729065  30.2306652  15.8511372  40.0802689  30.9844074
  16.5670033  41.3600998  30.6095104  26.2148304  48.6835976  15.6022444
  26.5932922  48.0007629  15.0484085  26.8482380  49.4003029  15.5653896
  50.5849724  43.3993340  73.9872360  51.3248787  43.6141701  74.5552292
  50.9732933  43.2896461  73.1192398  55.2059021  54.0250969  64.7719193
  55.7655563  53.8018379  64.0281601  54.3688469  54.2692680  64.3770065
  14.8065290  60.6985855  48.5145912  14.2499695  60.6762428  49.2930336
  15.6691942  60.9505234  48.8440857  71.6986313  70.8795624  55.3918533
  71.5122147  70.4186630  56.2098122  70.9833832  70.6287842  54.8072548
  39.7293663   5.9187422  41.5326843  39.7304688   5.2017999  42.1668968
  39.7379456   6.7121525  42.0680885  13.4933357  50.8048439  13.2788506
  14.0613966  51.3691978  12.7544050  12.6695948  51.2880363  13.3437119
  22.8515053  54.4508400  35.9204254  23.3728218  54.4655533  36.7230721
  23.0986767  53.6327705  35.4892578  37.8120842  54.1656799  75.2394104
  36.9193382  53.8394432  75.1262283  38.3688774  53.4554253  74.9204178
  33.9451447   9.4954462  80.1609421  33.2214127  10.0553102  80.4420090
  34.2982101   9.1341848  80.9739990  25.6216717  59.4017258  59.0895233
  25.3847160  58.6156464  59.5816231  24.8059654  59.6775475  58.6714592
  24.2897816   2.9232223  26.4726200  24.1862698   2.0030885  26.2299862
  23.9600487   3.4088521  25.7165298  69.3774643  51.2419014  38.2347870
  69.8466721  51.0648041  39.0500870  68.4625015  51.0474243  38.4379120
  16.9088535  55.5320244  45.0304794  16.9077148  54.6097145  44.7744026
  16.1123638  55.8903389  44.6387596  52.2973480  28.9866695  50.7444344
  52.3431778  28.0318966  50.7948570  51.3604889  29.1825066  50.7574158
   9.4079933  35.1890144   5.8953843   9.4414978  36.1236305   5.6914201
   8.4794455  35.0091286   6.0425963  51.2815399   0.7547837  52.7912331
  50.3674698   0.7909928  52.5094566  51.3451805   1.4132746  53.4830208
  24.5367737  39.7090111  82.5403442  24.2180901  39.4859505  81.6657562
  24.8862686  38.8871384  82.8847427  78.2880936  35.4337578  46.6785126
  79.1321030  35.7351723  46.3423309  78.1784210  35.9028053  47.5056725
  14.7292013   2.7944765   8.8611803  15.5383224   3.2080145   9.1620808
  14.9932461   1.9114248   8.6028557   7.8635449  22.1224022  64.8322678
   8.4248123  22.7168541  65.3301010   8.3170605  21.2801418  64.8661728
  67.0374603  22.2935390  47.6719284  67.1017914  21.4207592  47.2841835
  67.9457855  22.5605049  47.8129921  72.4928055  15.2616444  66.1186752
  72.1766663  15.8286018  65.4152145  71.8829117  15.4130754  66.8407135
  30.9842834  15.3722744  17.7634468  31.4552021  16.1715736  17.5276718
  30.5918560  15.0745554  16.9427166  59.6778221  56.9230766  26.0592079
  60.5156288  56.5181999  26.2836723  59.8322067  57.8627205  26.1564827
   4.1831274  24.7682743  12.6534567   3.4833016  24.4449787  13.2208672
   3.7950096  24.7820740  11.7785816  10.7209034  38.1678085  69.9356537
   9.9281359  37.6378593  70.0187607  11.1786079  37.7973709  69.1809921
   5.5721827  60.4283333  66.1442871   5.2937212  61.1653786  65.6007309
   5.1074510  60.5520515  66.9719086  73.4458694  45.2192612  80.2709122
  73.2246704  44.9632072  79.3755188  72.6012268  45.3963737  80.6849670
  64.5289688  57.3570290  70.4887543  64.8344955  57.2625122  69.5865631
  64.3008728  58.2832184  70.5685883  20.2517166  47.4169121  68.1361237
  20.2204170  48.3707085  68.2104874  20.2612782  47.2503433  67.1935806
  21.2209663   3.6309087  39.6630898  21.8896351   4.2988224  39.5114136
  20.7951241   3.5209160  38.8129196  68.8038635  31.3031387  27.4208374
  69.6502914  31.7226162  27.5751953  68.1677475  31.8893738  27.8306141
  23.1516476  64.4245911  59.5545235  23.1403656  63.6606865  58.9778442
  22.2623901  64.7752914  59.5049133  12.0025005   2.0795379  75.5918350
  12.7216768   2.6801794  75.3962708  11.2161760   2.6230686  75.5418396
   0.9114326   8.6545830  37.8193169   0.8066128   8.9594460  38.7205963
   1.8203524   8.3583603  37.7708511  35.1480713  64.0203857  69.9057465
  34.6476784  63.7197304  69.1471710  34.5082397  64.4834595  70.4465027
  55.5482826  59.8108864  78.3868790  55.2966576  58.9286499  78.1138077
  56.2980385  59.6774178  78.9667740  24.9476337  26.0393105  76.9030228
  24.3403091  26.7522602  77.1007462  25.7165356  26.4747734  76.5350723
  44.2363625  19.6607609  12.7750912  45.1087952  19.5037842  13.1362696
  43.6501045  19.5979099  13.5291348  26.6724205  63.3153076  88.3565369
  26.7279644  64.2304306  88.0814056  25.8552952  63.2634468  88.8523712
  15.4094553  62.7807198  54.4733238  16.3083668  63.0854378  54.5971756
  14.8680124  63.4673233  54.8627434  66.2967453  51.7385063  61.1890106
  67.0070953  51.4982719  61.7839203  66.7387161  51.9966583  60.3801537
  63.1096001  11.0244007  21.7082653  63.4202881  11.3727589  22.5439396
  62.8868675  10.1127577  21.8967571  52.5453873  32.1317749  57.6077042
  52.2511711  32.5025940  56.7757416  52.2872696  32.7796707  58.2633286
  37.5613251   5.9815955   3.8050294  37.3523140   6.3062534   4.6808968
  37.9439812   5.1171265   3.9550247  77.4214783  66.6741638  23.1804447
  76.7676849  66.7703552  22.4879608  77.4607468  65.7317810  23.3435326
  20.8202190   7.4893713  66.5334167  20.7659073   6.9976115  67.3528442
  20.7308407   8.4051313  66.7972870  53.9850616  29.1745777   9.5391817
  53.3424339  29.1365643  10.2475719  53.8181839  30.0133095   9.1091671
  69.7353287  41.4553795  60.8241043  70.1978683  41.2647858  60.0080376
  70.1364670  42.2635956  61.1436424  78.8456497  25.9266396  42.8127594
  78.1961060  25.6105118  42.1847458  79.6423187  26.0432739  42.2951279
  44.2327576  39.7332993  84.7973251  44.2397156  40.2515373  85.6020737
  44.7611694  38.9624634  85.0042725  61.1526909   0.6192374  57.8664742
  61.1257515  -0.3316271  57.9730721  60.2791977   0.8496096  57.5499725
  60.2116280  14.5066805  56.4224167  60.4796181  13.7375059  55.9196434
  60.6467018  15.2403030  55.9879761  21.4616261   2.5510399  56.0019722
  21.8632317   2.1208642  55.2470589  21.0549145   1.8386484  56.4952431
   5.3499541  22.2679920  20.1312733   5.0034451  21.6448650  19.4926205
   4.6369729  22.3898335  20.7582054  12.7596474  60.7119179  86.9937668
  13.6038446  60.3909416  87.3108368  12.2922268  60.9787445  87.7853165
   7.1372104  41.6847420  23.9394894   6.3272853  41.2247620  23.7188797
   7.6186528  41.0699425  24.4930782  85.2940750  13.5946331  81.4692535
  86.1102982  13.2257614  81.1316910  84.8896332  14.0154810  80.7106018
  84.4149170  17.2262249  59.9574547  84.2175751  17.8531494  59.2615700
  85.0128708  16.5984516  59.5517769  84.7624512  14.0254784   1.2922748
  83.9619751  13.6239386   1.6302664  84.8126755  13.7308760   0.3829243
  64.6587219  70.9236679  11.5816507  64.9553070  70.0815887  11.2364388
  65.3037567  71.5543213  11.2615986   5.9194021  46.6015472  33.9209290
   6.5627713  46.0155678  33.5222588   5.3663239  46.8817062  33.1916542
  71.0474167  12.3452396  82.4167099  71.9255600  12.7243137  82.3793030
  71.1124420  11.6549339  83.0766144  50.3550644  65.2819214  20.7923088
  50.6953316  64.8043747  21.5488758  50.4340897  66.2042313  21.0359039
  27.9813309  60.0851555  49.0463486  28.3824272  60.7475052  48.4836349
  28.7045479  59.5067139  49.2884102   0.3377534   2.9384353  63.1830368
   0.7286214   2.1434288  62.8205185  -0.2977852   3.2153211  62.5229950
  27.7224674   7.9156165   5.6155529  28.6529427   8.0653000   5.4481020
  27.5260372   8.4588747   6.3787813  69.3850250   8.1114960  81.7617264
  68.7421722   7.5202699  82.1534195  68.8894348   8.6053667  81.1084976
  45.1106834  45.6213913  27.2279015  45.0142899  44.9101944  27.8612576
  44.5301514  45.3797417  26.5062218  59.4901886  36.7176361  25.9246101
  58.5794716  36.5631866  26.1755505  59.5600243  37.6693840  25.8502350
  19.5862751  33.3353348   7.0175815  18.6421070  33.2303505   6.9002872
  19.8207932  32.6780281   7.6727009  75.2811050   0.1036860  49.9232025
  75.8965149   0.3121064  49.2203064  74.4173965   0.2057951  49.5234337
  67.4059219  63.0854988  25.5890179  66.5802994  62.6564026  25.8136196
  68.0696335  62.4066772  25.7111835  62.7802849  27.8068123  21.9485035
  62.5527191  28.1707497  22.8040695  62.4394417  28.4426556  21.3194084
  86.3597488  57.0914345  64.9655380  85.6989594  57.7633591  64.7979050
  86.3635254  56.5560074  64.1721039  13.0582323  38.4039078   4.2987089
  12.3709631  39.0219078   4.5476484  13.8701401  38.8180428   4.5911655
  46.7772179  49.3250351   6.7767310  47.5278358  49.4090919   7.3647251
  46.7567596  48.3963585   6.5457025  63.9812469  33.5991402  80.0550156
  63.3522148  32.9592018  79.7218018  63.4616547  34.1772995  80.6135712
  79.3209991   8.7609768  76.8667068  78.5941315   9.3255596  77.1296387
  78.9673920   7.8732905  76.9233017  68.3042068  46.8106308   3.3848014
  69.1999741  47.0336494   3.1316261  68.3733597  46.5462761   4.3021698
  45.2167168  59.8581924  70.3364182  45.1546478  60.5327911  69.6601868
  44.7136307  59.1223640  69.9875793  16.6529484  36.2075348  14.2720127
  17.4542847  35.8386230  14.6434937  16.9572048  36.7842178  13.5712299
  17.4727917  58.0582619  83.2025070  17.4913349  58.7368774  83.8773117
  17.0486259  58.4768677  82.4534531  77.5990906  22.0114708  79.6868439
  77.9495392  21.1584682  79.9433670  78.0635071  22.2278996  78.8783264
  33.3950882  50.7033081  34.0391922  33.7503738  49.9811821  34.5573997
  32.6397285  50.3257446  33.5885201  80.1477432  34.1433411  75.3478470
  80.4484024  34.8986931  74.8425903  79.7346954  33.5714722  74.7008591
  58.8555946   8.2739468  54.8631516  58.9331398   7.3300247  55.0018196
  59.6737480   8.5206861  54.4319000  49.7204590   3.8709838  71.2937698
  50.0134850   3.5652225  72.1521912  48.9660950   4.4289908  71.4829636
  22.1275749   0.2209321  62.3091278  21.4938793   0.6898419  62.8520699
  22.9765091   0.4251139  62.7013626  61.7340164  49.9161263   6.1314635
  61.1948853  49.3010750   5.6341915  61.1032066  50.4828835   6.5754209
  74.8618393  53.2996788  16.7686672  75.0101318  53.9524307  16.0844479
  74.7320557  52.4792747  16.2929306  84.0464630  68.0038147   6.1845875
  83.4735794  68.7532578   6.3469834  84.6308212  67.9803925   6.9423561
  32.8587875  64.5823898  32.6425552  32.7444687  64.1636658  33.4956894
  33.8010445  64.5402908  32.4794273  69.5158081  35.9794540  85.0267334
  68.5940323  35.7223511  85.0052490  69.5368805  36.8319511  84.5919495
  81.6977692  59.1305199  76.1222229  82.2971954  58.4636574  75.7872467
  82.0624619  59.9587669  75.8103943  70.0055618  28.0153847  68.3858490
  69.7022552  28.9191399  68.4722366  69.3371277  27.5886116  67.8498535
  57.4898834  22.5164204  69.3384705  56.9255257  23.2786770  69.2092285
  58.3072128  22.7458076  68.8962250  56.4638176  15.3743801  52.0697861
  55.6895943  14.9334812  51.7199020  56.6759949  14.8890667  52.8670845
  22.4504929  58.1018715   6.9669933  22.1945381  57.1920280   6.8156462
  23.2667656  58.0416641   7.4632864  79.3943863  64.1702271  47.8560181
  79.6471405  64.9807968  48.2979698  79.1671829  64.4429245  46.9670601
  24.2867069  27.2908306  53.6825790  24.4810848  26.5110226  54.2025261
  24.7882175  27.9897480  54.1023788  69.3651428  67.9930496  10.3772659
  68.5339355  68.2862625  10.7505760  69.1154938  67.4919739   9.6008453
  59.2666779  56.7243500  68.0757675  60.0591431  57.2483025  67.9587097
  59.1530151  56.2719574  67.2399139  59.5188675   1.1807702  10.9790125
  58.6361389   1.2326838  11.3455124  60.0945129   1.1563491  11.7433891
  41.1801682  67.6084061  57.4179001  41.1745186  66.7215729  57.0577202
  40.6263199  68.1125488  56.8218040  60.3920746  27.2159710  81.9198303
  60.1732559  27.7364464  81.1468735  59.7695656  26.4890347  81.9031754
  63.2198296  70.3019333  52.3967705  63.7534294  69.6545563  52.8576469
  63.7954254  70.6432571  51.7123566  41.9083672  28.1746311  11.0718393
  42.3346825  27.3681850  10.7817822  41.8911171  28.7301083  10.2924929
  62.6216965  29.4488869  67.7023926  63.2670631  30.0453014  67.3228836
  61.8024902  29.6686172  67.2587128   9.8337317   1.5019323  71.7236404
  10.5264540   1.8575635  72.2803268  10.1910686   1.5492668  70.8369064
  35.8525162   0.8440197  67.4344864  35.3889236   0.0273892  67.2489395
  35.6333618   1.0423146  68.3449173  77.3996124  29.7317276  15.1590309
  77.8475876  28.9693241  14.7925749  76.5628967  29.3895302  15.4737272
  14.7822351  44.0257187  68.3487091  14.5434732  43.5634727  67.5452423
  15.7243433  43.8813515  68.4371414  34.3248749  52.1699562  77.9487457
  34.6279373  52.3277550  78.8428879  34.6984253  51.3200150  77.7157288
  80.6783142  39.8518295  50.0422440  80.9510956  40.7312012  49.7804604
  81.3975677  39.5297432  50.5855331  51.8309021  39.1461639  41.7671013
  52.2072906  40.0084572  41.9432030  50.9296188  39.3280563  41.5009499
  41.5955734  18.9791145  85.0881958  41.7879906  19.9080029  84.9602356
  42.2469177  18.5238705  84.5545883  52.2828979  61.0084038  29.2605762
  52.7268982  61.5669937  29.8985996  52.0786018  60.2080040  29.7441654
  43.9469032  54.8349304  58.4566765  44.2762222  54.2163124  57.8046837
  43.8927879  54.3249245  59.2648811  35.8702927  50.6777611  51.2607231
  35.2811852  50.4559860  50.5396118  36.7170143  50.8285713  50.8405457
  53.0432281   5.3446956  38.0857887  52.5718193   4.5595269  37.8073730
  53.0747375   5.2793298  39.0402336  35.1527519  60.3591843  28.0323658
  34.4618568  60.1679535  27.3980732  34.8016663  61.0765572  28.5599480
  86.1234360  70.1588516  53.7725220  85.9981995  69.2100830  53.7921143
  85.5678406  70.4884186  54.4788742  62.5720367   9.4884920  84.4552002
  61.9061279   8.9004974  84.0987473  62.0893784  10.0671940  85.0454330
  52.4136276  54.9431801  51.7067032  51.5869751  55.4230080  51.7580986
  53.0346794  55.4829521  52.1957512  76.3080826   8.4905109  79.8366776
  77.0399857   7.8785644  79.7587357  75.6143494   7.9819512  80.2565994
  20.9992542  32.5358505   2.0410786  21.6786098  32.7963448   1.4191049
  21.4553719  32.4692345   2.8799767   2.3218982  50.8793030  19.3453751
   1.9965796  50.5633049  18.5024376   3.1227331  50.3772507  19.4964924
  84.2988358  63.1440582  47.6577988  84.7735748  62.9417381  48.4639778
  84.1315155  62.2906952  47.2577896  27.1550236  44.4912376   5.1081996
  27.8483162  43.9943314   4.6738467  27.2815895  45.3913765   4.8082690
  61.2798958  60.9810066  46.3231163  60.5636711  60.3774414  46.5205002
  61.0988617  61.7516518  46.8612328  19.9649239  43.3193703  22.9219952
  19.9954815  42.7721443  22.1372375  20.8765602  43.5663338  23.0774231
  17.6718121  37.8204689  23.0018253  16.7777748  37.7130318  23.3264618
  17.8523846  38.7551041  23.1022205  40.9003029  56.6328430  33.8177872
  39.9512482  56.6751442  33.7005920  41.2582970  56.9715462  32.9972076
  20.9539890   5.4025908  68.1992722  21.7457867   5.3446984  68.7340012
  21.1359730   4.8475332  67.4409714   3.2698412  42.0322723  38.2913895
   3.9607661  41.8166847  37.6649857   2.5819540  42.4337311  37.7604713
  72.8415527  10.2899628  75.9726868  73.5657730  10.4913950  75.3800964
  73.2573700   9.8670082  76.7239761  28.4159451   7.0797062  76.3949203
  28.3954620   6.1637564  76.6721344  29.1845474   7.4453573  76.8328476
  53.1560402  31.3392487  49.1211624  53.1386147  31.0400791  48.2120819
  52.7434425  30.6303349  49.6145554  76.1502914  62.8474236  72.9947205
  76.5141830  63.0426369  73.8582611  76.8454514  62.3672104  72.5448532
  21.9829235  56.6561737   2.9859140  21.9582539  57.3538437   2.3310256
  21.4529572  56.9887886   3.7102993  85.5221634  43.9063148  61.3201523
  86.2635803  43.7020035  60.7502403  84.7541199  43.6196480  60.8260231
  45.6551018  67.2005997  69.9668655  45.5890083  67.4698563  70.8830338
  46.5847130  67.0114670  69.8392715  69.0158157   9.7956619  54.4972420
  69.3470383   9.4804649  53.6563072  68.9127884   9.0043621  55.0258865
  37.8283157  51.3361740  60.2885895  37.3442764  50.5607109  60.0046883
  38.1009483  51.7596474  59.4746056  33.9987564  61.1178055  85.0520020
  34.3919525  60.4344826  84.5091400  34.4527893  61.9198685  84.7935867
  54.7098045  61.9759102  17.4435024  55.1069717  62.6911392  17.9404316
  53.7820053  62.0085907  17.6766453  24.8509655  58.0624733  10.8603516
  23.8964233  58.0985832  10.9218054  25.0655479  57.1408157  11.0043373
  69.5800476  67.1687317  37.9008675  69.3240204  66.4010162  38.4120445
  69.5572281  67.8920975  38.5273323  76.6825943  43.5673599  73.3944778
  77.4977570  43.1953545  73.0577850  76.1027527  43.6016426  72.6336670
   8.3021183  20.4468212  32.2387047   7.4269753  20.6026764  32.5937614
   8.4193583  19.4986916  32.2981644  82.8596573  67.3844452  78.1732864
  83.3908157  68.1793747  78.2201004  82.6599350  67.1757584  79.0858612
   3.6260970  57.3166885  51.6841736   3.2215321  56.7430153  51.0334358
   2.8890865  57.6750031  52.1788025  10.5681686  39.7833710   3.7745228
  10.2500801  39.7083702   2.8748417   9.7910080  39.6442299   4.3157177
  57.3961754  53.8786469   5.1234708  57.6772385  54.7151909   4.7527523
  57.0400848  54.1049843   5.9826574  15.1279993  33.9514618  61.2288322
  14.9217749  33.3418999  61.9374504  15.6896486  34.6109619  61.6360626
  76.3777313  37.8674164  20.5286732  77.2419357  38.0324593  20.9056931
  76.4123688  38.2744446  19.6630154  31.0965805  23.7784328  72.6525116
  30.8769035  24.3230476  71.8966293  30.3684521  23.1610622  72.7226105
  12.5666800  58.5919456  30.8411636  12.9482050  58.3878288  29.9873447
  12.1543684  57.7746201  31.1208286  84.4851913  16.1562252  44.3036613
  84.1689072  15.2588015  44.4077110  84.7875595  16.4063511  45.1767273
  28.3239822  59.3572769  12.8071356  27.7547359  60.0340195  12.4407873
  28.8405457  59.8128510  13.4718504  21.6050568  21.1100731  84.0686569
  20.9916306  21.3224716  84.7721024  21.6990433  21.9266472  83.5781479
  57.2825584  39.1685562   2.7161174  58.2179260  38.9830322   2.6330647
  57.1505890  39.3199921   3.6520038   4.3333673  13.2493477  43.7490578
   4.6287270  13.7896090  44.4819374   4.3156009  13.8478107  43.0022240
  65.2412109  44.8825188  88.9850693  66.0540466  44.6800232  88.5219116
  64.5959396  45.0135803  88.2903214   4.6255288  65.4131393  40.0562553
   5.2808766  65.9615173  39.6249390   4.3348441  64.8067093  39.3750992
  18.7899017  48.0272179  17.4331913  19.6497040  48.4170418  17.5913258
  18.2175789  48.7735710  17.2553368  39.9043884  59.2685852   5.6364012
  39.3401146  58.6180000   6.0542121  39.4652596  59.4713860   4.8104048
  83.0930328   9.8555593  63.1856308  82.8316269   9.0172672  62.8046303
  82.8875046  10.5006638  62.5089989  25.8962212  12.3969212  78.7236786
  26.6461449  12.9911823  78.7501450  25.2176533  12.8880730  78.2604828
  33.4812126  28.9204750  78.1246490  34.2468681  28.4121284  78.3921967
  32.9632874  28.3132496  77.5961990  80.8335114  16.1620922  88.0732574
  81.1169586  15.2482901  88.1025162  81.3434677  16.5931187  88.7591095
  85.1164398  23.9481049  37.6031265  84.5633163  23.4558125  38.2097015
  85.7667389  23.3131466  37.3028374  24.8640671  37.8839111  71.4002762
  24.5648365  38.6887131  71.8233414  24.3872738  37.8578644  70.5706787
  12.0190458   5.9568043  39.1105385  11.1735392   5.5394077  39.2752533
  12.5122776   5.3085575  38.6078148  55.9641266  45.2858467  43.9214897
  55.5495605  44.8238144  44.6501122  56.6977730  45.7533836  44.3207436
  21.4168301  60.9985123  10.5814095  20.7805672  61.0362549   9.8672829
  21.5297337  60.0635071  10.7524319  82.7124100  37.8639221  80.0911026
  83.1467285  38.7116661  80.1856155  82.1366806  37.9728279  79.3342056
   0.4515043  44.4094124   1.1855848  -0.1068560  44.3009682   1.9554588
   0.3725587  45.3365707   0.9611343  82.3068237  51.8401375  28.3271389
  82.8008652  51.0217476  28.3760433  82.9240646  52.4707184  27.9561729
  27.6121140  22.8880329  12.7378330  26.9978161  22.8738575  12.0038919
  28.4143677  22.5020752  12.3861828  73.0203781  11.1891870  17.2991295
  72.3021011  11.4538918  16.7244682  73.6024246  10.6792879  16.7356949
  73.7691193  34.0067978   7.7597494  73.2616882  33.5735092   8.4460468
  74.3645020  33.3296814   7.4384074   2.5775042  35.2484589  85.3491745
   2.1069565  36.0193596  85.6662445   3.4635646  35.3488007  85.6971130
  81.6308365  62.5704918  35.2361603  82.1111679  62.3627548  36.0376320
  82.2493286  63.0784302  34.7110939  18.2226791  36.7213821  20.5507793
  19.1552372  36.6551056  20.3454189  18.1958885  36.8796692  21.4944210
  49.6264801  66.8464890  58.2748108  50.1063843  67.5017166  58.7813759
  49.0522079  67.3578873  57.7047997  35.4757996  23.4619999   8.3465738
  34.9049797  24.1832161   8.0815315  35.0785904  22.6851082   7.9530063
   1.2119689  53.3210945  36.9567986   1.8242176  53.3694572  36.2226028
   0.5583128  53.9944801  36.7683296  18.5965366  41.0206528  70.8659744
  19.1535625  41.6371117  70.3906479  18.4139442  40.3259277  70.2333221
  59.2782631  69.8757095  75.8075714  59.3855476  69.3322067  76.5881653
  58.4248314  70.2937317  75.9222260  57.7234650  18.3764915  19.1687450
  56.8983307  18.2359829  19.6331196  58.1674728  17.5293961  19.2076817
  16.3131142  55.3447571  49.8215485  17.0290756  55.1298523  50.4194183
  16.2668858  56.3007164  49.8370705  34.4656258  18.3915138   6.2322159
  34.9231529  18.9608917   5.6135831  33.6708145  18.1253281   5.7699885
  48.5642967  30.7547703  38.5181618  47.7554970  30.8407230  38.0134964
  48.5623512  31.5114212  39.1044312  52.8941460  69.0660629  73.6660309
  53.7083626  68.7107925  73.3095856  52.7382317  68.5563583  74.4610901
  16.1056938  41.0094604  20.9996357  16.9406891  40.7729721  21.4034786
  15.9848967  41.9325447  21.2222500  47.2201958  39.5525017   3.8335629
  46.5087700  39.1456718   3.3390012  47.2894402  39.0264511   4.6302490
  23.6709824  39.3906517  14.6274939  23.8022556  39.4690018  15.5724068
  23.9156418  38.4874992  14.4257669  81.4451828  16.8458271  81.7585297
  80.6457062  17.3583794  81.6387100  81.1391373  15.9442844  81.8574524
  21.1654053  66.7299500  21.1228275  20.9782772  67.1150894  20.2667408
  20.4043007  66.9546051  21.6580658  86.0625458  42.6589813  58.2492485
  85.8024292  42.0615692  57.5480576  85.7395248  43.5146790  57.9669838
  67.4414062   6.4653382  68.0328140  67.1719589   6.2819953  68.9328232
  67.1378708   7.3582525  67.8691025  66.7085419  16.1903858  20.6023006
  67.6584473  16.3082523  20.5986824  66.3652115  17.0222702  20.9283714
  77.8265991  60.4666901  41.7952118  78.1703186  59.6225777  42.0877151
  77.0100174  60.5747490  42.2828140  62.7741699   3.5262485  34.9798470
  62.6080017   2.6480975  34.6371040  62.4796867   3.4878824  35.8898125
  86.0886688  63.9134865  33.1583900  85.9125977  63.3047142  32.4410133
  87.0428085  63.9250565  33.2339783  10.1881132  44.0637627  71.2998199
   9.4730005  44.2452545  71.9096603   9.7680721  44.0338898  70.4402237
   6.0555730   3.0011020  24.7187481   5.2699056   2.6471038  25.1354542
   5.9368372   2.8157055  23.7872105   0.8678954  60.3186302  30.8461208
   0.8970627  61.2622337  30.6880169   0.6972519  59.9366875  29.9851723
  42.9568405  58.2244339  46.8180962  42.3132858  58.8210602  46.4358521
  43.2177238  58.6461296  47.6368408  58.4970512  11.5380917   7.3658218
  58.7370605  11.8575020   8.2356520  57.9291039  10.7863960   7.5349932
  13.7762346  55.7621765  75.6095886  13.4380093  55.0239182  75.1028290
  13.6154137  56.5263596  75.0560608  21.5315571  37.0433617  14.0053167
  21.4121609  37.7187653  13.3376312  21.1791801  37.4327507  14.8055897
  17.2504234  71.1133957  47.6184196  18.1392097  71.2195435  47.2792702
  17.3266907  70.4245911  48.2786980  69.9906464  36.7559090  65.5249710
  70.5201645  37.4866219  65.2057648  69.1685562  36.8258972  65.0396881
  38.8595123  63.6150017   5.1303349  39.3578873  64.2476807   4.6130629
  38.0029793  63.5792236   4.7045436  76.2416077   7.6351504  50.1247864
  76.1077347   8.0326185  49.2643623  76.0656509   8.3424006  50.7453232
   9.2121229  46.5572548  53.2258644   9.8802233  47.1144524  52.8266106
   9.7012711  45.9779396  53.8101234  59.8170090   8.9974003  84.4890289
  59.4205246   8.1796761  84.1884308  59.2105980   9.6786146  84.1984406
   4.0470767  45.1354103  12.9393311   3.9944742  44.5415916  13.6882286
   4.8030438  44.8255463  12.4406033  66.5610123   2.1568065  48.7213898
  66.5899734   2.7957385  48.0092392  67.4566727   2.1328242  49.0582199
   6.4569240  56.4888382  77.6152954   5.6957788  56.8536491  77.1638489
   6.1744566  55.6184006  77.8959808  36.9606476  47.2028694  70.0481644
  37.8629913  47.1949654  70.3674545  36.8683281  46.3784485  69.5706253
  46.5392265  42.2189598  28.2764359  47.2283554  42.5966949  28.8229256
  46.1399956  41.5448151  28.8263245  32.7278557  11.8340321  72.0847168
  33.2000732  12.5592175  71.6756287  32.6708145  11.1683578  71.3992538
  68.2610016  40.4079819  51.4237442  68.5662384  40.0425987  50.5933456
  69.0621338  40.6559334  51.8852005  77.0927353  70.4206467  30.8235283
  76.6553040  71.2718658  30.8412247  78.0232010  70.6311035  30.7449760
  74.2930298  62.8477058  44.3055305  73.7966385  63.0459862  43.5114822
  74.6949844  61.9968071  44.1305008  68.4451904  27.6833801  18.0918407
  68.7083969  27.2795982  18.9188309  67.4953308  27.5691204  18.0611439
  78.2677307  31.6323261  56.3714561  78.2179413  32.0100746  55.4933586
  78.0671921  32.3618851  56.9577637  44.8614426  54.3684807  29.2480812
  44.2340126  54.8920212  28.7496109  45.6442375  54.9170189  29.2988224
  49.3922691  54.4136353  83.2389450  48.6576118  54.9742775  82.9895630
  49.4441109  53.7617264  82.5399780  80.7384415  70.1589737  59.8115234
  80.2851410  69.5436935  60.3878784  80.8511047  69.6796646  58.9906731
  18.0255051   7.0733204  38.0535965  17.9949188   7.4952192  38.9122581
  17.5185776   7.6521087  37.4841576  17.7703762  64.4970322  49.9373856
  16.9008961  64.8697586  49.7914200  17.9722538  64.7097092  50.8485641
  53.1730156  40.4327393  75.1940765  53.8016205  41.0707626  74.8564224
  53.4989166  39.5879898  74.8835678  69.6236420   3.3822141  68.8021317
  70.4206543   3.3391838  68.2737885  68.9576645   3.7209473  68.2038345
  37.2532539  45.0596848  26.8389130  37.9033012  45.6353455  27.2417660
  36.8593864  44.5911751  27.5748482   6.1020865  15.1067295  28.2074833
   5.6890631  14.4578123  27.6377907   5.7923260  14.8860321  29.0858746
   0.9655276   7.0957613  66.0919952   1.8136193   6.6815147  66.2512817
   1.1756525   8.0139961  65.9219208  65.7134094  70.3583145  54.5993423
  66.1487503  70.3797607  53.7471352  66.4296646  70.3613434  55.2343254
  26.1608448   1.4697739  36.6168137  25.8428326   1.8565341  35.8010216
  26.9679546   1.0186058  36.3693161  80.8181076  58.2881050   1.9324040
  80.9808578  59.2254219   1.8266623  80.0223236  58.1245804   1.4262160
  41.6487007  23.8621140  87.2896347  42.4231224  24.4151058  87.1861801
  41.9985008  22.9991436  87.5113449  45.4505768  52.4692535  67.5824280
  45.7899246  51.8768463  68.2533493  45.4825745  53.3351707  67.9891205
  61.1049957  39.8640404  44.5860748  61.1946220  39.7019005  45.5251770
  61.9662590  40.1814270  44.3145485  21.5446129  50.1527710  74.6260300
  20.9876022  49.6536026  74.0287018  20.9359779  50.5338440  75.2589417
  50.4818420  15.9611692  65.3863983  50.4111099  15.3395157  66.1108170
  51.2949982  16.4364128  65.5571442  12.4979496  25.5765381   6.0227032
  11.7948370  24.9298878   5.9617887  12.1179085  26.3781586   5.6632538
  14.6181984  26.9866428  69.4791412  14.9370184  26.3315220  68.8583298
  14.9576311  26.6987400  70.3265610  80.2276230  20.1679192  86.0534210
  79.7844925  19.5369644  86.6206589  81.1591873  19.9800129  86.1679840
  31.7172928  33.5314713  66.2082138  32.5492363  33.9815941  66.0615997
  31.9657173  32.6308594  66.4165802  77.5338211  50.7416878  79.6661301
  78.3682632  50.5471344  80.0928421  77.7788773  51.1509743  78.8362732
   8.7615042  24.6147900  79.1771774   8.1749258  25.1293926  79.7315598
   8.1765232  24.1273060  78.5971832  60.8273392   9.0763445   8.0922737
  61.1062889   8.9042625   7.1929369  59.8734169   9.0018053   8.0655794
  23.3034344  63.4600067  44.4807243  24.2310944  63.3588371  44.6938972
  23.2708683  64.2292938  43.9120712  17.6499329  11.1918392  16.0675125
  17.9277458  11.0973110  16.9786186  16.7078018  11.0236406  16.0857048
  14.0959492   0.5016754  31.7672863  13.2782221   0.4111173  31.2780476
  14.7709951   0.1874982  31.1657562  15.6191025  54.0526695  22.9529324
  15.8211498  53.4315186  22.2532291  16.1180706  53.7359047  23.7058735
  69.6430588   8.2019234  18.0530643  70.5510864   8.4731760  18.1877289
  69.1511002   8.6679792  18.7290802   3.3522394  56.9892540  65.6570587
   4.1010990  56.5447311  65.2597656   2.7677879  56.2803688  65.9256287
  17.4115677  68.1814575  30.4502277  18.2103767  67.8486633  30.8593540
  17.2098904  68.9819489  30.9347630   4.0004535  17.5286369  16.9647427
   4.7590313  18.1116714  16.9353828   3.3638518  17.9340458  16.3760033
  62.6612206  39.0257874  68.0308533  63.5133858  39.1257362  68.4551849
  62.0809822  38.7197456  68.7279129  43.7620811  42.8852005   5.8801441
  44.1128731  43.7275352   6.1693640  44.4680557  42.4963112   5.3638158
  43.2039413   1.9100059  49.6096497  43.4818153   1.1099428  50.0556526
  43.1541557   1.6642957  48.6858635  43.5134659  66.0986176   7.1859541
  43.9384308  66.9354630   6.9980145  44.2310181  65.4655228   7.2093410
  77.4540024  38.4151878  75.0271835  76.9392929  39.2193489  74.9591827
  76.9081345  37.7458115  74.6146393  13.1449499  55.4286499  12.1190081
  12.9348555  55.8101463  12.9713879  12.3122044  55.4235878  11.6470528
  70.5652161  27.0621166   7.4496603  71.2803574  27.0018902   6.8162742
  70.8138809  27.7867699   8.0234842  51.4483147  48.9861946  16.4639778
  50.6487160  49.3957939  16.7942886  51.2182045  48.0631943  16.3574276
  75.7259216  31.8310966  80.6674881  76.5090332  32.2414703  80.3006516
  75.8968811  30.8912926  80.6060638   7.1395941   7.4402103  35.7805252
   7.4796276   8.0200386  35.0990486   6.6621766   6.7624426  35.3020515
  13.8896065  70.3846283   4.9234672  14.3972340  71.1863556   5.0490828
  14.5415840  69.7212906   4.6973214   5.9397597   6.6079860  80.9319000
   5.9107285   6.8292065  81.8627319   5.9291739   7.4539766  80.4842148
  69.6854477  53.6270409  56.8036041  69.4117508  52.7481880  56.5410461
  69.0814667  54.2124825  56.3467712  33.3823814  64.1458511  16.9769707
  32.4865646  64.2091599  17.3082333  33.9326553  64.3379974  17.7362518
  63.9637680  71.1786499  62.7023468  64.4156876  70.6186371  63.3335304
  63.0675926  70.8429031  62.6828918  29.2790241  60.2872009  77.2356949
  29.4716473  60.3516502  78.1710968  29.4799366  59.3784904  77.0118408
  12.1793671  60.5416489  39.5188141  12.9900246  60.9941177  39.7519226
  11.6074085  61.2322464  39.1838951  79.1669312  13.4345608   6.0164638
  78.6202393  13.4013548   5.2314401  78.6062393  13.0937414   6.7133856
   5.6764107  25.8666592  24.5518456   5.6395884  25.7986031  25.5059128
   5.7080159  24.9594955  24.2480564  73.2858582  55.5423164  75.4317017
  73.2862396  55.6104164  74.4769287  73.8428116  56.2640305  75.7235260
  67.9123917  38.6196098  56.2533951  68.1943741  39.5285263  56.1504860
  67.8702469  38.2792664  55.3597374   3.7030542  44.9611320  61.5213470
   4.3223548  44.7544899  60.8213463   3.5470932  44.1237679  61.9580727
  70.7194214   3.4616337  64.5097504  70.6527939   3.1695285  65.4188538
  71.2014236   4.2872024  64.5581589   7.7379937  54.5567856  72.8170471
   7.0028701  54.4826927  73.4255981   8.5041714  54.6696777  73.3795929
   1.0939081  30.5136185  71.4448547   1.1871723  29.5810452  71.6393814
   1.5556744  30.6325073  70.6148758  23.9218731  52.7623291  80.6604004
  24.1980247  53.3688812  79.9733353  23.7848873  51.9313774  80.2054520
  80.3604660   8.6467505  21.8167458  80.1101990   7.7289486  21.7107430
  80.9482269   8.8211699  21.0816650  49.6001511  11.2164450  39.3827667
  50.1543846  11.4536190  38.6392593  48.7411690  11.0458670  38.9963875
  23.4227238  54.0575180  87.3870316  23.5676403  53.7257233  86.5009460
  24.2974091  54.0978355  87.7737198  72.8866653  29.8721142  86.3845596
  73.6179199  30.3492107  86.7768250  72.2524872  29.7790928  87.0954666
  41.8560219  70.2542725  46.2683334  41.3021469  70.4151917  45.5044250
  41.7027969  71.0078583  46.8382950  70.1895065  12.1848631  37.5986862
  70.2022781  11.5468493  36.8852386  70.9927826  12.6919355  37.4809418
  54.4717903  13.6558943  49.9101219  53.8951645  14.4195585  49.9336853
  55.2262802  13.9412775  49.3948288  76.0083618  42.1490059   2.3952641
  75.5219040  42.0755043   3.2163553  76.3021469  41.2569885   2.2102547
  73.8809814   0.0890550  66.6108170  74.5891571   0.5301307  66.1415863
  73.2987442  -0.2296154  65.9211197   2.1669409  39.6508865   3.1223204
   1.9687456  40.1251793   3.9297824   1.5247616  39.9746017   2.4906199
  22.4246693  56.1131935  59.5974197  23.0306911  56.7580185  59.9623375
  22.2702084  55.4974098  60.3137894  77.7670822  64.7389145   1.5868443
  78.4034576  65.3674088   1.9278002  77.4966049  64.2325058   2.3527555
  73.3328629  45.5329285  49.5798645  72.4187241  45.3409653  49.7889862
  73.4224701  46.4727249  49.7379456  67.6509018  34.2946930  25.3554344
  67.8360062  34.6030655  26.2424927  66.7257156  34.0499992  25.3751163
  49.9906616  69.4845200  59.2392998  50.0949974  70.1171570  58.5285873
  50.6889229  69.7010880  59.8571663  66.7512817  56.3095322  40.4658394
  65.8145981  56.3406029  40.6605148  67.0647812  57.1938324  40.6554718
  36.3691101  69.6821136  42.9809341  37.1854782  69.8098145  42.4977531
  36.0156898  68.8600540  42.6410141   3.2611957  50.4393692   0.8613562
   2.8908310  51.3212318   0.8985636   2.6256855  49.9338760   0.3545678
  10.1507082  47.3474693  87.1365738   9.6299706  47.5363388  86.3559418
   9.6032324  46.7553215  87.6521988  68.1719055  58.7972450  30.9448547
  68.3527374  58.1544838  30.2590065  68.9097672  58.7166214  31.5492420
  85.3058090  65.5520859  58.2664337  85.9620590  66.1132736  57.8533440
  85.3124161  64.7506256  57.7431221  73.7499161  24.3201637  62.5001373
  73.5506058  23.3898430  62.6050644  74.5936661  24.3348789  62.0483627
  52.8294373  43.3191452  82.1918335  52.1106949  43.2848129  81.5605927
  52.6928749  42.5551300  82.7520676  54.2601967  32.4589996  64.5301056
  54.2200089  31.5617599  64.8611298  54.7779274  32.3952370  63.7275352
  78.5168533   1.7480304  64.7597580  77.6461487   1.3532972  64.8075943
  78.3942261   2.5349765  64.2288055  32.6706009   8.5100231  78.1145935
  32.5334167   7.6709623  78.5543594  33.2830429   8.9798145  78.6806717
  71.8727951  49.6655998   9.0592289  72.7493973  49.4722862   8.7269163
  71.4200287  50.0703163   8.3193388  83.6910019  72.0039825   4.6029048
  83.3462296  71.5967789   5.3976078  84.1962509  71.3106461   4.1783528
  43.7943649  22.1559696   3.4722147  44.2317123  22.5478916   4.2280960
  43.7354584  22.8671417   2.8342543   1.0656202  47.8952408   9.9919071
   0.7708541  46.9906883   9.8864059   1.2247350  48.2009964   9.0989189
   6.6181831   7.7449770  31.5057621   6.8630438   8.2193794  32.3002548
   6.6764550   6.8214765  31.7506752  17.0426712  52.4146118   7.8771052
  17.8943501  52.6265564   7.4950662  16.4298191  53.0045929   7.4382792
  79.8090439  67.4782486  34.4546318  79.0731888  66.9043961  34.6677780
  80.3301620  66.9766617  33.8276787   6.8852139  55.5989418  70.4763947
   7.3813705  56.4166908  70.4396439   6.9516211  55.3193321  71.3894348
  46.3682785  46.9964333  50.5075874  47.0936317  46.3871269  50.6448364
  46.4572105  47.6374397  51.2128754  80.2606430  32.2287865  62.2145462
  79.9508743  32.1023216  61.3177261  80.2267990  33.1759911  62.3483009
  49.0982475   0.8750575   1.1759824  48.8932457   0.1985467   0.5305838
  49.4252777   1.6099039   0.6570578  60.1603279  37.4921837  77.6805038
  59.5915756  38.0848351  78.1719513  59.8584251  37.5663376  76.7751923
  58.0580559  68.6504440  35.5543823  57.8523064  68.4650345  34.6381302
  58.2348328  67.7917786  35.9386597   2.3524110  22.5921021  30.1340675
   2.4052224  22.0201492  30.8997765   1.5263131  22.3535824  29.7134705
   2.4377925  15.5742168  70.3002319   2.1249640  15.9106045  71.1400070
   2.4232497  16.3335629  69.7176437  45.7990379  44.0894966  14.9270487
  46.0165405  43.9744606  15.8520842  46.6434441  44.0612488  14.4771500
  75.4800339  22.3297634  36.8069725  74.5720062  22.5299416  36.5797005
  75.6738586  22.9044590  37.5475044  52.3370209  65.5797424   2.2350905
  52.6959267  64.6932678   2.1954436  51.4329720  65.4593430   2.5256684
  81.0886154  27.9049473  80.7904053  80.5275574  27.1818581  80.5100632
  80.5162125  28.6719933  80.7753067  60.7515297  26.0177345  48.7006226
  60.9355049  26.1663399  47.7730980  60.8395805  26.8814754  49.1036491
  21.4282990  69.1260910  64.8208160  21.0143871  68.8438950  65.6364594
  20.8534355  68.7917709  64.1323471  17.0504780  14.9657593   3.8178635
  16.2864647  14.3915434   3.7650242  16.9461021  15.5714197   3.0840290
  60.8305664  14.9560890  82.4859390  61.5192795  15.0059357  83.1488342
  60.0262299  14.8180132  82.9861450  49.0316849  29.4322357  18.3799839
  49.6085548  29.3120098  19.1343021  49.4542847  28.9420567  17.6747417
  85.1283569   4.8894520  50.5678596  85.0960922   5.3256311  49.7164268
  84.3037262   4.4063382  50.6208801  78.1263351  12.3189363  35.4264221
  77.2352829  12.6654358  35.3794708  78.2597961  12.1262560  36.3544807
  65.9567871  43.7490883   4.9066644  66.3966751  44.1574211   5.6523175
  65.0560837  44.0694237   4.9551368  45.3852005  68.3261566  34.6743240
  44.5469818  68.7187347  34.9182549  46.0084038  68.6777573  35.3101158
  68.6985168  24.4698448  87.6183319  68.3086166  23.6200371  87.8233643
  69.6156693  24.2728786  87.4278870  47.0278130  23.5890427  65.0179443
  47.1150513  22.9735947  65.7458496  46.8858948  24.4376221  65.4374771
  58.5753670  33.6398506   8.6292906  58.8542404  33.3518143   7.7600985
  57.9466324  32.9755440   8.9114676  24.9235344  66.2227936  34.3641434
  25.3239288  66.2137756  35.2335281  25.3079090  66.9851379  33.9313278
  40.7451210  11.3686352   0.5671415  40.0384102  11.3672857   1.2127321
  40.6144142  10.5628643   0.0672597  36.9392662   1.7137040  58.6070213
  36.3552361   2.4713905  58.6394463  37.2619667   1.6215022  59.5034561
  51.4130135   4.3097363   2.1009066  51.0808983   4.7479601   1.3173933
  52.0524483   4.9219913   2.4649093   4.8921127  56.4867744  21.6001492
   4.7689428  55.9610367  22.3905029   5.3653364  55.9101906  21.0002823
   2.6007886  59.0561867  15.1775970   2.5445402  59.5484428  15.9965916
   1.7306812  58.6724510  15.0685539  79.2139435   1.9990247  86.5698700
  78.6188965   2.6247025  86.9830017  80.0755997   2.4113023  86.6316147
  69.5003586  27.4534473  15.7376299  69.2281418  27.6052284  16.6426678
  69.4644470  28.3180656  15.3285112  31.8853073  64.0080948  27.7226105
  31.9771805  64.2679138  28.6392803  31.0272121  63.5862923  27.6780663
  66.6272812  19.6826077  24.2874069  66.2411041  20.4374542  24.7315998
  67.1946487  19.2816753  24.9458714  44.4960022  51.9705048   5.3546829
  44.4786377  51.1122208   4.9312735  45.4265900  52.1588783   5.4761410
  50.1375694  50.5561333  67.7145615  50.1584702  51.0815048  66.9147034
  49.5040512  49.8629036  67.5293045  25.5349617   3.8731766  88.1923294
  24.8612041   3.3401375  87.7702484  25.9144135   3.2977400  88.8564987
  52.6533890   9.9427376  36.7359009  52.4204903   9.0312710  36.5592117
  51.8188705  10.3701506  36.9285965  74.4480896  32.7671661  40.8376770
  74.1676102  32.2548409  40.0793343  73.6332474  33.0098686  41.2774048
  33.4079819  69.1466751  85.8367615  32.7306023  69.8082809  85.9769974
  33.0652161  68.5988922  85.1305847  67.5143204  34.7076454  70.5931320
  66.6998367  35.1443558  70.8423996  68.0652466  34.7645645  71.3738174
  56.9218750  19.4577770  60.6481361  56.5491524  19.9998341  61.3434677
  57.5301857  18.8731556  61.1002502  67.4974136  31.6261330  73.6842270
  67.9416275  31.2194099  74.4281998  67.1737518  30.8890495  73.1663666
   5.7520633  41.2415237  55.0299492   5.2948885  40.4259872  54.8247032
   6.6745267  41.0473175  54.8638840  16.3626766  57.1413612  60.7328606
  17.1063862  57.0184669  60.1429253  16.0402393  56.2556458  60.8995056
  35.0697746  62.8319778   1.2737901  34.4091759  62.5198288   1.8921788
  34.9364204  63.7791939   1.2387292   2.7210572  41.0332947  35.1324425
   3.5022464  40.4914703  35.2437973   2.0575483  40.6120949  35.6788635
  76.7778702  41.9687119  68.5681076  77.0525208  42.2402534  69.4439240
  77.5133820  42.2042999  68.0026398  72.9728546  39.3657951  31.8841343
  72.9351578  38.5405159  31.4006824  72.2861328  39.2870636  32.5462914
  55.8653259  19.4089851  43.4594116  56.7724571  19.6381435  43.6614723
  55.7392082  19.7031879  42.5573196  20.5987568  18.5127850  14.2141027
  20.2414188  17.7703133  14.7012148  19.9041786  18.7536907  13.6011133
  10.6227341  51.6282692  22.9027767  11.4939451  51.7498093  22.5253525
  10.1416254  52.4174309  22.6538010  85.0026932  30.8871822  60.2154312
  84.6491394  30.7926273  61.0999031  85.7241974  30.2593136  60.1775169
  16.8073559  44.6526794  73.1650925  16.8748741  43.9368095  73.7969208
  16.0720806  45.1796913  73.4779205  43.8040581  44.8067665   3.3185849
  43.2658958  45.4711838   2.8882718  43.9469452  45.1489716   4.2010312
  45.6980972  16.9992352  70.3495178  45.2341042  16.7463322  71.1476288
  46.2219582  16.2307148  70.1232834   0.3797383  19.8492222  83.1191559
  -0.3393727  20.4202595  83.3893890   1.0869366  20.0478954  83.7328644
  20.0328999  44.8787384  61.2386475  19.8420372  44.2312431  61.9172859
  20.9734306  45.0381851  61.3174667  63.0666733  68.9431229  41.1620140
  63.8621902  69.3529892  40.8223152  62.7267647  69.5715027  41.7990685
  67.8778152  61.1413651  82.8134079  67.6818161  61.1466217  83.7503052
  68.6434097  60.5726128  82.7320557  81.2457657  27.8830128  47.9818687
  80.9278641  27.3804836  47.2317772  80.9055405  28.7663708  47.8398895
  36.7773094  29.2699165  80.4163666  37.6107330  29.1317291  80.8664093
  36.8306961  30.1656456  80.0831223  80.5885468  46.6782837  35.6494598
  81.2318344  47.2206306  35.1930962  79.7416077  47.0017281  35.3423615
  66.6465759   2.0835814  83.8335342  67.4002304   2.2486696  83.2669830
  66.2824326   2.9516978  84.0067520  69.9747009  21.4526768  79.7262650
  70.5990906  21.6435356  79.0263138  69.1340103  21.3588867  79.2782974
  85.5488968  34.2445641   1.3008772  85.6264877  33.2922554   1.2432604
  86.4531555  34.5574226   1.3266628   1.3408867  24.7266083  31.5910358
   1.1130005  24.3115082  32.4228973   1.6770086  24.0115566  31.0507069
  66.5262451  53.2833023  16.9343777  65.9366760  53.3766785  16.1861019
  66.4127960  54.0935287  17.4312630  26.3792953  63.2796898  56.4759445
  26.3265533  62.9070473  57.3560524  26.6328182  62.5436401  55.9189987
  76.3947601  62.6693726  40.1099281  75.5112305  62.9878426  40.2948265
  76.8642120  62.7712097  40.9378624  13.7891951  59.9426651  75.8567657
  14.0011959  60.8342056  76.1332550  14.3811188  59.3873825  76.3642197
  48.6578636  24.4331646  22.6291904  48.2467575  25.2480125  22.9177227
  48.7067223  24.5137539  21.6766415  63.7836380  34.4575348  53.6128769
  63.4779396  35.3254547  53.8765068  64.0648117  34.0444412  54.4292831
  67.0760727  13.2070303  36.7303658  67.9434662  13.1353884  36.3319511
  66.9160309  14.1489944  36.7879829  72.8129807  71.1822739  35.8095856
  72.3061295  71.9900436  35.7268677  73.0127487  71.1194458  36.7435951
  15.1471853  56.7162971  40.9649124  14.6569376  56.6492157  40.1455269
  15.3701792  55.8119049  41.1853294  35.2606392  64.7156601  49.3851547
  34.8368835  64.7786789  48.5291786  35.6305504  65.5858688  49.5339279
   3.7012506  69.3774872  75.9444809   4.5738578  68.9940109  76.0324402
   3.2092886  69.0260696  76.6865845  30.9488182  11.0125771  19.1130238
  31.2817154  10.9251509  18.2198448  30.8871021  11.9572906  19.2542286
  82.3724365  26.9672852   4.9716444  81.9020233  26.7559872   4.1652346
  82.4470825  26.1311054   5.4314961  11.5165434  32.3367271  87.7441177
  12.4506283  32.2972412  87.9494400  11.0808334  32.1153069  88.5671387
  59.7787209  44.2468185   6.3319802  59.9751167  43.7437553   5.5416708
  60.0329285  43.6700592   7.0523696  29.4595509  50.0613060  79.6617966
  28.7842903  49.4136810  79.8638687  30.1452999  49.5619392  79.2183838
  46.1397476  63.5508881  43.6924629  46.8430939  62.9018211  43.7082558
  46.5542564  64.3605347  43.9906044   6.7275620  59.0520973  21.9318523
   6.9516587  58.4213943  21.2475815   5.8406234  59.3378944  21.7130051
  11.3297529  43.5727234  45.8950272  11.5878439  43.2197876  45.0435219
  11.0345793  44.4633636  45.7056427  70.9050369  19.8848267   5.4468751
  70.0776596  19.5328331   5.7751732  71.3769608  20.1599655   6.2328882
  49.8880806  39.0093918   7.1160502  50.2685509  39.0059776   6.2377205
  50.3966255  39.6639175   7.5948105  47.0224342  54.3053246  71.9780731
  47.0102119  55.2548027  72.0987930  46.2671089  54.1253090  71.4183273
  49.7010345  31.9722404   0.7515510  50.3739319  32.5195274   1.1564147
  49.2394295  32.5619202   0.1553709  78.7692795  27.9682560  44.5693283
  79.1822128  28.7747765  44.2607155  78.7262955  27.4091587  43.7935753
  29.3553410  33.5535736   1.7348047  29.9719219  33.2124634   2.3826497
  29.8649597  33.6119881   0.9266535  51.8776398  58.7917137  78.7357254
  52.2539177  59.6650620  78.8448639  52.5696869  58.1953354  79.0214386
  32.2117310  37.6849327  81.1435852  31.8355751  37.3026009  81.9364090
  33.0635147  37.2578354  81.0525818  44.8929024  31.7756710  82.5522003
  45.3619652  32.5989876  82.4166870  44.6393433  31.4968491  81.6723175
  35.1743126  28.4996014  75.4308167  34.2498360  28.7322960  75.3446350
  35.1854439  27.5433502  75.3896866   1.9755331  19.7774544  66.3119659
   2.3021486  20.6372948  66.0469589   2.0282173  19.2459869  65.5176163
  21.6959038  63.6745148   9.2041445  21.1941738  62.9622688   9.6006365
  21.0426903  64.3447418   9.0033150   5.3336711  54.1555710  74.0720749
   4.6380367  53.6484566  73.6535568   4.9970427  54.3469887  74.9474487
  51.7789612  11.9519386  16.2941456  50.8431778  11.8664322  16.1118507
  52.1628265  11.1404610  15.9619055  24.9553852  37.1260338  13.3869658
  25.3931293  37.6471825  12.7138987  25.6444645  36.5631638  13.7399197
   2.9737365  29.5083447  39.4043694   3.3257926  29.7925911  38.5608673
   3.7431076  29.4168205  39.9664383  70.4408493   5.9900723  47.1242218
  70.8852081   6.2847571  46.3292770  70.1283188   5.1105990  46.9118996
  67.9164963  16.7318630  33.5469971  67.9398804  15.8120937  33.8110237
  68.4678345  16.7708035  32.7654991  15.5618544  62.8809738  39.8081169
  14.8235960  63.4211311  39.5262718  15.3063498  62.5582428  40.6722908
  36.3947639  60.9057541   2.2470608  35.9439049  61.7480545   2.1879673
  36.5037689  60.6281090   1.3375216  18.6804123  47.0183334  46.5135155
  18.4214363  47.1618423  45.6032562  18.5332813  46.0839081  46.6599197
   4.1518569  50.8519745  60.8175430   4.5213547  50.1615601  61.3680229
   4.3087320  51.6589432  61.3078766  26.4481087  14.6431170  70.9557343
  27.0762825  13.9267130  71.0473633  25.5926781  14.2263107  71.0593796
   5.2888918   5.1520038  15.8171120   5.7805934   5.8245082  16.2884922
   4.9753156   4.5607142  16.5014210  24.2292671  66.3139801  20.1734028
  23.3465652  66.0201569  20.3986530  24.4357834  66.9780502  20.8311195
  19.9973736  53.9630432  57.7350121  19.6336155  54.2252541  56.8893394
  19.3466892  54.2509727  58.3752747  83.3134766  28.2112980  26.6571445
  83.8155365  28.4366016  25.8739414  82.4257889  28.5156231  26.4683800
  42.4143448  10.0254383  67.2386932  41.6557617  10.0962248  66.6592331
  42.3306236  10.7696285  67.8348541  41.9141502  49.7108536  58.1684074
  41.8361893  50.6311684  57.9170570  41.3012695  49.2527542  57.5932961
  80.8513107  47.0538673  21.8488235  81.2093277  46.3442001  21.3155079
  81.3168945  47.8354607  21.5512142  23.2999401  47.7466965  71.8131409
  23.9965591  47.3273430  71.3080673  22.8191795  48.2685585  71.1706696
  40.1270294  66.6575928  82.6067734  40.6464005  67.4603043  82.6530457
  39.4444351  66.8506851  81.9641113  32.5089760  42.3780060  88.7535324
  32.4709511  43.3270416  88.8723602  33.3896255  42.1358566  89.0399704
  55.9176140   0.6713701  28.6988163  56.0988159   0.5731149  27.7640743
  56.4365120   1.4304399  28.9648819  83.8898239  57.5043449  80.5586929
  84.4536743  56.7680206  80.3217850  83.0003586  57.1587105  80.4837112
  61.6572762  35.4615059  61.7481232  61.2208061  34.8638382  61.1410637
  62.4776802  35.0209465  61.9696617  69.0870667  13.8544512  34.4013443
  69.0855179  13.6433353  33.4677162  69.8335648  14.4431877  34.5125351
  49.1451569  37.7016296  14.8902082  49.1685753  37.0012436  15.5422382
  50.0497398  38.0101509  14.8375120  80.9223785   1.6851819  24.7033768
  80.7023239   1.8218495  23.7818947  81.1006775   0.7471309  24.7704678
  62.6568565   8.8500843  75.2825623  62.0154076   8.9674482  74.5818481
  62.1978760   8.3310041  75.9429626   3.0314889  24.6575298  88.0310059
   2.6367588  23.8643513  88.3933411   3.5789092  24.3450680  87.3106384
  53.3679237  22.3464966   8.9022837  54.0178795  22.2069530   8.2135773
  53.0961800  23.2579098   8.7940531  30.9717999  62.6178284   5.4317741
  30.6301556  63.2457542   6.0683455  31.0745335  63.1249847   4.6264968
  56.9870834  70.3742599  24.3461075  56.7108803  69.6009445  23.8542519
  57.9108086  70.2166290  24.5413322  70.4539566  18.5519466  18.0760040
  70.1188583  18.7271385  17.1966591  70.1160583  19.2717304  18.6088886
  27.8959999  13.3170071   8.6045780  27.6403217  13.1647577   9.5143471
  27.0931473  13.1747913   8.1031475  36.1356201  28.9978256  64.1086121
  35.9446564  29.9178505  63.9260788  37.0913544  28.9523907  64.1357269
  39.0812569  18.6004753  72.9540024  40.0144234  18.7695332  72.8241806
  39.0537224  17.8076305  73.4896011  60.0873222  10.6475668  50.0602379
  59.7259140  10.4187183  49.2039413  59.3824883  11.1249895  50.4978600
   9.7946939   5.1442485  72.8186264   9.1529045   4.9024396  72.1508942
  10.6147346   4.7551618  72.5146942  55.6887321   3.8513756  37.6183243
  54.8298988   3.5679517  37.3047829  55.7399139   4.7754555  37.3740120
  16.2357826  57.2927742  13.5315514  16.2048855  56.6017303  12.8699331
  15.7372417  56.9407959  14.2689791  73.1746826  34.4127808  56.6367874
  73.2261124  33.4641266  56.5199928  72.7904510  34.7340508  55.8210754
  37.9898987  66.7591248  81.0928116  38.0532875  66.5447540  80.1620789
  37.3140259  66.1704025  81.4287033  86.4184875  22.4867287   7.2812309
  87.0202789  22.0680618   7.8966932  86.2651672  23.3565025   7.6503081
  79.1342468  29.7336330  30.3043957  79.8489609  29.9690914  29.7128105
  79.4268951  28.9242744  30.7233562  79.9134750  50.1764030  80.7558365
  80.4237976  49.6305885  80.1575928  80.4776840  50.2848053  81.5214386
  61.7431297  33.5920677  40.9052544  61.6596642  34.5454445  40.8867683
  60.9122696  33.2720413  40.5538483  82.0356522  22.4240437  61.3054771
  81.5710983  23.1202545  61.7699203  82.4470901  21.9071922  61.9981613
  45.2437363  38.8955612  82.3370514  45.8712616  39.5439110  82.0175400
  44.7121811  39.3710556  82.9754791   0.4527205  36.0586853  53.1335945
  -0.4916033  36.1419373  53.0011024   0.5439091  35.7975616  54.0499611
  55.8509445  34.0468063  56.4903297  56.0781517  33.1615829  56.2057495
  56.6362762  34.5644493  56.3127441  67.7918930   3.6033587  79.5680923
  67.1761856   4.1117568  79.0402069  68.6432571   4.0061712  79.3973389
  19.4609566  49.8924675  40.3378906  19.7894363  50.4611168  39.6414909
  19.2084522  49.0855751  39.8891220  17.5127468  33.7889709  73.9167786
  16.9298306  33.5471420  73.1970825  18.1836090  34.3359756  73.5081711
  27.3765068  10.6682930   1.8192450  28.3329811  10.7025023   1.8044863
  27.1073856  11.1549616   1.0401689  59.4900703  32.7931557  75.0163269
  58.9147758  33.5262947  75.2349167  58.8946152  32.0924530  74.7504730
  59.0590286  19.4312611  30.9163361  59.9263153  19.0366993  31.0078144
  58.4757195  18.8406448  31.3929443  64.1869354  57.4391022  55.0397339
  64.4207535  57.0588799  54.1929779  64.3177490  56.7273216  55.6662216
  20.3270359  40.7795868  21.3397579  20.0235271  41.3984451  20.6755810
  21.2760563  40.9018517  21.3651829  18.6068954  18.4307060   6.4478192
  19.5531731  18.3648720   6.3195353  18.4405384  19.3701134   6.5257320
  51.7191620  57.6539841  57.0280533  52.4377747  57.3307533  56.4845924
  51.1168251  56.9130020  57.0941467  42.2031479  66.5891418  51.7194595
  41.7180481  67.0555878  51.0387650  42.8980370  66.1307755  51.2469559
  17.1855030  11.3434772  57.3312187  16.5257607  11.0070105  57.9376564
  18.0102367  10.9719152  57.6442490  81.2883911  25.3779068  32.0750084
  81.7144699  25.1913280  32.9115906  81.9874344  25.2948952  31.4264145
   5.5595393  57.3860931  39.2681618   5.7670374  56.6003685  38.7623787
   6.2150688  58.0274620  38.9940186  78.9792252  38.4103012  15.7354231
  79.3507690  38.5889778  16.5992870  78.8348694  37.4640808  15.7278299
  35.4476624  37.0335732  86.6695175  35.6358986  36.7270660  85.7824707
  36.2340393  36.8159981  87.1700287  22.9432259   6.7578025  14.4014969
  22.2906494   6.4394321  13.7777843  23.7838573   6.5866370  13.9769096
  57.6671448  32.6630020  61.9809113  57.2219353  33.4898033  61.7953873
  57.6137733  32.1728745  61.1604500  85.9497986  17.6637917  15.3650942
  85.0813217  17.7729378  15.7524710  85.8699341  16.8856182  14.8134613
  79.8409271  61.1046677  22.2349243  78.9090195  60.9794540  22.0557518
  79.9804993  60.6833229  23.0829926  73.2313690  24.5469112  59.4777260
  73.0075912  24.2458229  60.3583527  73.8460083  23.8907509  59.1492310
  49.3656425  69.9776459  41.6924744  50.0530739  70.3946762  42.2118607
  48.7025032  69.7223053  42.3337860  30.8445072  21.5408382  70.0772018
  31.0275669  20.6641483  69.7393570  30.0865250  21.8380432  69.5738525
  86.6296539  23.7540112  88.1396332  86.5647049  24.7065277  88.0709076
  85.8182831  23.4297943  87.7487411  69.1730881  13.6378784  44.8211670
  68.7287292  14.4175034  44.4880600  69.1304321  13.7263193  45.7733154
  10.5279884   2.3848350  69.3520584  10.6624250   3.2970524  69.0951157
  10.8132334   1.8774426  68.5921707  13.9947853  38.9072723  65.9362335
  14.8236246  39.3762398  66.0328064  14.1168804  38.0998039  66.4355545
   1.2716604   5.3744435   9.3550367   1.7106520   6.0636001   8.8564568
   0.4990399   5.8015690   9.7249737   9.8733950  53.9050369   3.5125823
  10.6223841  53.7826881   2.9292493   9.3792953  53.0882225   3.4425056
  79.2447357  48.2115402   6.3633823  78.5163422  47.6681671   6.6640878
  78.8287659  48.9163094   5.8668957  86.4002151  57.8956795  25.0858765
  87.2703400  57.7422409  24.7176743  85.8801041  58.2124901  24.3473988
  81.4267654  34.1737442   6.9680185  81.0632858  35.0582428   6.9257541
  81.7284470  33.9959526   6.0771713  22.5043697   9.7407217  77.7388000
  22.5202141  10.1055164  78.6236191  21.5744801   9.6220436  77.5452805
  81.9234772  17.5976734  79.2088318  81.0537720  17.5124874  78.8182068
  81.8955536  17.0328083  79.9810867  29.0491657  60.2032433  44.7783279
  28.2852917  59.6352348  44.6778526  29.2782555  60.4569359  43.8842430
  19.4854126  25.0095406  75.6774368  19.0083580  24.1964340  75.5115738
  20.3821163  24.8219929  75.3999786  64.1456223  31.1197739  11.5812893
  65.0577621  31.1441498  11.2920914  63.9712868  32.0057755  11.8988457
  22.2478714  65.8280945  33.7790642  22.2135677  65.8050995  32.8227577
  23.1734867  65.9627914  33.9823570  16.3777561  38.5061455  87.3020401
  17.1074734  38.3375473  87.8981247  15.7858772  39.0689659  87.8011856
  80.8986511   8.6952286  15.7533884  81.7419968   9.0380373  16.0491753
  80.9198608   8.7954454  14.8016853  59.7114792  17.7526855  49.8408279
  59.2240067  18.5265903  50.1231003  60.4451904  18.1028805  49.3355904
  40.4297600   5.4660177  72.6654282  40.6770172   4.6771026  73.1478348
  40.7290688   6.1881881  73.2178040  77.0836411  19.5035553  75.6583176
  78.0217438  19.6664753  75.7565689  76.8232193  19.0973568  76.4850082
  71.1417847  16.9203835  85.2668762  72.0413361  17.1064491  85.5359802
  71.1326523  17.0938206  84.3255615  21.7606087  55.8631020  18.3796329
  21.8080940  56.1262245  17.4605350  20.8455391  55.6146927  18.5106812
   2.2184737  50.8679008  64.2373199   2.4740033  50.7029343  65.1449127
   2.9531214  51.3570099  63.8667831  64.5951233  69.3512650  75.7642212
  64.0440521  69.4587097  74.9889755  64.0224762  69.5746841  76.4979706
  72.2219925   5.3667135  85.9835510  71.3903122   5.1259217  85.5754395
  72.7249069   4.5524564  86.0008621  62.9536400  64.2264404  41.1638069
  62.6938477  64.4403915  42.0598907  62.8227921  65.0394974  40.6758957
  21.5207977  68.2543488  44.5514069  22.3987465  68.0732727  44.8870430
  21.4880753  69.2073517  44.4680824   4.7422280  24.2177219  45.2939949
   3.8574510  24.5583229  45.4258766   5.0977998  24.7452221  44.5787697
   9.2958517  55.5640411  27.3042641   8.5986853  55.2874184  26.7095623
  10.0846071  55.5707397  26.7619991   2.9821243  56.2058983  13.2186432
   3.3095319  56.3215561  14.1106405   3.2293470  55.3106689  12.9869595
  55.5289345  19.0196762  70.7743149  56.2758408  19.6150379  70.8368149
  54.9717941  19.2556992  71.5160217  77.9118958  27.4753952  48.4457932
  77.2567978  27.2679615  47.7794266  78.7399902  27.5048084  47.9665947
  73.1700058   4.7297173  28.2652893  72.5119934   5.4245553  28.2438793
  72.7047501   3.9699609  28.6153469  34.1451073  50.0089645  30.8678646
  34.9003525  50.1778145  31.4311848  33.3869934  50.2021980  31.4193687
  18.6704369  19.0173435  80.4076004  18.5267048  19.9561119  80.5271225
  18.0220737  18.6015072  80.9758682  43.0020866   3.5498044  33.4619827
  43.0975189   3.5409751  32.5095940  42.1133041   3.8725924  33.6106529
  81.9610062  54.8903236  25.4081917  82.2626190  55.4741631  26.1041756
  81.5696182  55.4742775  24.7585430  11.5353823  52.2118416  43.3957443
  11.1851234  51.7296333  42.6467285  11.5146503  53.1286240  43.1213036
  77.5190964   8.2422991  70.5116806  78.2857132   7.7629228  70.1974716
  76.8391647   7.5745339  70.6011810  65.0352859  62.2307205   0.6139414
  64.8288269  61.3767853   0.2339378  65.9918747  62.2635422   0.6237898
  22.9124069  61.6222076  63.7526131  22.2747650  62.3340530  63.8066711
  22.6358147  61.0012093  64.4264679   1.6153299  70.1263504  62.0830536
   2.4716125  70.4789200  62.3253517   1.5564291  69.2952805  62.5543060
  77.0593872  40.1392365   4.8926024  76.2456436  40.5716248   5.1516304
  77.0008621  39.2662773   5.2808695  32.8793907   4.3868184  84.4045639
  32.4858818   4.1096826  83.5771713  32.2778625   4.0644212  85.0757294
  80.9868393  65.7877502  58.0618477  81.5306778  65.3110809  57.4347496
  80.5310593  65.1035995  58.5522003  80.2232437  44.7378159  68.8034592
  79.6034927  44.5099678  68.1104736  81.0239868  44.9803085  68.3384399
   2.5373125  25.2783089  77.9881821   1.7457099  25.2460842  77.4510040
   3.2466090  25.0627384  77.3826599  72.8479385   6.5113177  78.2535629
  73.2768631   7.3667121  78.2299652  73.5607529   5.8827267  78.1395416
  17.2737331  46.2766724  84.1157227  16.4193535  46.7046089  84.0597000
  17.5578823  46.1891212  83.2058792  62.9034958   5.0439787  16.1358833
  63.6902580   4.6000934  15.8193302  63.2147102   5.6060815  16.8454037
  43.0486183  64.5016556  78.2252045  43.6058617  65.2570572  78.0378799
  42.8843193  64.5528641  79.1668091  33.8562622  44.9233055  14.8906603
  34.2598267  44.1561699  15.2967052  33.9203606  44.7579994  13.9500237
  76.7613449  47.0855408   1.4726802  77.6744003  47.0180206   1.7519691
  76.7522888  47.8200912   0.8590155  45.9531708  21.8643093  12.7912445
  45.1804543  21.3603554  12.5359554  46.2975693  21.4035892  13.5563326
  24.8012142  54.4460793  38.1116791  25.4655685  55.1342278  38.0754242
  25.1991234  53.7567902  38.6434479  30.1322384  38.0597763   7.6932354
  30.3066959  38.0419846   6.7522359  29.8231010  38.9496841   7.8627343
  64.3859406   3.5226576  88.1934357  64.3365326   4.4372807  88.4713821
  65.0961609   3.5053120  87.5519333  28.4961376  53.9965057  16.5873775
  27.8465157  53.8879585  15.8927975  29.0906982  54.6695900  16.2561817
   7.8795719  50.3827477  30.1489620   7.3854508  51.1790543  29.9540939
   8.0635834  49.9991913  29.2914925  71.6842575  45.0962677   7.5093431
  71.1734314  44.4081383   7.9356828  71.5147324  45.8795586   8.0327425
  17.3704739  50.4631157   2.6740334  17.8903503  50.8567886   1.9733337
  17.3419666  49.5313759   2.4565921  61.0984497  63.5527916  24.7834034
  61.3931541  63.5059967  25.6929035  60.3645325  64.1670380  24.8007450
  61.5816269   3.8499622  48.3636513  60.9588776   4.4799900  48.0010452
  61.0679779   3.0526252  48.4926872   8.5282259   5.5450511  51.3099976
   8.7112322   6.2048512  50.6411133   9.2274570   5.6566043  51.9540939
   5.9314723  19.3884029   4.2365379   5.5017138  20.0637283   3.7116809
   6.7878618  19.2737560   3.8246093  48.0022736  58.6487160  41.0357819
  47.5512085  57.9913559  40.5060158  47.4127121  59.4028015  41.0348091
  52.5569077   2.1905878   7.7749658  51.9911232   1.5879825   7.2922802
  52.8510742   2.8212719   7.1177487  41.9805031   9.9004984  79.0716324
  42.0092430  10.2671499  79.9553528  42.4217567   9.0545845  79.1488190
  53.2419090  39.6438599  85.8698044  54.1546860  39.4305573  85.6759567
  52.8868561  38.8450050  86.2596817  40.3111687  36.4555855  61.0500145
  41.1580276  36.2192993  60.6715660  40.3451309  36.1155167  61.9441261
  44.8631592  28.3470592  70.0454483  45.6270905  27.8002434  69.8620529
  44.8607788  28.4436073  70.9977646   7.2341924   9.2596769  53.7165375
   8.1359463   9.0495310  53.4738197   7.0464430   8.6865072  54.4598122
   0.5041047  57.6454163  77.9981308   0.8904134  58.0747528  78.7614517
  -0.3395042  57.3172150  78.3093185  35.1466064  59.1091881  80.3274765
  34.5864296  58.3698425  80.0912552  35.6790504  58.7839317  81.0533829
  40.4042816   3.0042655  80.6136169  40.0421791   3.1112378  79.7340317
  39.6558113   2.7445507  81.1508026  48.5914726  44.8353539  77.4426651
  47.7058105  44.9703560  77.1056061  49.1461411  45.3789444  76.8831177
  59.4518089   6.8260846  32.9882202  59.3565445   7.6439734  33.4762917
  60.3849258   6.6204753  33.0451698  51.9698257  39.4839325  59.4916420
  51.1155281  39.4061356  59.9163284  52.0089989  40.3939095  59.1973000
  11.1149492   4.9925728  82.2689133  10.2096434   4.9951248  81.9580307
  11.1852665   4.1960449  82.7950592  33.3652077  43.8468742  72.7264404
  34.2783089  44.0428276  72.9363937  32.9591599  43.6616783  73.5732346
  53.9035950  19.9909229  21.5092030  53.5161400  20.6002674  22.1375427
  53.1977196  19.8040581  20.8902874  26.5180187  54.4936752  65.7409668
  25.9093971  53.9442253  65.2470856  27.2872009  53.9396172  65.8736801
  84.2145004  51.5917206  35.5491943  84.7464752  51.8115997  36.3139725
  83.3982086  52.0746346  35.6783943  11.9617023  60.2353134   9.1315250
  12.6524954  59.7026367   9.5255947  12.4287462  60.8657150   8.5831690
  61.2588806  23.8585892  81.5728149  60.5749512  24.2658424  82.1044388
  62.0330009  23.8607540  82.1358185   1.1792157  29.9948730  12.9737864
   1.8907332  29.4398212  13.2929926   0.8916488  30.4829941  13.7453270
  21.0285530  28.5799103  17.0012970  21.7644939  28.9011383  17.5222912
  20.3336315  29.2218304  17.1470871  75.5491943  36.1852684  55.0492477
  75.2487793  36.9153709  54.5080147  76.2403183  36.5602760  55.5950966
   0.0525734  36.0431328  87.0240707  -0.0747501  36.3624458  87.9174118
   0.1916354  35.1013641  87.1238785   7.0563960  65.5213699  87.7831421
   7.5725827  64.9480667  87.2164764   6.4587307  65.9724960  87.1868896
  71.5387726   1.7496380  57.6950874  71.5760498   1.4875985  56.7752075
  71.2526627   0.9617018  58.1571770  82.0290298  23.2116928  74.1456451
  82.2490845  23.1610317  73.2154617  82.4644623  24.0072460  74.4517975
   1.4131515  21.3914642  32.3219070   1.3306359  21.8908215  33.1343498
   0.5229214  21.0961609  32.1308060  77.3475494  55.8089180  44.2404251
  78.0369034  56.4254951  44.4871178  77.6474838  54.9658127  44.5802002
  10.6310005   8.7353830  20.9511814  10.3870935   9.6411448  20.7605629
  11.4060802   8.5775423  20.4121361  42.1033096  53.2217865  60.1079712
  42.8261375  52.5943336  60.1005478  41.6218910  53.0421333  59.3003883
  46.7077484  13.9660187  77.7909470  46.2438469  13.3299417  78.3354034
  46.0392990  14.6071157  77.5492935   8.6638145   4.7687416  40.1064796
   7.9466448   5.2393613  40.5312309   8.5603771   4.9644599  39.1752281
  83.5670166   3.3335059  44.8845253  83.8392181   3.7246096  45.7146912
  84.3846130   3.1899226  44.4079247  39.6884880  57.2965622  42.0787697
  40.6081696  57.5316849  42.2017975  39.7152176  56.4387436  41.6548996
  57.9781456   1.0347303  80.3336411  57.6469574   0.5570171  79.5731583
  57.2111282   1.4867632  80.6851883  55.0999603  36.3783379  26.6530704
  55.9140587  35.8776436  26.7057953  54.6148338  35.9718208  25.9349937
  74.3776779  64.9022522  18.4970131  73.9280243  64.6079712  19.2891254
  75.3049469  64.7461014  18.6759510  20.9158611  52.7354774  24.3958282
  21.0684967  52.0753479  23.7196922  21.4545155  53.4804459  24.1291676
  51.5885887  36.8909874  65.1217346  51.0534744  36.4302101  65.7679291
  52.3077850  36.2882690  64.9327393  59.4703255  34.0600624  80.4325027
  58.6135254  33.8735466  80.8163452  59.5960655  33.3703880  79.7807617
  16.8462982   8.6052914  63.9813194  17.3965530   8.1405153  63.3508949
  16.3913078   7.9118047  64.4591141  -0.0993558  47.1337204  18.4874039
   0.0470926  46.2612915  18.1218224   0.6539617  47.6460419  18.1936798
  42.7424202   4.3367701  51.9242973  41.8731461   3.9419606  51.9929848
  43.3444443   3.6350532  52.1720734  23.6419907  66.9979248  87.4569397
  24.1343060  66.3004608  87.0240479  22.7256107  66.7374344  87.3640671
  55.1780052  38.9996033   7.2628617  54.6201019  38.8169403   6.5068121
  55.4104042  39.9236412   7.1713533  10.4536695  68.2652817  17.4265118
  10.4937611  69.2019501  17.2334347   9.5879841  67.9945374  17.1207047
  60.0393295  34.9336319  53.8211594  59.7612801  34.4530907  53.0414124
  60.5350494  35.6778908  53.4797363   6.5731416  63.0654106  15.6802578
   7.0769944  62.5000000  16.2656441   7.1946983  63.7389832  15.4042196
  12.2291317  41.2488785  66.6886215  12.5307512  40.3509102  66.5511093
  11.8188190  41.2339554  67.5532913  41.5706749  52.0706444  28.3724022
  40.9964676  52.7457085  28.0107403  42.1009026  51.7837219  27.6289177
  48.4678650   4.0036783  35.3034172  48.3420029   3.9753680  34.3549538
  49.3965721   3.8080244  35.4277344  38.9139748   1.8903937   2.5004416
  38.3688507   1.2751771   2.9909337  39.3379860   1.3535578   1.8309246
  71.0426407  52.1647186  33.1120605  71.6576843  52.3619576  32.4056320
  70.8603973  51.2298546  33.0169144  48.1506996  65.1764526  17.9624920
  47.2771950  64.8868790  18.2258663  48.6409760  65.2350693  18.7825069
  29.0238514  10.6588984   4.9730363  29.6449757  10.1955795   5.5349727
  29.5498028  11.3285961   4.5358729  12.2324924  57.6013832  23.3540382
  12.9944754  57.2981682  23.8476715  11.4847488  57.2018242  23.7984085
  70.3136292  62.1601448  64.4068832  70.2349701  62.9140015  64.9914780
  71.1165009  62.3235703  63.9119949  19.5047779  63.0170746  46.8314552
  18.9338474  62.3610916  46.4315071  19.2692375  63.8366547  46.3966675
  36.4234047  32.0724564  70.5262527  36.4301109  32.1092110  71.4827194
  37.2848892  31.7259579  70.2938309  62.8781548  46.7348595  86.6957397
  63.3793716  47.3833733  87.1901550  62.2254524  46.4121132  87.3170700
  44.6357689  36.4117622  26.7795410  43.9634285  36.9017105  26.3061085
  44.9545059  37.0229645  27.4436703  64.9498138  30.1390400   8.4221582
  64.6068115  29.5940189   9.1303501  65.5099945  30.7785892   8.8619385
   5.7158041   0.8592116  28.8446960   5.7776985   0.0043521  28.4185314
   5.5001874   1.4651855  28.1357975   1.0523083  65.7931366  73.5713425
   1.4744631  66.6510468  73.6160889   1.7653860  65.1852112  73.3759460
  70.0195694  64.1522141  45.8640099  69.3651505  64.6225739  46.3804626
  70.6472702  64.8257294  45.6020889  47.6996574   2.1664538  14.8663158
  48.6153564   1.8907714  14.8247519  47.3376617   1.6836480  15.6093435
  40.3346596  60.5108337   8.0955286  40.4065361  61.4488525   7.9189439
  40.4642792  60.0959473   7.2427087  83.1209869  60.5338097  46.8858414
  83.1902008  59.8483505  46.2213173  82.6809235  60.1096649  47.6225090
  56.8667755   0.9226840  62.1769676  57.3606834   1.7312893  62.0411568
  57.2200127   0.5598218  62.9892426  49.1628685  12.0903950  15.5235338
  49.1541252  11.7659225  14.6230488  49.3138580  13.0316868  15.4374886
  74.4849777  64.2575836  85.1385498  74.3142548  64.8854828  84.4365311
  75.4046402  64.0170364  85.0263214  32.7455025   0.4738874  29.8305874
  32.6733131   0.8814094  30.6936913  32.3677444   1.1164017  29.2299995
  66.0437317  26.1500320  78.7799454  66.4558258  27.0017223  78.9249802
  66.6662827  25.5183182  79.1399460   0.7657815   7.1983747  59.5921707
   0.4368905   7.9274683  59.0663528   0.7007674   7.5065012  60.4960861
  22.7170334  44.8060455  58.7978935  22.7567711  44.9207611  59.7473640
  22.0035286  45.3790016  58.5170670  39.2735329  50.1433907  48.8901672
  39.7086182  49.3345947  49.1599503  39.6168137  50.8099899  49.4851761
  83.4014740  31.2516804   5.9838305  84.2408295  31.0354595   5.5776629
  83.6365433  31.6522961   6.8207788  24.2930317  20.2783413  65.8725586
  24.1726933  20.7743301  66.6823425  23.8683529  19.4373016  66.0414658
  27.5965919  12.5677719  64.9789200  27.0672703  13.3243790  64.7267456
  28.5011215  12.8604803  64.8676453  25.7494144  23.1180000  55.2743835
  25.2860661  22.4103737  55.7224960  25.2228222  23.8978558  55.4497643
  63.3679123  25.9778633   1.0656136  62.5351982  26.3477230   0.7723178
  63.4967613  25.2083645   0.5110857  57.6567726  23.5881119  45.5460854
  57.1414032  23.3234100  46.3080292  57.4108887  24.5009384  45.3960037
  49.9801445  68.0092697  32.6780205  50.8183594  67.5837173  32.8583755
  50.1950111  68.9389267  32.6018028   1.5128974  20.4615269  48.7267265
   2.2725656  20.0051460  48.3649902   0.8154042  20.3080063  48.0894165
  80.9699631  14.8566427  58.9730682  81.8748932  14.9024343  58.6644516
  80.7550201  13.9242439  58.9473305  66.6229401  69.2238235  26.7507191
  66.9124298  69.0308914  27.6424599  65.9610672  69.9071960  26.8563461
  76.3574524   2.3271351  21.3914585  76.0217056   1.4327714  21.4516506
  75.7496414   2.8470345  21.9172955  68.7286453  61.8026428   2.7739656
  68.0985947  62.1269684   2.1304743  68.4934311  60.8829880   2.8970280
  21.6491966   3.6902263  61.7802925  20.9448757   3.8844049  62.3987236
  22.4419117   3.6767247  62.3166275  51.4885025  29.9015541  68.5730133
  50.5658722  29.9045238  68.3181076  51.5471230  30.5572605  69.2678833
  62.9777451  64.6696472  49.3730774  63.7423286  65.2042847  49.5871124
  62.2683220  65.3017349  49.2572899   5.5845337  34.6579819   8.4518919
   6.2493448  34.0335617   8.7423315   4.7947760  34.1299210   8.3349876
  27.0686874  49.4986076  87.9451523  26.7708321  49.0588112  87.1488495
  27.5270748  48.8177452  88.4376373  81.9907837  35.9526558  82.2231827
  82.4470520  36.1288033  81.4003677  82.4929199  35.2459488  82.6289597
  14.3444576  65.9707718   3.9296145  15.0476494  66.5771713   3.6971700
  13.6773272  66.5227280   4.3376675  85.6370773  55.4698715  79.8325577
  86.4485626  54.9679070  79.7567520  85.2884216  55.4975166  78.9415359
  66.1343002  59.1355515  38.1617661  65.4681931  59.6649399  38.6002617
  65.6366730  58.4713440  37.6848755  43.1780510  18.1259441  10.8493938
  43.5171127  18.7715263  11.4694681  42.2604942  18.3697968  10.7275047
  83.6255341   7.1001453  72.5219879  83.8576813   6.2741117  72.9462662
  83.7614136   6.9365201  71.5887146   9.8797827  35.2890358   1.9110163
  10.2850685  35.3366890   1.0451617  10.5733013  34.9589539   2.4822493
  81.0100861  54.2132721  20.8215752  80.9481201  53.3049774  20.5259552
  80.9187622  54.7320366  20.0223408  63.4972992  20.7586155  40.5695114
  64.3882217  20.4499302  40.7344284  63.1352539  20.1252899  39.9497910
  42.8976402  71.1151962  41.6904488  42.4344521  70.6667480  40.9829330
  43.6566582  70.5601273  41.8694038  82.1965179   5.9005365  12.2289696
  82.2273102   4.9794941  12.4877434  83.1024246   6.1180158  12.0092773
  59.7100601   8.1912088  26.7040272  59.3099327   7.4744964  26.2116337
  59.3305321   8.1211796  27.5799770  49.3294029  16.2679672  71.4204788
  48.5472641  15.7188120  71.3664017  49.7526588  16.1665592  70.5679474
  75.6715164  55.3197823  27.5919743  76.2041245  55.1071129  28.3583469
  75.4353027  54.4695740  27.2210503  24.8164539  60.2993698  73.0629883
  25.0499763  61.0095749  72.4652405  25.1143780  60.6009254  73.9212036
  69.3581772  46.9240685  16.3822842  69.1556244  46.3631363  17.1309891
  69.8391800  47.6611977  16.7584629  81.5469208  57.2632904   4.3504539
  81.1135788  57.5570793   3.5491209  81.3095779  56.3390694   4.4260564
  73.1699982  35.7355080  84.6185074  72.5634155  35.9404984  85.3300323
  73.9164429  36.3164597  84.7652893  42.5094376   0.7554423  36.3200722
  41.8585968   0.0577143  36.3963242  43.3513603   0.3078814  36.4042702
  22.0825481  31.8748913   9.1571999  22.1717129  32.7810364   9.4524698
  21.1506329  31.6808281   9.2577248  44.3204269  55.0173531  40.4290924
  43.6009636  54.7933693  39.8388100  44.0725937  55.8652000  40.7978325
  68.1917953  59.8103905  67.7197800  68.3395844  59.1961555  67.0006790
  68.0869370  60.6599312  67.2913895   7.6479597  44.8661079  15.9777384
   8.4126310  45.1175995  15.4597969   7.9888568  44.2465248  16.6228218
  78.9485397  59.9302101  37.7396431  78.0335922  60.0825157  37.9761047
  79.3769302  60.7738914  37.8842506   0.9363706  12.2521105  19.8692265
   0.8561853  12.2607260  18.9154301   1.8268701  11.9410257  20.0319195
  34.9471817  48.7697487  21.5317974  35.5709877  49.0984459  20.8844528
  35.4314346  48.0975876  22.0113049  42.2840080   0.5579047  12.0940857
  41.9922104  -0.3208256  11.8513508  41.5000420   0.9831125  12.4416885
  40.1668396   3.5802162  43.3211136  39.2608452   3.3793983  43.0864372
  40.6922874   3.0293012  42.7409172  83.7031937  35.0170670  13.8200111
  84.3311539  34.3864212  13.4676094  84.2439651  35.7344704  14.1503572
  28.6717739  33.5750771  86.5025024  28.3836422  33.9088097  85.6528931
  28.0626144  32.8634682  86.6994095  67.6007462  63.9820366  73.5003967
  67.1908112  64.8425140  73.4123306  68.0867767  64.0313950  74.3235397
  73.8978424  67.5616531  64.6122131  73.4199524  66.8291168  65.0011215
  73.6236725  68.3240738  65.1218872  33.7167778  51.1108513   3.8187156
  33.4254532  51.0383606   2.9098113  33.7436562  50.2075996   4.1343799
  78.7021942  67.8874741  13.3824091  78.4352646  68.7763824  13.1482582
  79.5258713  68.0017700  13.8564558  74.8781052   9.2634611  55.7164154
  74.0703506   8.9180536  56.0964890  74.8249512   9.0313520  54.7893066
  80.8158722  58.9593964  85.7108994  80.5929413  58.7424355  84.8056564
  81.4594498  59.6640587  85.6367798  23.1592484  67.0656738  40.0279083
  22.3575878  67.1337585  39.5093193  23.3487034  67.9650650  40.2951965
  17.1385498  65.3727036  44.5780563  16.7690334  65.3862076  43.6951599
  16.4488335  64.9903030  45.1205444  47.5194435  17.4475307   3.0931425
  47.4466972  17.8909607   3.9383118  46.9502792  16.6822319   3.1744189
  82.6382370   0.9536439  65.3716202  82.7022476   1.8682503  65.0966110
  82.5671997   0.9947071  66.3252945   9.4942474  14.0757170  59.1657028
   9.2294321  13.8423481  60.0554466   9.6870270  15.0122061  59.2110367
  43.4324341  27.5121708  73.5171509  42.6996002  27.7523003  74.0841904
  43.8445091  26.7701302  73.9596481  43.3524323  71.5263443  29.5986748
  44.1273422  71.1202393  29.9870377  43.0299110  70.8774033  28.9733009
  76.1805801  21.2666016   7.1021996  76.2641830  22.2184258   7.0449963
  75.8444672  21.1082764   7.9843502  85.1078644  48.5251923  48.6174698
  84.6593094  48.2362518  47.8227730  85.5450592  47.7391663  48.9449768
  71.9405136   8.6905422  55.3102760  71.6305008   9.5960102  55.3262291
  71.1441727   8.1661873  55.2258339  36.4337273  11.2797384  84.6682053
  36.0934792  10.9994507  85.5178528  35.8734207  12.0137320  84.4161301
  85.0141754  59.7258911  40.0243301  85.2472687  58.9637604  39.4941826
  84.6355667  59.3561020  40.8219147  77.4333267  58.2383232  63.3911324
  78.0453568  58.4632378  64.0918884  76.5699310  58.4334793  63.7554131
  32.3654633  42.1749153  18.6935825  31.8569260  41.4049301  18.4391308
  33.2776718  41.9064674  18.5838127  25.4229965   5.9934196  44.7913895
  26.1030025   6.1804886  45.4385605  25.8922825   5.5918894  44.0601082
  45.9202652   9.4231510  59.3282394  46.5043221  10.1498251  59.1113205
  45.0407867   9.7956343  59.2649345  55.1779060  68.5879059  48.8864059
  54.5793190  69.2957458  49.1249123  55.4917641  68.8236008  48.0133781
  59.3503609  39.6711121  79.1588593  59.2826385  39.6011124  80.1110916
  59.2791519  40.6091309  78.9819870  19.4401493   2.9438937   4.1465225
  19.0996876   3.8116539   3.9290137  20.3871326   3.0674574   4.2112217
   6.2595291  21.3309002  80.7339249   6.6484451  20.4570980  80.6958923
   6.0443006  21.5370731  79.8243103   9.3391085  33.4913788  77.7015228
   9.8040524  32.7424164  78.0745010   8.6711340  33.7069244  78.3523560
  55.7575951  57.2875023   3.0811329  55.6600761  58.1745796   3.4272764
  55.0023880  57.1709785   2.5046597   4.0873756   0.5889421  31.8008575
   4.9516530   0.9864872  31.6949577   3.4727964   1.2987977  31.6147690
  51.9008675  20.4528561  13.9941778  52.6973648  20.0359306  14.3228054
  51.4322815  20.7285233  14.7820015   5.9601645  40.5355263  15.0456829
   6.8132672  40.3706131  15.4472446   5.9906034  41.4570389  14.7885427
  73.0431824  47.9569054  61.1595116  73.8277206  48.4262733  60.8759117
  72.3965149  48.6447449  61.3173828  49.5564842  30.7761517   6.6823783
  49.9754028  30.2558537   7.3679647  50.2829247  31.2023087   6.2275095
  64.5705948  25.9863529  51.1725922  65.5124359  25.8256149  51.1149559
  64.1936188  25.4553089  50.4710846  22.6386471  52.0848427  10.9466143
  23.0555000  52.9083328  11.2002459  22.5075264  52.1638374  10.0017328
  37.9722252  36.2990837  87.6441269  38.4113693  35.4681778  87.4625092
  38.2711830  36.8849945  86.9487381  39.1952820  28.8289890  67.6919174
  40.1368561  28.7521515  67.8460693  39.1239052  29.1047516  66.7780838
  28.6771641  60.5611992  82.3638687  28.1312637  60.8212891  83.1058731
  28.5067120  61.2258835  81.6965027  26.7721844  51.4554024  52.6229897
  26.5662231  52.1682968  52.0183449  27.5587521  51.0507812  52.2571640
  61.8365364   1.4757762  43.7526436  62.4028320   1.3214684  44.5087738
  61.1073418   1.9892094  44.1003418  48.9726562  60.2884293  48.0369072
  49.4312897  60.7465858  48.7411652  48.1314545  60.0404816  48.4204865
  73.6965790  61.0792656  82.0116119  73.4762955  61.7470093  81.3621292
  74.4721832  60.6456528  81.6557312  63.3688393  43.8574638   9.3773270
  63.4547081  42.9071655   9.3012419  63.1502419  44.0052948  10.2974319
   4.4601188  47.3967667  55.6355896   4.7056170  46.5830727  56.0758858
   5.2833996  47.7378044  55.2861137  28.1268463   5.3033075  43.2657051
  28.7260685   5.8216305  42.7285805  28.4714508   5.3842173  44.1550522
  -0.0843797  34.9924507  39.9657745   0.1279545  34.2360382  40.5125732
   0.2967139  34.7856407  39.1124115  54.9628410  57.3197021  77.8369827
  55.5890198  57.0408516  77.1688690  54.1423721  56.8935928  77.5890045
  83.6681213   3.3093841  19.1194649  83.0991974   3.8781967  18.6008091
  83.9977036   2.6649048  18.4931622  52.0406723  67.6612778  29.2631378
  52.9522972  67.9455719  29.3290577  52.0869370  66.8052063  28.8374214
  50.7608795  23.7430935  24.0611668  50.0457458  23.9893932  23.4745197
  50.6600571  24.3210297  24.8175106  59.5331535  15.0056019  66.8533554
  59.2082138  15.7822895  67.3087692  60.1720200  15.3451796  66.2266464
   3.4941247  58.2197418  72.7725677   4.2852588  58.0557861  73.2858505
   2.8404701  57.6274109  73.1442032  80.9822464   1.2319163  15.0261793
  80.1640091   1.1310476  15.5125322  80.9858780   2.1487134  14.7510395
  60.8972511  24.1855125  24.8588905  61.5910110  23.8352718  25.4176941
  60.0938683  24.0506668  25.3615074  70.7753372  59.2869492  26.9466095
  71.6802750  59.5529022  27.1096840  70.3768005  59.2479057  27.8160191
  14.8664303  15.3123560  75.6514206  14.6317949  14.7193499  76.3652267
  15.7549973  15.5998907  75.8611908  46.3702278  71.1123047   3.8756568
  46.4719276  72.0287247   3.6186397  47.0141792  70.9861145   4.5725341
  22.3373318  21.2144432   6.3300185  21.7966270  20.6171513   5.8131895
  22.7238293  21.8066139   5.6848941  52.6189957  20.8050003  26.3618736
  52.5658646  20.8037338  25.4061508  51.8985176  20.2407684  26.6425591
  32.8053131  62.5296898  14.6747351  33.1531296  62.9356308  15.4687557
  32.3560181  61.7434120  14.9847927  37.1101036  59.9315643  71.6190567
  37.4004707  60.7687492  71.2570648  37.0256004  59.3577690  70.8575745
  43.8741722  45.9852600  56.6326599  43.0800171  45.8886909  57.1582260
  43.9354019  45.1676331  56.1387291  29.9210358   4.6325998  79.1611786
  29.1060352   4.9252167  79.5690765  29.6644077   4.3641310  78.2789688
  27.4976521   8.6950054  30.6889801  27.8050728   9.4558067  30.1961269
  26.5920296   8.9064407  30.9156475  56.0749474  36.1990280  65.3571854
  55.3418427  35.5835724  65.3570404  55.8005981  36.8984718  64.7641068
  57.8120804  44.3098030  65.1128540  58.4948196  43.6393814  65.0876083
  57.8168449  44.6897049  64.2342834  12.1015701  15.2940683   7.7357826
  12.0643549  15.6175709   8.6358900  12.7829990  15.8219204   7.3195395
  58.5450859   8.7718439  10.4012432  59.5001373   8.8312683  10.4252691
  58.3626633   7.8327346  10.4332991  46.3849030  61.2993088   3.9961843
  46.0406303  62.1314163   3.6716766  46.0736771  61.2474556   4.8998885
  75.9606247  46.5453987  81.8237534  75.5166931  46.9021873  81.0544281
  76.0375824  45.6085968  81.6428909  50.4700012  33.7133560  65.9942474
  50.9165115  32.9368172  66.3316727  51.0204926  34.0102768  65.2696609
  11.4228659  52.0521507  18.0007381  10.6606550  51.7359581  17.5156727
  11.4492292  52.9916725  17.8195190  60.0932541  30.1085911  72.2349930
  59.5076904  29.7094135  71.5915604  60.2336884  30.9984379  71.9114456
  39.1905823  61.0983543  28.0761700  39.7822456  60.6010971  28.6408825
  39.3979187  62.0146141  28.2597752  38.1866646  54.1878128  61.4178696
  37.8097572  53.3914909  61.0436516  37.7845993  54.2591743  62.2835999
  11.6404171   2.3364704  19.4568157  11.7414150   1.4090852  19.6712627
  11.3934002   2.7482562  20.2848530  81.6383667  10.4981956  23.1454391
  82.3827209  10.2929955  22.5797062  80.9652634   9.8655815  22.8945160
  31.2781982  45.2980309  20.1114750  30.5671482  45.1891823  20.7429752
  30.8356915  45.4439354  19.2753334  66.7451859  30.8723660  84.6139450
  65.8147507  30.7257614  84.7843323  67.1866837  30.1463909  85.0547028
  62.6572685  40.7299004  86.3712616  62.4705238  39.9103355  86.8291550
  63.5969162  40.8644104  86.4945526  81.8848724  12.5825720  55.3837166
  81.6587143  13.4600735  55.0753746  81.3760757  11.9941692  54.8259201
  25.9604149  64.2905273  69.0921249  26.7891598  64.6969223  68.8386383
  25.4869099  64.1778870  68.2679062  24.9503002  64.8522186  41.8714485
  24.0532761  64.9319687  41.5470772  25.1836262  63.9383392  41.7083054
  74.1836777  57.2002373  72.7110519  74.4831467  57.9782562  73.1814117
  74.8734894  56.5525780  72.8557281  65.9973526  52.2871246  19.3851891
  65.1036911  52.6234016  19.4523563  66.2852859  52.5454330  18.5096302
  39.4106560  16.8219147   8.9614515  39.0376854  17.2296009   8.1798382
  39.8076897  17.5472374   9.4436369  79.8615417  31.5380840  68.3125305
  80.7680206  31.7068119  68.0555267  79.6336594  30.7228680  67.8656235
  63.2410240  29.9816360  84.2410278  62.7050514  30.7712593  84.3149414
  63.8157578  30.1512756  83.4946136  46.3056145   5.6748185  17.5425072
  45.6305847   5.8371353  18.2014618  46.9738045   6.3379521  17.7157345
   3.2313771   6.9212933  39.4860268   3.2675002   6.0029945  39.7537117
   3.5237274   6.9167643  38.5745773  62.5774918  58.3425064  51.7341118
  62.4380302  58.1832962  50.8006058  62.4670486  59.2879486  51.8349571
  54.6077080  31.8539505  67.6861115  53.7327538  31.9430389  67.3082886
  54.4676208  31.9127541  68.6311722  36.7867317  61.2431831  58.4020119
  36.1085434  60.9559555  59.0133972  36.3028107  61.6228142  57.6685753
   2.2167518  24.7712498  26.9507885   2.2923958  24.9698925  27.8840904
   3.1191709  24.6396351  26.6600151  26.4075775  59.4033089  85.6725464
  26.2678585  58.4975700  85.3962326  25.9321899  59.9266167  85.0272675
  49.4612465   7.1201234  76.3210449  48.8813858   7.8768792  76.2355118
  49.9008942   7.0582008  75.4730453  42.4739037  40.1650352   3.6044097
  42.2633553  41.0783119   3.7989159  42.0382614  39.6663589   4.2956185
  13.4353294   3.3869274  41.2515030  12.6390038   3.9168468  41.2873344
  13.1574602   2.5172832  41.5391502  57.2015457  26.1567688  79.9483032
  57.3879852  27.0860806  80.0819092  57.3826141  26.0071507  79.0203705
  70.6435318  15.9995127  27.7077103  70.5519333  15.6333752  26.8280582
  70.3589706  15.2958202  28.2908669  22.5534954  68.5434341   0.3669280
  22.9294662  67.7669449  -0.0477227  23.2898712  68.9524689   0.8215434
  41.6947899  47.9263840  86.5142975  41.1876373  47.1947060  86.1626205
  41.9643250  47.6343498  87.3851013  44.1707115  59.1333694  52.5866547
  44.8503532  59.7764015  52.3845825  44.5908928  58.5232162  53.1927834
  60.4883690  38.2053032  22.9108410  60.1211624  39.0796394  22.7807426
  61.4360847  38.3375549  22.8869343  47.8049622  21.2105217  80.2254105
  48.1117859  21.2925377  79.3224335  48.5894814  21.3420448  80.7578201
  74.2798538  70.2783279  53.5605431  73.7078171  70.7019882  54.2004776
  73.9472351  69.3829803  53.4977150  18.5909595  33.4735413  82.9277267
  17.7139511  33.2377281  82.6252670  18.4736080  34.3138466  83.3708344
   0.4237158  55.2605782  12.9921207   0.3444309  54.3725319  13.3404284
   1.3639463  55.4395981  13.0043640  38.9976883  33.2829781  12.6251383
  38.7663612  34.1217613  13.0240898  39.9365501  33.1913414  12.7875271
  68.4790421  42.1412125  10.5590839  67.8326645  41.6998520  11.1101017
  68.6316605  42.9801254  10.9940100  30.9338341  70.7612610  23.3943615
  31.3174534  70.9334335  24.2542591  31.6487713  70.9178314  22.7774487
  60.5738907  28.5243244  23.8746662  60.1951942  29.3215923  23.5042820
  60.7460365  28.7439098  24.7902985   4.5446558  71.0283661  24.6438465
   4.0714555  70.9287262  25.4699116   4.3496556  70.2270508  24.1579514
  11.9071369  50.6091347  34.3398209  12.3832979  49.8221817  34.6047897
  11.2737389  50.2992592  33.6925049  19.3240395  56.7861748  44.1787071
  19.8450470  56.4877281  44.9241676  18.6749039  56.0949478  44.0481110
  44.4176407  51.2634468  76.7324829  44.8997726  50.7302284  76.1004486
  45.0116081  51.3461456  77.4785385  43.3516464  56.6740837  31.5124702
  43.6023178  56.5095062  32.4214859  44.0863686  57.1667747  31.1468544
  11.3156376  47.3647995  75.0638275  10.4370041  47.7445183  75.0708160
  11.5631533  47.3507767  74.1392899  83.9771805  58.4280243  42.8655128
  83.6322098  58.6785927  43.7225075  83.3492508  57.7867928  42.5327110
  79.7570114  15.9542799  72.7425537  80.2156219  16.3902264  72.0243149
  79.3904953  15.1631670  72.3475418  23.8101044  57.1953621  34.4780350
  23.0280514  56.8534088  34.9112663  24.5040245  56.5805626  34.7162170
  54.4215965  10.9852982  49.5440102  54.4229317  11.8411636  49.9726410
  55.0705719  10.4742231  50.0276031  73.4168396   9.5044746  11.6004295
  74.0910645  10.1200514  11.8880472  73.7491837   8.6457968  11.8620691
  31.6283245  10.3706303  35.7740440  31.9077854  10.2632561  36.6832237
  31.9751968  11.2246733  35.5161247  76.3964233  15.6202393  37.5280647
  75.5684738  16.1004982  37.5374374  76.9113693  16.0169144  38.2307053
  60.8955612  11.2100163  31.2368851  60.9657822  11.4038610  30.3021526
  60.2174263  11.8060694  31.5548191  11.5672331  49.2212257  12.2129965
  12.3734665  49.6416779  12.5120649  11.3319168  49.6947365  11.4150953
  61.9008713  21.2566357  49.9956894  62.5682487  21.9083881  49.7810822
  61.9278641  21.1915646  50.9502945  23.3297691  38.3835793  18.1477585
  23.0716114  39.2601242  18.4328117  22.5094147  37.9655190  17.8860798
   0.2985750  49.6665688  43.2862473   0.3572513  49.4118347  44.2070618
  -0.2258792  50.4672813  43.2921982  24.1368675  34.3588867  21.0203037
  23.9997711  35.2792397  20.7958279  23.7763634  34.2713013  21.9026852
  55.4622765  11.8526783   8.8286934  54.6184196  11.4499159   9.0334415
  56.0799675  11.4316473   9.4265394  19.6628304  41.2162781   5.2693481
  19.3722744  42.0630836   5.6080589  18.8809605  40.8382721   4.8668242
  34.0936470  57.4095192  56.5605621  33.8130264  58.1152496  57.1431656
  33.9902496  57.7704353  55.6800613   4.6539087  35.1545334  80.2090912
   4.5497751  34.6460648  79.4048233   4.2020845  35.9794121  80.0311508
  79.7096481  60.3132744  35.0733070  80.2715836  61.0843582  35.1500015
  79.4109497  60.1447449  35.9669571  11.6013527  68.1186066  52.7235565
  12.1472998  67.3428421  52.8514900  12.1923857  68.8555374  52.8779526
  67.7816010  10.5798941  11.5615740  67.8860092  10.5430803  10.6107969
  68.6327591  10.8754158  11.8847275  58.6899681   6.9560308  21.2437286
  59.0082092   6.0592275  21.3471527  58.5530128   7.2663016  22.1388302
   8.1715622  49.1398087   1.0386652   8.1733723  48.2889595   0.6001655
   7.3617120  49.5581284   0.7464597   3.9842541  53.2783241  85.1632385
   4.4921908  52.8557472  85.8558121   4.0518746  54.2139816  85.3535156
  61.7702408  59.4217644  69.6294327  61.1486931  59.5841026  70.3390503
  62.5154953  59.9881363  69.8295441  75.9318619  46.6727142  72.4160156
  75.7706528  47.4366798  72.9697266  76.8673096  46.7140198  72.2173309
   9.4829168   7.9355865  86.5475769   8.5468302   8.0304823  86.3716049
   9.8820667   8.7054195  86.1422806  38.3924561  46.6365089   0.1874251
  37.7216721  46.8202477  -0.4702362  38.7927399  47.4875603   0.3655204
  19.1622467  52.6209755   4.0341396  19.4864311  51.9272919   4.6085443
  18.3342113  52.2824707   3.6935458  14.4862566  66.4110870  40.6091080
  15.3084412  66.1526871  41.0256081  14.3756580  65.7883530  39.8906364
  18.9420509  67.7425842  22.4269218  18.2115707  67.1825027  22.1643600
  18.9457779  67.6988068  23.3831120   7.0424418  22.9523487  57.7196465
   6.4710541  22.1846218  57.7011528   6.6659522  23.5468082  57.0707207
  47.9903336  24.5011635  81.1520004  47.5380211  24.0157700  81.8419571
  47.7349930  24.0598850  80.3418732   0.5706665  30.3364639   0.7396069
   0.9264780  29.7916660   0.0375921   0.6326649  29.7890854   1.5223992
  69.0147858  12.6982136  54.3053131  68.1157913  12.8663893  54.5877380
  68.9926300  11.8085661  53.9527969  14.0273037  56.5251923  19.4810505
  14.8399954  56.5416489  19.9865131  13.9997101  55.6473503  19.1004353
  59.1612968  66.5585556  31.8330936  58.7499046  67.4092178  31.9859161
  59.7616920  66.7105255  31.1032562  31.2815971   5.1739049  81.3390045
  30.8024178   5.1640859  80.5104370  30.6057472   5.0639567  82.0078659
   9.6304131  59.3853378  26.8174725   9.1481848  59.6314201  27.6068592
  10.5399542  59.6112289  27.0122528  12.0405111  42.8147659  23.8429165
  12.3826981  42.0029716  24.2172565  12.7872248  43.4136314  23.8465958
  33.4307327  16.8602085  69.9485016  33.0244675  16.0031071  69.8198242
  33.4696083  16.9665718  70.8989792   1.3129970  52.1677437  88.5002441
   1.4980450  52.5863686  89.3409271   0.4035747  52.3997345  88.3121948
  83.7075806  34.2539444   5.2328362  84.0667267  34.1219025   6.1102228
  84.2602844  33.7174683   4.6645551  12.5915098  64.9920883  61.8772392
  13.4831543  64.7278824  61.6505318  12.3193388  64.3657684  62.5479698
  16.6219730   6.3550854  20.2181835  16.9455853   6.1576509  19.3392487
  17.3908825   6.6745467  20.6903629  45.2036438  57.7625389  29.7930756
  46.0640678  57.3436737  29.8142757  44.7722092  57.3848457  29.0266266
  77.3496552   4.4887466   3.6797431  77.4397202   4.3243241   4.6184044
  76.9505539   5.3571086   3.6259043  78.5807953  27.6115761  39.8627090
  78.0982361  26.9063015  39.4314880  77.9387741  28.3143520  39.9634209
  34.3514366  65.5651550  27.5484352  33.9880219  66.3820801  27.8901825
  33.6823807  64.9074631  27.7382812  58.9934998  27.5150280  37.6547356
  58.3294792  27.8235130  37.0381737  58.7131462  26.6293392  37.8853645
  61.4111099  67.6051483  88.5205917  60.9580650  68.4183197  88.2975616
  62.3113747  67.7441483  88.2265930  35.3200531  37.8940010  66.8417130
  35.1887894  38.4746628  67.5912704  35.7894707  38.4302025  66.2026749
  84.5449448  63.5422325  40.8627014  85.0819244  64.2636032  40.5348167
  83.6870193  63.6806526  40.4614143  54.8016548  36.9397011  77.0168686
  55.6102943  36.5004158  76.7535019  54.2780418  36.2515831  77.4274216
  84.5628052  65.5380936  46.0470619  84.7205505  64.9790573  46.8078651
  85.2650070  65.3148346  45.4360771  64.9216537  10.4484873   5.8708477
  65.6426926  10.3519917   5.2487388  65.3503494  10.6128311   6.7107525
  31.8175144  70.7787323  51.3670273  31.2988892  70.9769897  52.1467400
  32.5406342  71.4052811  51.3946648  27.6597595  36.6878510  69.7300644
  27.4414558  37.0381584  70.5936966  28.4724617  37.1327248  69.4895859
  78.1640472  47.1362038  39.0522041  77.7974091  46.3102875  39.3679161
  77.4238586  47.5870514  38.6458969  65.9342422  65.3797379   9.0747261
  66.4938660  65.3000107   8.3022623  66.5460815  65.4532852   9.8071766
  60.5720291  59.7562370  20.5901089  60.5745697  60.5552483  21.1171837
  59.6582947  59.4710655  20.5918522  28.9056015  59.9377480  17.6926632
  28.4012852  60.1861916  18.4673729  29.4840355  59.2386513  17.9974747
  66.4574890  20.8854790  34.4962349  67.0148849  21.6242008  34.2516327
  65.5675964  21.1849880  34.3101845  38.2641296  65.2441483  51.9913559
  38.4145699  65.8218002  52.7396355  37.5359650  64.6852875  52.2627983
  82.6102829  63.7705917  13.2955303  82.6081619  63.0818596  12.6307917
  83.3774567  63.5801010  13.8353348   2.5223498  49.0005302  51.1787415
   2.8655415  49.0189667  52.0721092   1.8110334  48.3607101  51.2085724
  74.0953522  16.8772583   6.5595679  74.0566788  17.8162861   6.3780136
  74.6845932  16.5280991   5.8908978  80.6340256  27.7385769  21.3189926
  81.4949112  27.6518307  20.9096336  80.4928589  26.9006901  21.7597294
  11.3866940  60.5738220  62.4579315  10.5001669  60.4426193  62.7942162
  11.2905846  61.2489548  61.7862244  48.3817596  59.2759247  11.4291506
  49.1936340  59.7620506  11.2849960  47.8735657  59.8290062  12.0225086
  60.0314903  15.5457067  29.5194569  60.0213509  14.9740038  28.7518082
  60.8087120  15.2759609  30.0087357   8.4349079  50.9052429  34.0386543
   8.8976984  50.3418999  33.4184151   7.6165285  51.1282654  33.5950928
  66.0806351  59.7227516   6.1815457  66.6530228  60.0327835   5.4797754
  65.5639877  60.4905586   6.4260483  24.5479221  63.8602142  76.0803528
  23.9552574  63.2921638  75.5881119  24.1313572  64.7216034  76.0535965
  21.9523163  14.6264381  54.1979179  21.6896782  13.9652424  54.8382874
  22.6439571  15.1225405  54.6358109  85.2672882  10.1794748  31.0638866
  84.4458923   9.8177681  30.7311516  85.2619553   9.9668798  31.9971638
  82.8644943  38.5990753  26.2726994  82.7108231  39.4940758  26.5753460
  83.0640945  38.6921844  25.3411846  73.8902969  14.0210381  16.5864201
  73.9255981  13.1442108  16.9687290  73.4313126  14.5489101  17.2398033
  32.0895386  70.9452515  62.1328468  32.3322296  71.8612518  61.9976807
  31.2838116  70.9844742  62.6481133  49.3995857   3.0851350  77.2843857
  49.3542023   2.1847332  77.6060181  48.4882431   3.3767955  77.2594833
   7.8191252  33.6520462  13.6634855   8.2591076  34.5009880  13.7076092
   7.1060457  33.7185516  14.2985649  41.6513214   7.2095361  39.5385666
  41.1144066   7.5784960  38.8372688  41.0270767   7.0005918  40.2334709
  22.1033630  21.1924515  74.5729294  22.3029842  20.9595356  75.4796448
  21.4385967  20.5585861  74.3036118  29.6422920  44.1563988  88.6559982
  29.4371758  44.5315437  89.5123978  29.4186916  43.2295494  88.7407455
  13.1655188  70.0402298  55.3464928  13.8893995  70.4844818  55.7879372
  12.4424534  70.6664124  55.3826790  75.1195145  33.9656143  29.6536789
  75.8224030  34.5969276  29.4999981  75.2027893  33.7349854  30.5789394
  32.6314392  49.2384567  17.8854847  32.9722672  48.7806320  17.1170673
  32.5671730  50.1530304  17.6104259  63.4483223   8.4312019  17.2764149
  62.7330475   8.8088179  16.7645321  63.9547691   9.1869259  17.5741138
  18.2106724  57.5916786  72.7791061  17.7421341  57.6192245  71.9448700
  17.9072781  56.7861061  73.1977234  22.6386852  34.0292397  74.9865417
  23.2549362  34.5189133  74.4418564  23.0823841  33.1998100  75.1637802
  53.9310265  55.4142456   4.4849968  53.9989624  55.9525070   5.2735977
  54.4380188  55.8891411   3.8264635  58.0698357   3.0235109  47.8134003
  58.0779800   3.9580586  48.0202484  58.0639954   2.9899728  46.8568039
   7.5749698  66.0403519  26.5260124   7.0925145  65.2576447  26.2598667
   8.3044109  66.0936127  25.9085064  62.8834839  37.6254807  77.7909317
  63.0495872  38.2865753  78.4629440  61.9294815  37.5573311  77.7526245
  23.4505844  35.2043190  14.3692999  22.6357288  35.6818008  14.5250263
  24.0697727  35.8749046  14.0809383  11.2023458  48.3788948  44.4013519
  11.0910788  48.0575600  43.5065918  12.0883780  48.7407265  44.4174500
  57.8725662   9.4669247  16.7961845  57.2675018   9.9077530  17.3926754
  57.4949493   8.5961170  16.6723537  74.3327484  10.2898912  27.1497707
  75.0215073   9.7139921  26.8178253  73.5412750   9.7518721  27.1316051
  59.9842834  65.0735474  15.5426826  60.7381096  65.0913696  16.1323071
  59.8307076  65.9923172  15.3224297  43.1552277   4.2851710  45.8508911
  42.8999062   4.5255880  46.7415314  42.4931793   4.6939201  45.2933502
  66.7061920   9.4507122  62.0478630  67.1399536  10.1452885  62.5434914
  66.3790283   8.8482704  62.7158890  67.4943619  41.5339851  87.5216293
  67.1370010  41.8999519  88.3306961  66.8176346  41.6984634  86.8649521
  63.3875542   8.1196852  11.3474092  63.8579330   7.6987338  10.6278439
  63.7487183   9.0053806  11.3839731  80.4541702   7.4833050  82.4431534
  80.1637802   6.9565115  83.1877289  79.8262939   8.2045574  82.4006653
  49.3205757  11.6519756  26.3109207  48.9428177  12.2879658  26.9184132
  49.4231911  10.8552542  26.8314362   7.3126144  11.5817995  30.3073730
   7.1195908  10.6823320  30.0429268   8.2432241  11.6939945  30.1134415
  83.1197586  57.3643456  23.6813698  82.7974167  57.8834953  24.4181271
  82.3302917  57.1124039  23.2023144  63.6281548   6.9379334  41.7213783
  62.7198334   6.9486723  42.0231476  64.1353760   7.2322016  42.4779243
  65.3452835  69.2382584  69.0348663  65.7676468  68.7950668  68.2990570
  65.7133255  68.8168564  69.8115234  35.9069366   6.7631850  63.0497551
  36.4460831   6.6979785  62.2615280  36.4933701   7.1300311  63.7113838
   6.7951150  50.1840744  41.9081879   7.6529322  50.4346123  42.2511368
   6.1707940  50.5450783  42.5375786  43.3129539  51.2042160  40.1892738
  43.8043861  50.8996162  39.4264221  43.4359016  50.5164909  40.8436089
  26.0899010   9.9396152  20.0245247  27.0173359  10.1742277  20.0569916
  26.0434704   9.0863028  20.4557266  77.3840942  64.4290466  45.6236496
  77.9365387  63.6561852  45.5065041  76.8366089  64.2196426  46.3803825
  43.5616264  49.2401352  47.0046349  43.5882072  48.4834023  47.5901985
  44.1762772  49.0224457  46.3038902  54.1692886  27.3014336   6.7813826
  54.3478622  26.8201046   7.5892606  54.0596924  26.6214333   6.1166868
  14.3549194   9.7881107  19.9133530  13.7126207  10.3234386  19.4474030
  14.0369062   8.8908844  19.8129349  67.3376694  51.4589767  84.6211472
  66.4754333  51.8706970  84.5640411  67.2818985  50.8920288  85.3903580
  11.6444044  57.9716263  70.2522888  11.3627996  58.8019028  70.6364365
  11.4138422  57.3137894  70.9082794  86.2042847  62.5925255   7.5435166
  85.7350693  62.9891548   8.2775145  85.8217239  61.7192230   7.4585209
  29.7390385   1.8120568  61.0428696  29.3779564   1.0478988  61.4922180
  29.0530930   2.0754685  60.4294167   9.7108288  46.1306190  20.2992573
  10.1193256  46.0708885  21.1628513   8.7755604  46.0169449  20.4683208
  35.3909798  62.9143600   6.7489209  35.3699112  61.9583740   6.7922454
  34.5126114  63.1856194   7.0156078  54.5613670  30.8741207  26.3268127
  53.7542267  30.3872795  26.4933605  54.9934273  30.3883686  25.6242447
  77.9132233  18.4496059  52.7147675  78.0047684  17.5377731  52.4383354
  77.2103119  18.4335480  53.3643036  63.5692825  63.4582062  10.3317766
  63.9882355  62.6934166   9.9370537  63.0835190  63.1067657  11.0779362
   1.5933154  20.6995926  75.2463455   0.6458256  20.6722507  75.3795700
   1.8037125  19.8548241  74.8484344  36.3397675  53.9603157  37.4762726
  36.6621704  53.4173317  38.1956177  36.7697983  54.8060112  37.6031876
  34.1534424   7.1633635  88.5185165  34.6675301   7.9691467  88.4669266
  34.6309471   6.5392146  87.9720154  33.4241714  64.2374725  60.5793114
  34.0395966  64.8336029  61.0060616  33.0965996  64.7298737  59.8266678
  23.2273540  61.4521065  75.0962601  22.9092369  60.5956726  74.8106842
  23.0702286  62.0277328  74.3478012  25.3445950  59.0699425  31.1913681
  24.8969269  59.1599846  32.0326271  25.3771572  59.9600792  30.8409004
  38.7053986   0.5494082  43.7145042  38.1110725   0.7039524  42.9802551
  38.3692017  -0.2436525  44.1319504  33.5818787   1.2263991  35.1305237
  33.8175735   0.4032623  35.5584602  33.3437462   0.9730892  34.2386971
  23.1261654   0.2019009  28.5072479  22.1707859   0.2570797  28.4863892
  23.3541546  -0.3010496  27.7253952  14.7330313   6.2753110  49.7777023
  13.9278069   5.7633657  49.8535805  15.1301184   5.9772687  48.9593353
  37.0407562  61.3616562  30.7499542  37.0893669  61.4165611  29.7955666
  37.6660004  62.0169106  31.0597115   3.4845455   7.9915471  34.7779770
   4.1602292   8.4793682  34.3071098   2.8445323   7.7588038  34.1053352
  69.8995132  63.9930077  39.6314621  69.9717712  63.8234100  40.5707436
  69.0512466  63.6236877  39.3859520  76.2587051  25.8992138  80.4379654
  75.7121887  25.2314472  80.0236816  75.6352234  26.4960842  80.8517838
  72.9581833  70.7604446  45.7657890  72.4897995  70.2856140  46.4523621
  73.5464630  70.1095505  45.3830376  68.1601639  29.2956791  10.0878572
  68.0258484  28.4718418   9.6193676  68.3159714  29.0327263  10.9949465
  61.7653542  44.3237038  45.9894409  61.3586922  45.0465355  45.5115585
  61.8701859  44.6551399  46.8812904  61.2963753  25.7393970   4.4183292
  61.0061417  24.8278713   4.3848844  62.1476784  25.7359085   3.9807186
  11.3560638  -0.0808018  74.0849304  12.2767935  -0.3316998  74.1593552
  11.2420197   0.6085325  74.7391815  83.2384720  15.9736910  14.4275408
  83.0861740  16.8370171  14.8118658  82.4390793  15.4826078  14.6173754
  13.8100729  43.8079720   2.7529187  13.0311213  43.5131226   3.2246504
  13.7643719  43.3572273   1.9097267  61.6055679  51.5678329  50.0779610
  61.5177536  51.3991623  51.0160828  60.7096405  51.7192650  49.7769394
  43.9543724  15.8163939  82.2207413  43.2602005  15.5119543  81.6362152
  44.1985893  15.0413446  82.7266006  36.0626678  32.4200134   6.7254629
  36.7978058  33.0204926   6.6020670  35.3928680  32.9476128   7.1604838
  77.3397217  11.0958767  74.0962219  77.8075485  11.1941547  74.9255066
  77.4664154  10.1777258  73.8571014  68.5088043   9.6278200  20.0896072
  67.7505188   9.9601002  19.6091595  68.8735580  10.3987083  20.5242500
  81.2238770  23.7406845  46.6442795  81.1907501  23.5470848  45.7074471
  81.8371201  24.4721222  46.7161560  19.1914215  13.0383444  64.2386322
  19.9970284  13.4859819  64.4971771  19.2434101  12.1845198  64.6681747
  44.7515335   3.6507003  67.4103699  44.7130280   4.4385147  67.9526749
  44.8720627   2.9355502  68.0350800  23.1044254  68.4698792  59.7105789
  23.1709843  67.8935547  60.4719238  23.6902733  68.0789871  59.0623360
  44.1889496   9.0258303  26.8255024  44.4509468   8.9283962  27.7409782
  44.5920982   9.8481827  26.5472202  70.2421570  45.2266350  14.1481247
  70.8312836  44.6439743  14.6273594  70.1404266  45.9875259  14.7198992
  85.9690475  20.9869404  75.8923111  85.3360062  21.1376762  75.1903305
  85.6448975  21.5121136  76.6239853  60.7476807  17.7671261   7.6992846
  60.4281006  17.4229717   8.5333462  61.0505753  16.9948025   7.2217903
  32.0810547  39.6592865   0.4168526  31.9917393  40.5528374   0.0854606
  31.6744595  39.1126900  -0.2555650  75.5763779  47.8302689  44.9838257
  76.0727463  47.0120316  45.0020065  75.6379089  48.1276207  44.0760689
  33.1383362   2.3212242  54.2908859  33.8336067   2.2123034  54.9397011
  32.3276482   2.2112243  54.7877960  25.7969646  34.0044594  11.6416636
  25.9927769  33.6852951  12.5225840  25.8442364  33.2247734  11.0884151
  31.2943707  58.6504898  10.6707335  30.4713554  59.1385574  10.6966057
  31.0524120  57.7593765  10.9229431  37.2850456  44.4951134  84.0365906
  36.7869644  45.3125000  84.0318985  38.2000504  44.7724571  84.0822220
   2.0393851  24.4225063   4.3969483   2.5729291  25.2105904   4.2945561
   2.2260139  24.1207523   5.2859626  72.9265900   9.2351484  57.9025421
  72.5297928   9.0140715  57.0599823  72.3619232   9.9199677  58.2608795
  83.4181976  39.0270805  14.1815701  82.5325546  38.7176208  13.9915638
  83.3110962  39.6156273  14.9288149  78.9433823  19.6552582  80.5432663
  78.8584518  18.7463760  80.2552490  79.8050385  19.6955013  80.9581909
  30.9599361  21.9910564  79.2130051  30.9170647  21.4408417  79.9950867
  31.0656834  22.8802452  79.5512238  84.3360291  35.3901520  46.3632812
  84.4098511  34.4369316  46.4096870  83.9841766  35.5608826  45.4896202
  64.5887070  26.1701050  12.5672569  65.3169937  25.6348858  12.8824902
  63.8064461  25.7294617  12.8991098  29.6768360  15.8796501  87.5591660
  29.4396267  15.8819818  88.4865036  29.0710182  16.5011005  87.1554108
  85.9922485  42.6124229  36.1250267  85.5120239  43.3496017  35.7479515
  85.4192963  42.2821655  36.8170471  75.4135971  39.4684753  29.7836456
  75.3335876  39.5307579  30.7354603  75.3380814  40.3721771  29.4772968
  11.2046795   6.9275613  46.8132095  10.2727203   6.8785276  46.6004219
  11.2867918   7.7163396  47.3492317   3.0472968  27.6188374  51.4974480
   2.2109447  27.6717205  51.0349007   3.6978395  27.8835030  50.8470802
  72.0294724  13.0522194  69.1685410  71.8592911  13.8284645  69.7021255
  72.9472046  12.8405876  69.3394623  61.7746468  51.2091637  86.4752197
  61.8895683  51.8083839  87.2127533  62.6657944  51.0018196  86.1939774
  31.1576233  27.1918716  76.2224808  31.0393677  27.7352867  75.4434128
  30.2881279  27.1517086  76.6207275  82.5556107  49.8215446  13.4095993
  82.9673615  49.2692146  12.7450504  83.2670746  50.3706589  13.7390213
  17.8415051  60.9654617  46.2217293  18.1164036  60.3604355  45.5328064
  16.9992504  61.3055420  45.9197617  37.7661362  20.1509361  76.2478790
  37.4613075  19.5250072  75.5909729  37.1186066  20.8555298  76.2259903
  58.9486198  15.4888058  26.4137115  58.1733170  15.5594177  25.8568039
  59.1497879  16.3916931  26.6597977  21.8294754   9.3695374  68.7417297
  20.9174347   9.6549273  68.7962036  21.9180012   8.7166052  69.4360504
  73.5172424  42.1982803  83.3574600  72.7574234  42.4063721  82.8137665
  74.1733093  41.8765640  82.7391510  66.7102051  18.0889149  82.1906204
  67.0644455  17.3864231  81.6454086  66.2386932  17.6352749  82.8892670
  47.6317978  23.9102230  20.0677776  46.9995079  24.2350025  20.7088375
  47.1737671  23.9677353  19.2292480  45.5440941  38.8138237  27.8291740
  45.8332596  38.8943062  28.7380943  44.8328133  39.4490814  27.7469788
  51.2069397  25.8492260  18.8593826  51.7343407  25.2829132  19.4227390
  50.4381485  26.0637112  19.3877640  62.8554153  36.2224770  36.1141129
  62.5195847  36.4360924  36.9846382  62.7979431  35.2683868  36.0627060
  63.7257118  68.1276245  87.0624466  63.1849136  67.6604080  86.4256744
  63.5942612  69.0528412  86.8552628   5.3429399  59.2824173  14.5007334
   5.3098183  60.2383156  14.4634209   4.4742689  59.0245171  14.8091669
  11.8632116  27.1043282   2.9034953  12.1373577  27.8254662   2.3368971
  12.5905857  26.4830456   2.8693209  53.5832062  15.9834623   2.9713697
  52.9205704  15.2969799   2.8946476  53.4828835  16.3145180   3.8638768
  28.5604191  50.8336754  50.4960289  27.6825180  50.8906898  50.1188393
  28.9759064  50.1098099  50.0273895  60.9617729   8.6914425  20.5228844
  60.1577759   8.1801691  20.6146393  61.6643753   8.0428658  20.5668049
   0.6154927   1.3537954  68.8504868   0.3642452   0.5203792  68.4523315
   0.5302730   1.2047050  69.7921524   1.0757678  70.8878784  85.2172852
   1.3182852  71.6499786  85.7432404   1.0028310  71.2261810  84.3248367
  60.8008461  70.4378510  88.8088684  60.2198067  70.1986084  89.5309448
  60.3606224  71.1718750  88.3803329  56.3293762  18.7118778  47.9551163
  56.4915085  18.1682854  48.7261238  56.1375580  19.5798855  48.3100777
  82.3914795   1.5292380  51.1568336  81.9286041   0.8180800  50.7138481
  83.1682663   1.6812953  50.6185913  69.5297470  21.4703064  25.8895149
  69.6056519  21.0734119  26.7572403  68.7015533  21.9494534  25.9169159
  26.6112194  34.1415672  68.9456711  25.9151268  33.8495331  69.5342331
  26.8258324  35.0240936  69.2478638  62.0982590  48.9676514  70.3362274
  61.7029266  49.7164192  69.8898163  61.4487839  48.2693634  70.2537155
  21.2450771  51.5316429  27.3936100  20.9934101  50.6173210  27.5236607
  20.7128067  51.8236313  26.6535664  11.7986574  12.9966516  54.9939690
  11.0596752  13.0503969  55.5999794  11.8790417  13.8804626  54.6352959
  46.9217339  33.2172012   2.4388647  47.3178482  34.0244560   2.1107442
  47.6086464  32.8109703   2.9674060  29.6793785   2.9109402  65.5584869
  28.8726501   2.4511793  65.7909470  30.3799305   2.3202801  65.8352127
  75.8328247  14.4387712  21.0344334  76.1040955  14.2387724  21.9303360
  75.0862808  13.8611126  20.8756275  38.9206238  46.8460464  59.1216660
  38.0693054  46.5014076  58.8520126  39.3924789  46.0835800  59.4566803
  66.9897003  40.3979759  11.9530869  67.7385941  40.0631523  12.4463205
  66.4657593  40.8672333  12.6023331  72.3182373  29.3638382  57.0466805
  73.2437668  29.4580746  56.8214226  72.0580063  28.5335026  56.6478615
  45.8453064   3.2865453  27.4220829  45.7952957   3.7194784  28.2743149
  46.5702591   3.7224810  26.9741554  20.0064545  28.7798672  73.9135132
  19.9914474  29.7005672  73.6521301  20.9339161  28.5433102  73.9041138
  72.3083954  66.2977600  66.4895630  72.0510178  66.7097092  67.3143616
  72.6401215  65.4369888  66.7450256  62.9815369   6.8985128  20.5017853
  63.6966324   7.4543529  20.8114796  63.2483292   6.6332126  19.6216335
  85.3828812  16.1286526  26.7636013  85.3968658  16.7531071  26.0382786
  85.7906952  15.3391342  26.4078255  28.7821369  10.1406755  20.3378506
  29.6313210  10.4042549  19.9833889  28.9971943   9.5659962  21.0725117
   9.5135078  -0.0918478  83.4550018   9.0072098   0.7112955  83.5768814
  10.2259922   0.1609411  82.8678970  60.2334251  59.8654137  80.7341690
  60.7880287  60.3397598  80.1147842  60.8499260  59.4295731  81.3225555
  14.5783062   3.4714456  53.4383202  15.5061512   3.4925539  53.2040329
  14.4372492   2.5879772  53.7786407  29.7919140  11.1553593  74.9152832
  28.9912109  10.6442814  75.0332108  29.8153820  11.3510380  73.9785843
  56.1497154  39.6500587   0.4338341  56.6148758  39.4885521   1.2546715
  55.5482712  38.9101715   0.3497887  25.1512852  17.6262264  62.9865265
  24.4564610  16.9983444  63.1845551  25.5211239  17.8513374  63.8402100
  30.5247574  35.9222832  12.4221525  30.6219158  36.8326607  12.7014484
  29.9527111  35.9665604  11.6559715   4.8535986  63.5297546  59.2652397
   5.6316886  63.1058044  58.9031982   4.6712413  64.2506027  58.6624451
  16.8209076  52.1853905  56.3280182  16.9557323  52.7359352  57.0993500
  16.0128498  51.7069855  56.5135002  82.1721115  38.4777527  54.4929085
  81.3963242  38.5773849  55.0446892  81.8620148  38.6668549  53.6072922
  61.7552261  37.4904556  84.1366653  61.4987602  36.6352158  83.7916718
  61.5682716  37.4365234  85.0738754  40.7662582  62.6487885  72.5683670
  41.7200737  62.5933380  72.5101089  40.4638481  61.7559357  72.4022446
  28.5773849  12.5802612  13.3603172  28.3370781  11.6642256  13.4994669
  27.9885769  12.8797770  12.6676216  70.2247162  42.0546036  50.9481659
  69.9076614  41.9354782  50.0528908  71.1205292  41.7177353  50.9318237
   2.0180576  61.6739349  45.8605232   2.4424560  62.3883095  45.3853493
   1.1330290  61.6374741  45.4977188  19.7776890  42.3959846  77.0840454
  19.7838154  43.3409004  77.2367706  20.1289730  42.2940521  76.1994858
  46.8793144   4.6064811  65.9325409  46.1197891   4.0359597  66.0502853
  47.4799461   4.3533835  66.6335526   8.9912720  52.9098015  38.0981445
   8.6675320  52.0591316  38.3944321   8.6660252  53.5302734  38.7504196
  83.6542358  10.9380379  50.1260300  83.4743195  11.2062979  49.2249756
  84.2768860  10.2160044  50.0411797  41.6869164  48.0203476  37.3861847
  40.8593216  48.3141785  37.7669487  42.3233414  48.1141129  38.0949898
  75.0948639  65.7699280   5.3139858  74.3395920  66.2248764   4.9413977
  75.2776718  65.0627975   4.6952934   0.7403902   9.9822693  11.5409870
   0.0562366  10.5667133  11.8674688   1.5418566  10.5037785  11.5847015
  44.3847275  56.7715187  50.2574654  44.2811584  55.8314667  50.1098022
  44.4584579  56.8579826  51.2078972  58.0586052  56.0490875   8.8251457
  58.2571411  56.9536934   9.0670176  58.7763786  55.5381012   9.1992140
  63.2479820  24.8755741  49.1087379  62.3225021  25.1138783  49.0546265
  63.6498718  25.3024960  48.3521347  10.8282967   6.5673695  36.0035477
  11.4157467   7.0833035  36.5557671  11.0106630   5.6587925  36.2432594
  53.4024963  47.8012733  56.7234726  53.4430084  48.5384178  57.3327408
  54.1945305  47.2957573  56.9061432  74.9753647  47.7514534  31.5424366
  75.1674194  47.3303604  30.7045670  74.5437851  47.0710030  32.0591125
  61.8559570  21.0999050  59.0611877  62.2153931  20.8270130  58.2170486
  60.9452133  20.8060913  59.0399628  59.5674858  14.4316368  80.2519836
  60.1530037  14.7553320  80.9365387  60.1207581  13.8694887  79.7096634
  63.1484299  26.8465233  81.5537567  63.5733948  26.9756374  82.4016800
  62.2442207  27.1276684  81.6937408  23.2904243  71.0361786  44.7942657
  22.9851093  70.9741135  45.6993408  22.4909058  71.0032196  44.2689934
  57.4924011  64.0690002  20.8477650  57.8118134  63.4790230  20.1650238
  57.8461456  64.9257202  20.6087418  67.3815689  49.8646812   3.4205627
  67.5999680  50.7746620   3.2193949  68.1240768  49.3608589   3.0872977
  29.4138451  67.7587357  17.0742226  29.4824886  67.6507874  16.1256084
  29.2910194  68.6996613  17.1999378  73.2631378  53.4726753  81.8693619
  74.0748825  53.0154152  81.6497650  72.6318665  53.1660004  81.2184525
  72.2317657  41.7039948  30.1762104  72.7465744  41.4391441  30.9384823
  72.3602600  42.6507187  30.1176071  65.7828445  51.4537468  75.5065994
  65.5267868  52.2119484  74.9814377  64.9732971  50.9553642  75.6183243
   7.1714129  67.3917389  82.0575409   7.5445027  67.6738281  81.2223969
   7.5668964  67.9746704  82.7056351   4.9894791   9.4847565  51.3838654
   5.3100939   9.2141485  52.2442207   5.3047829   8.8064938  50.7865601
  54.7360687  44.8870125  87.7639160  55.5412407  44.8561859  87.2472153
  54.7079353  44.0427742  88.2141418  80.1536484  28.0254784  73.6481094
  79.6917191  28.5493431  74.3026428  79.8172989  28.3398190  72.8088837
  66.9768295  69.6866455  47.7221222  67.5379562  70.3425751  48.1357918
  66.5410843  69.2487564  48.4532967  56.8914146  66.4687500  23.6105537
  56.8913422  67.0355453  22.8392086  56.3066368  66.9062500  24.2293129
  15.3929710  56.2003860  71.3710022  16.3307114  56.1042290  71.2047806
  15.1477222  55.3976173  71.8310547  51.1331749  46.2318916  35.5161171
  50.4440155  45.7283516  35.0828323  50.9704704  46.1055222  36.4508858
  53.5607491   7.2543635  21.5768738  52.6549034   7.1634851  21.2812099
  53.4991493   7.7652898  22.3839626  82.0090637  29.7366371  12.3710690
  81.2445984  29.3315983  11.9614782  81.8716354  29.6123810  13.3101683
  63.9752922  21.9659157   8.6578808  64.3337097  22.2402000   7.8137603
  63.6526375  22.7747364   9.0552921   2.4444571  11.3189163  66.9838867
   2.1789553  11.1473246  66.0803986   1.7467382  10.9356928  67.5154495
  52.3988495  33.9855461  74.5843735  51.5466843  33.8933258  74.1582947
  52.1984215  34.3596420  75.4423370  25.4927483  61.9476433  64.9846497
  25.9485569  61.1654205  64.6738586  24.6312675  61.9035912  64.5697556
  58.6612892  53.3700104   0.3016655  57.8121147  53.8060036   0.3727201
  58.6352577  52.6846542   0.9693775  53.5991783  56.7192764  18.6303482
  53.6694145  57.3257294  19.3675804  52.8738480  57.0608978  18.1074524
  82.8800964  14.1664600  83.3137360  83.1587296  13.2966785  83.6002274
  82.2655106  13.9979143  82.5995178  63.8671227   8.9941931  71.1124344
  63.2539253   9.7211323  71.0038910  64.3612595   9.2135859  71.9023285
  24.0046425   4.6273956  81.6088638  24.9324913   4.8512611  81.6810684
  23.5667763   5.2215047  82.2183990   2.2068665  27.4909363  32.5314178
   2.9125617  28.1357136  32.4815292   2.6524220  26.6608028  32.7005005
  40.3653488  12.0970078   9.7087116  41.1459770  12.6483383   9.7624254
  40.6668777  11.2283354   9.9746485  85.9233551  33.6389618  31.0040188
  86.3450317  32.8390083  31.3178501  85.7643280  34.1524429  31.7960281
  57.4373817  58.9332886  11.8913279  57.2726021  59.8580284  12.0755444
  56.7362289  58.6800346  11.2909269  84.6521988  13.3438864  16.4203091
  85.1990356  12.6248789  16.7369041  84.2681808  13.0131350  15.6082973
  75.4145966  38.3236809  49.1509476  76.2100220  38.8449249  49.0421562
  75.1577301  38.0896721  48.2590408  25.6432858  43.0080299  59.3464813
  25.0190353  43.6303787  58.9733543  26.4181976  43.0830574  58.7896004
   3.7615206  46.3497467  82.0383606   3.4494662  45.8629379  82.8011627
   3.0387332  46.3033714  81.4125290  48.7425346  19.2133961  77.0580673
  49.4435158  18.5779495  77.2032089  49.0893364  19.8040161  76.3893890
  13.1007090  21.2163143  74.9553299  12.2178984  21.0906124  74.6073685
  13.0041952  21.1011581  75.9006653  83.9343185  37.9141960  21.2181244
  83.2550659  38.1159859  21.8616467  84.7423630  37.8682289  21.7291908
  11.5745554   2.2096915  85.9085846  11.9380646   1.3526903  85.6857834
  11.3560743   2.1428728  86.8381195  30.5688114   3.8515422  33.7333336
  30.5415115   4.8083067  33.7239609  29.7357483   3.5843453  33.3449516
  45.7038841  41.3489494  79.6659317  45.9705734  40.4795723  79.3671112
  46.0481033  41.9464417  79.0020447  72.1245193  37.2930756  71.7240982
  71.8761520  36.6304207  72.3686371  73.0140915  37.0532036  71.4645767
  86.2830963  17.3305836  42.3161011  86.9119110  16.6104889  42.2682037
  85.4696884  16.9192276  42.6082916   3.8052104  66.0862274  25.4162750
   3.5534244  66.1030045  26.3396149   3.7776299  65.1597519  25.1772938
  79.7957382  22.0432358  37.1625443  80.6172180  22.4947414  36.9687691
  79.1259842  22.5636120  36.7188492  42.4519424   6.1623955  62.4227562
  42.7391777   6.7460771  63.1249275  42.0752373   5.4086747  62.8768806
  14.8539419  49.5576668  24.3748798  14.8540459  50.4807167  24.6282787
  15.2894402  49.5432129  23.5226097  75.3255157  58.5542908  33.8801498
  74.5060577  59.0113297  33.6908417  76.0094910  59.1768646  33.6335449
  45.9678993  44.2280121  17.8054905  46.1727524  44.4168243  18.7212524
  45.7940331  45.0854874  17.4172382  21.9136658  58.3910446  84.4033661
  22.5654449  58.6355171  83.7463684  22.0262184  57.4467812  84.5126114
  62.2137489  50.0801544  62.2653809  62.7396622  50.8785210  62.3128967
  61.3082275  50.3901978  62.2535439   4.7075033  36.6318398  71.8389511
   4.1916389  37.4381256  71.8350449   5.5554714  36.8917732  72.1989746
   2.0060360   2.6585975  65.4192276   1.2683339   2.8274169  64.8331223
   2.0814562   1.7046144  65.4406815  43.4562950  19.6345749   8.6312675
  43.3159332  19.2594032   9.5006218  42.6355896  19.4737492   8.1656399
  11.2027578  34.1624336   4.1288013  10.7130127  34.6436653   4.7957330
  12.1021137  34.4777870   4.2179189  11.2687035  38.9162140  10.8464489
  10.5340958  39.4751053  10.5930176  11.7357597  39.4216080  11.5117817
   0.4356291  64.4054642  41.5507774   0.0130779  63.5475235  41.5104866
   1.3634861  64.2095795  41.6809502  74.8000717  42.2533417   5.0056171
  74.4603729  42.0767441   5.8829136  75.0139160  43.1863022   5.0148969
   2.9294534  26.7156792  39.8936043   2.7868950  27.6398773  39.6892357
   2.0874088  26.4128838  40.2334709  37.5394173   2.0880389  12.0408888
  37.0768013   2.1549153  11.2055759  37.9622612   2.9398990  12.1493702
  17.2554016  64.1800308  79.2529831  18.0926323  64.6225739  79.3923721
  16.8989105  64.0591965  80.1330643  18.4928169  24.5881042  11.3979979
  18.9820499  25.2646828  10.9298897  18.7933674  24.6587887  12.3040352
  53.6562653  14.7609663  11.0831280  53.7456055  15.6222057  11.4911938
  54.3732452  14.7202501  10.4502659  15.9001093  59.3377228  77.6190338
  16.5801105  58.7087097  77.3778534  16.3600788  60.1746712  77.6836624
   7.5945034  26.3204689  81.0421906   7.7097130  26.2611656  81.9905777
   6.7598147  26.7754498  80.9302979  72.7853012  27.1712265  10.6462402
  72.1485214  27.8854790  10.6219597  73.3166733  27.3503532  11.4219933
   4.8283005  64.8707504  31.2983456   5.4351063  65.6092224  31.2466030
   5.1432433  64.3534470  32.0395851  46.9881477  32.0680695  70.3974380
  47.5007744  31.4034653  70.8575974  46.1608620  31.6326351  70.1919327
  27.2320976  64.0882339   4.9967380  27.6756058  64.7980728   5.4611359
  27.0047874  63.4592628   5.6815410  46.0193596   3.6211729   8.6465750
  46.7280121   4.0818682   8.1973467  45.8708992   4.1294498   9.4439745
  43.5566864  50.7383957  12.9161777  43.5143929  49.8063240  12.7024355
  44.3759689  51.0376091  12.5218678  13.1018276  19.1666565   3.1167290
  12.4476385  19.4587574   2.4819503  12.7783241  18.3187637   3.4211230
  23.8450298  61.7588043   6.1362157  24.0958538  60.9124069   5.7661705
  22.8968945  61.8028336   6.0123916  14.1549110  61.4239693   1.6262813
  13.9075527  62.2334023   2.0733421  13.5338440  61.3512077   0.9015654
  24.1935940  28.7593689  69.1044006  25.0766354  29.1084328  69.2253418
  24.1778431  27.9600525  69.6307755  39.0418320  66.0485916  37.5536919
  38.6800995  65.2191238  37.8657265  38.3829079  66.3835602  36.9455452
  13.7886143  35.1692963  17.0422401  14.0017385  34.7570114  16.2050819
  13.4997892  34.4460373  17.5987549  82.4394073   9.8010960  40.3756981
  82.6139755  10.7112274  40.6153183  81.4900436   9.7617712  40.2599297
   5.7137661  57.2922134   3.2289646   5.7289028  58.0066376   2.5920985
   6.6061926  56.9461517   3.2219536   1.1130222  41.9919319  13.1645279
   0.8005708  41.6096039  13.9845457   1.9815813  41.6101036  13.0378675
  42.7083702   1.2790203  46.8661957  42.4021835   2.1686044  46.6897850
  43.5175934   1.1996744  46.3611259  11.7314472  49.7749443  85.9637527
  11.4150467  50.1799507  85.1562271  11.3800583  48.8849220  85.9389496
  19.4876156  50.5804443   5.9548225  20.0928211  50.8110085   6.6596622
  19.0505428  49.7871056   6.2643566  53.0379181  71.4473343  55.6414909
  52.5651360  72.2670746  55.4974861  52.3830414  70.7644653  55.4963799
  38.0950966  37.9889221  60.9205093  38.3022766  38.8197861  60.4927521
  38.9301720  37.6900864  61.2804756  87.1212921  60.3892174  87.2345963
  86.7713623  60.1349106  86.3807220  86.3538055  60.4314308  87.8050461
  55.0309105  50.5637016  51.1598320  54.4705849  50.0047226  51.6981697
  54.7809105  50.3571205  50.2592468  61.5286560  48.4812469  13.2295895
  60.6666527  48.8707008  13.0829411  61.8949699  48.3728752  12.3519211
  85.7922058   3.3825414  81.2921143  86.7375717   3.4616258  81.1645660
  85.4729538   2.9897075  80.4797134  37.1719360  41.1392708  62.8213654
  37.7211838  41.3250923  62.0597649  36.2988548  40.9933319  62.4571381
  66.0863571  68.7326126  81.9694138  67.0208817  68.8968353  82.0955963
  65.8878250  68.0093613  82.5641556   7.2493286  57.4616508  23.8472023
   6.4570031  56.9411392  23.9795589   7.0064769  58.1016350  23.1781178
  72.6788330  15.3812447  10.5983038  72.0016708  15.4116821  11.2741442
  73.0852509  14.5212088  10.7050314  57.7443161  33.2861786  66.3309479
  58.1950722  33.4774933  65.5084839  57.1573524  34.0309753  66.4612579
  54.7045517  62.6589928  49.8720245  54.5135612  61.8130341  50.2771301
  54.1226997  62.6978760  49.1129684   7.7806835  55.2661285  55.1383972
   7.6134539  55.1325340  54.2054329   7.8936620  54.3831635  55.4903145
  33.5984192  26.2202835  68.7845917  33.5587273  26.1617355  67.8300095
  34.4851952  25.9354687  69.0053635  27.1895065  17.2263508  67.6307144
  27.0078812  17.4109344  66.7092133  27.6818810  17.9886608  67.9351578
  75.7202530   1.6011432  44.2014618  76.1182404   2.0057373  44.9722633
  75.7992706   0.6600139  44.3572273  36.7201157  50.6824684  67.4540710
  37.5014267  50.3564110  67.9006958  36.6344719  50.1230011  66.6821289
  19.1049175  57.2522850   8.7752247  18.6505966  56.6063690   9.3161669
  19.0363560  56.9092598   7.8842335  15.3586931  46.5599747  79.5849609
  16.1355019  47.1102829  79.4851532  15.0421219  46.4281502  78.6912994
  63.5283890  62.1570625  12.7481718  63.1336975  62.1948738  13.6193895
  64.0875244  61.3805122  12.7720318  34.7243614  -0.2652684  31.9027653
  35.2705421   0.3262381  32.4204903  34.6027222   0.1891206  31.0691185
  49.5411377   2.7316597  29.0894089  50.2610626   2.1339114  29.2909908
  49.9544868   3.4531207  28.6152058  60.4696808   6.6971989  41.2983093
  60.3712006   7.6144662  41.5535660  59.5812531   6.4108696  41.0863190
  40.7790680   7.0701718  17.5592442  39.8867264   6.7923656  17.3523960
  41.3324585   6.3601837  17.2338123  64.0655365  13.3340282  16.6186142
  63.2684517  13.0357523  16.1805267  64.1762848  14.2382574  16.3247814
  14.9073811  14.0695038  16.2301216  15.3893728  14.8457603  15.9449148
  13.9967747  14.3594866  16.2843189  36.4304123  65.5733032  25.7410870
  36.6188812  64.6383591  25.6599274  35.8109932  65.6305008  26.4686031
  61.1673813  34.3765106  73.2954941  60.6496086  35.1774940  73.2144165
  60.6813049  33.8394127  73.9211807   7.2888961  47.5035553  54.9875183
   7.5680351  46.7960777  55.5687103   7.6563268  47.2718697  54.1345520
  17.8084927   4.7394137  39.7808647  17.0556335   4.2250509  39.4895477
  18.0170994   5.3021355  39.0351715  21.3713322  48.0218887  78.3848114
  21.8302746  47.2370110  78.6840973  21.8607635  48.7477570  78.7718506
  62.8201408   8.9490824  26.3228722  63.3451385   9.5582132  26.8420734
  62.0877342   8.7172413  26.8938904  79.2486115  53.9714127  41.4973602
  79.7017822  54.7234116  41.1160965  79.7174377  53.7978630  42.3136368
  14.9805031  45.2614594  64.6138229  15.7786570  44.8820992  64.2460327
  14.6060715  44.5606003  65.1475143  70.5450897  15.4163971  16.1296463
  69.7627869  15.9668999  16.1639957  70.4029846  14.8450928  15.3748951
  64.4715347  60.4441109  70.2655411  64.3819122  60.3174400  69.3210068
  65.3168869  60.0501137  70.4808960   6.1220379   6.5566654  74.2127686
   6.5521140   7.1348419  73.5827026   5.3138590   6.2863126  73.7768936
  14.8963995   7.4815707  22.1205444  15.2382641   6.9633160  21.3920040
  15.0120535   6.9213524  22.8880157  57.5088425  58.7399635  20.6307545
  56.6554680  59.1620979  20.5318203  57.3656769  58.0622787  21.2914181
  68.1661758  52.7451859  41.6027832  68.2021790  52.9906960  40.6783066
  67.8970108  53.5459023  42.0529327  13.1495209  52.7149544   6.0016880
  13.7964029  52.3137703   5.4213228  12.4028034  52.9042892   5.4335351
  21.0061035  66.4608231  87.3132324  20.7735062  65.5323410  87.3061142
  20.4385319  66.8448105  87.9815521  29.5324631  62.6704712  55.9680481
  30.1599941  62.1202087  56.4367142  28.6757641  62.3342133  56.2311630
  55.9538307   3.7869017  53.7157059  55.2873154   3.8130586  53.0291901
  55.4876595   3.4722722  54.4902534  79.5733261  47.3438797  72.8790283
  80.1438751  46.5961189  73.0566788  79.0355682  47.4272461  73.6664963
  17.5181675  39.4217911  61.2851181  18.1642151  39.1161690  60.6483688
  16.7038097  38.9907265  61.0258179   4.6923528   1.1494368   3.3202786
   4.6394124   0.7721364   2.4421706   5.0828543   0.4580970   3.8548713
  53.9398727  11.1560640  68.1483459  54.7857895  11.6039448  68.1407166
  54.1261864  10.2862692  67.7948227  81.2975769   8.0754166  52.6266136
  81.7997894   7.5643892  53.2613335  80.5416946   7.5254464  52.4207001
   9.7368526  42.4301414  65.8993149  10.4498549  41.8565331  66.1800919
  10.0890770  43.3149223  65.9959106  74.6147079  33.1794395  32.8104172
  73.7370605  33.1903229  33.1923065  74.6949997  32.3094406  32.4194069
  41.7650032   9.6584635   9.4754601  42.0255547  10.2783527   8.7942238
  42.4979553   9.0456839   9.5347300  20.9660511  24.1194210  84.3537674
  20.0206032  23.9843826  84.4179764  21.2625141  24.1735458  85.2622833
  45.0767975  63.8667984  80.5163345  44.1588326  64.0286560  80.7340012
  45.0833855  62.9834442  80.1477203  51.8451653  26.4481869  33.8207169
  52.1727791  25.5595074  33.6823349  51.8249817  26.8350258  32.9454002
  24.9908314   0.5822625  32.9444122  25.5758514   1.2386404  33.3227654
  24.9651470   0.7937845  32.0112305  83.0351791  43.3520317  56.0837746
  83.6373520  42.8997688  55.4929504  82.2092743  43.3894806  55.6013756
  39.0898399  40.2226524  59.9007034  39.6947403  40.7588921  60.4133224
  39.6324844  39.8443871  59.2088318  42.2780800  62.0850525  15.4891844
  41.4637260  61.5842781  15.5369482  42.1631851  62.6573524  14.7305641
  43.2360535  14.3646355  67.3693314  42.2797852  14.3882704  67.3343735
  43.5039940  15.2696505  67.2099915  41.7027130  38.9008636  49.7699890
  41.3919182  38.7591705  50.6641731  41.2702675  39.7080154  49.4911919
  85.0100937  70.3858948  40.4958115  85.5643463  69.6078796  40.5568237
  84.1446381  70.0461731  40.2682037  11.4522371  40.7552567  33.1100998
  11.0367155  41.0887985  32.3149109  12.3908348  40.8483162  32.9469833
  83.3473816  65.1587143  22.3747101  82.5353088  64.6570816  22.4463253
  83.0698624  66.0207596  22.0647106  33.7485580  49.2058296  42.2836914
  33.9037666  49.9825745  41.7462769  33.7525597  48.4789696  41.6608849
  54.4279366  52.8045998   3.7690263  54.1140556  52.3732262   4.5637755
  54.4397278  53.7357254   3.9906120  48.5475235  61.6427231  43.4723015
  48.8495216  62.3777390  44.0059509  48.2801628  60.9790344  44.1081200
  77.2322540  11.4927444  59.2140541  76.4504395  11.3919897  58.6710587
  76.9308395  11.9822035  59.9794350  78.1548615  38.9265709  36.5225945
  77.7568054  38.3369484  37.1630096  78.9588928  38.4816017  36.2546844
  68.5060043   2.5773785  58.4190979  69.3988113   2.6670423  58.7524071
  68.2124939   3.4770703  58.2754440  60.6617508  50.7444115  84.1464005
  61.0308609  51.0380898  84.9793167  61.0023232  49.8570518  84.0330963
  12.7048235  51.2547073  56.1856003  13.3280640  51.5699615  56.8401375
  12.4499531  52.0392990  55.7001228  83.6194687  44.5281181  33.2840691
  82.9809875  44.4764709  33.9953384  83.8333588  43.6160583  33.0875168
  85.1845016  63.2997208  74.4455566  85.6887817  62.5809212  74.8266907
  85.5371628  63.3970757  73.5610352  57.9707489  37.2362595  14.8516932
  57.8545341  36.2946053  14.7251520  58.0284119  37.3450470  15.8009415
  84.1452789  22.7145615  21.6369133  84.8925781  23.2763596  21.4315948
  83.6051636  22.7362289  20.8469524   1.5224984  69.1238785  38.2879639
   1.0602007  69.8983002  38.6085587   2.1872933  68.9489441  38.9540558
  63.9217529  21.9814072  34.9115181  64.4948349  22.1021633  35.6686325
  64.1165924  22.7260189  34.3424644  50.6648827  69.6632462  36.7596321
  51.3747101  69.0216522  36.7867661  49.8885612  69.1520233  36.5311317
  84.4883194  40.8111763  37.7892303  85.2100906  40.4697990  38.3171844
  84.2398148  40.0808868  37.2225227  67.6453857   6.9582891  39.0577240
  67.0135345   7.6759362  39.1021996  68.0557098   7.0533628  38.1981697
  -0.0126737  46.2590637  72.5121231   0.3709610  45.3823776  72.5340042
   0.4714077  46.7489967  73.1768494  51.9613380  62.1012535  69.5410614
  51.4594116  62.5322647  68.8492966  51.5135727  62.3471184  70.3505554
  18.8844833  71.0833969   9.6393251  18.6584930  71.7457886  10.2923164
  19.0740776  71.5841446   8.8458910  12.1125107  30.8705273   8.8838043
  11.8281918  29.9604492   8.7992268  11.4016399  31.3806038   8.4955816
  22.3020134  19.1269207   8.1534290  22.1933060  19.8720894   7.5625501
  22.9416637  19.4252758   8.8000078  13.6074400  17.5752068  15.6364632
  13.3874893  18.4454460  15.9689369  13.1269426  16.9732037  16.2047462
  49.8184013  67.9186401  53.9893303  49.4282532  68.6304016  53.4819794
  50.3056107  67.4046021  53.3454132  55.2127151  25.1903057   2.9279046
  54.7766304  24.4203472   2.5629025  55.0132408  25.8938370   2.3102591
  53.6553421  59.1547012  83.1980438  53.6788406  59.9980240  82.7458420
  53.8205605  58.5095634  82.5104828   2.1175473  45.2565765  22.1813183
   1.7090170  44.9257965  21.3813686   2.2442811  44.4788704  22.7247715
  20.1904640  38.9293365  78.0586624  19.5990429  38.3666115  78.5584564
  20.2501907  39.7328873  78.5753555  21.8930950  62.7031670   4.5006170
  21.2475891  63.3238945   4.8386288  22.7359314  63.0529366   4.7896132
  60.2614365   7.9609599  68.0770645  60.9606476   7.8657413  68.7238007
  60.6499023   8.4902458  67.3805161  57.6565514  20.4765358  71.1206436
  57.5497437  21.2533379  70.5716400  58.6002541  20.3165340  71.1282501
  41.2868195  27.2510357  18.0781975  41.6654854  26.3817348  17.9472046
  41.3689575  27.6789742  17.2259331   8.1247110  37.4720078  45.0859337
   8.2658834  38.1325417  44.4076996   7.4677529  36.8834953  44.7140617
  12.8650494   2.6629863  47.9722481  12.1709604   2.0050189  47.9328613
  13.4278717   2.3746908  48.6908226  57.5639725  54.6638222  39.0680771
  57.2003212  54.7979050  38.1928596  58.2456093  55.3309479  39.1490097
  35.0038872  63.4834785  76.7019196  34.8224030  62.5467262  76.7779846
  34.5326195  63.7555733  75.9144516  17.7376347  21.2636280   5.7286515
  16.8537159  21.0267239   6.0093575  17.7381554  22.2208004   5.7213731
  74.1833115   8.8424234  45.1040573  73.9338913   8.7686443  44.1828728
  73.4934616   9.3772297  45.4968872  51.7444000  65.2435379  35.4807243
  50.9258041  64.7507477  35.5381279  52.0247040  65.1372528  34.5716782
  24.6108150  43.7555733  74.1003418  24.3590927  44.3549957  74.8028793
  25.5678635  43.7549896  74.1174164  36.0436859  56.1958313  58.4621620
  35.5124054  56.5671921  57.7578468  36.7957687  56.7839966  58.5304756
  56.8911095  58.3313332  42.5558434  56.1517982  58.2007027  41.9620514
  57.5545464  58.7663002  42.0202217  64.3317261  39.4177055  73.2710953
  64.7455978  40.2673378  73.4229813  64.7053299  38.8459930  73.9417648
  23.0344048  57.4688644  40.8203812  23.8462257  57.3912926  41.3215446
  22.4482536  57.9675102  41.3895988  27.6658039   7.7659578  60.8594131
  28.3288708   8.0312576  61.4967422  26.8333645   7.8818855  61.3174896
  79.6280136  34.7839622   0.6808972  79.0514984  34.9792938   1.4196173
  80.4488602  34.5032082   1.0853950  16.6244755  49.1345177  69.0648041
  16.5874004  49.5367393  68.1970062  17.0464115  48.2878723  68.9185486
  77.2906952  70.1544571  89.2335587  77.4104080  69.2091217  89.1427917
  78.1689758  70.5187683  89.1234283  35.7280579  29.4984684   0.4339806
  35.1323166  30.1861362   0.1366008  36.5903854  29.7799969   0.1284236
  53.8703194  14.3271589  88.3276978  54.2304230  13.5074596  88.6662979
  52.9236221  14.2354097  88.4353180   6.8988461  38.9670334  18.2511959
   6.8959856  39.5755844  18.9900398   6.0527763  39.1038284  17.8249512
  54.7898560  49.3221550  66.1518555  54.3876419  49.2620964  67.0183716
  54.1892700  49.8699760  65.6464691   6.1601615  19.9986687  62.7507324
   6.6025848  19.6023808  63.5013657   5.5958443  20.6708393  63.1327858
   7.5440316  49.4589958  52.9698029   8.4737568  49.5658226  52.7687302
   7.5316324  48.9748116  53.7954216  62.8202095  27.3715076  69.4758301
  63.6745758  26.9452572  69.5436325  62.9408150  28.0445595  68.8059921
  71.2659988  17.8746033  51.2713242  72.0296249  17.8180027  51.8456993
  71.4840546  18.5700397  50.6508026  75.5916061  43.9032097  81.3981323
  75.3448105  42.9939766  81.2289658  74.9515915  44.4201164  80.9088287
  41.7844124  43.3875809  64.9870529  41.0606308  43.5597954  65.5893097
  41.3948936  43.4650154  64.1161270  67.1595459  67.9141846  70.6466141
  67.4785690  67.2937469  69.9912415  67.5666428  68.7465820  70.4065704
  66.6178436  31.4375019  37.7036400  66.4582443  30.9202328  38.4930649
  66.0030899  31.0868359  37.0591698   3.8478839  59.6740341   5.7063909
   4.4703708  60.2153244   6.1919317   3.2370934  59.3563690   6.3714142
  72.5628357  36.3184166  39.4322624  72.7493210  35.4153061  39.1756668
  73.4015427  36.6561890  39.7464523  82.6272202  60.6377907  84.3012161
  81.9578552  60.5057526  83.6298370  83.0228500  61.4814758  84.0823288
  30.9329777   7.8095641  38.9875221  31.6637802   7.3622923  38.5607758
  31.0790749   8.7372961  38.8025818  52.4184113  18.3598366  54.9719887
  51.8816681  19.0234623  55.4052773  51.9764748  17.5324478  55.1626396
  54.8260117  30.1648731  86.9105911  54.0681686  29.8372917  87.3949432
  55.5413132  29.5801868  87.1610107  35.8704338  19.9065781  73.0704575
  36.6211243  20.4764385  72.9032593  35.2531319  20.1113949  72.3681641
  71.7574158  66.7754288  41.8728867  71.7287903  67.0238495  42.7968445
  72.1793518  65.9162521  41.8688316  19.3425007  43.6929131  15.2591896
  19.3352985  44.5839729  15.6087437  20.2702141  43.4906120  15.1381330
  81.9754944  61.6609535  67.6508942  82.1594543  61.0947609  66.9013519
  81.3110199  62.2718277  67.3322296  77.6474838  52.5391388  61.0523529
  78.2700272  51.9277534  61.4459038  76.8942642  51.9966888  60.8186073
   7.7250094  28.2197590  76.8206329   8.6156120  28.0428371  76.5177155
   7.5341640  29.1016960  76.5012665  15.4810505  66.9330368  66.6184006
  16.1415730  67.3433609  66.0602112  15.6888504  67.2402191  67.5008316
  73.9055939  61.3095894  34.2064400  74.4872742  61.8373909  33.6593475
  73.0242386  61.5531769  33.9234047  49.6045837  30.3434467  62.7273026
  48.9072838  30.9771423  62.8959274  49.1911201  29.6706467  62.1863594
  22.7950954  11.6222906   8.0332165  21.8786888  11.6156445   8.3095932
  22.8167305  11.0559912   7.2618098  31.9350796  41.8894958  79.3777466
  32.1723061  41.2069740  78.7499542  32.2783546  41.5753174  80.2142181
  57.9762459  42.0132751  40.2679558  58.9152679  42.1619911  40.3791275
  57.6349869  41.9591637  41.1606178  53.3555489   3.0206764   0.4766833
  53.4309387   2.0897083   0.6860794  52.8773193   3.3946624   1.2167268
  81.9972534  26.5155525  34.9767952  82.3288193  25.6466770  34.7501831
  81.3408279  26.3522854  35.6540565  23.4324360  22.3801270  32.8395386
  22.8366833  22.6791172  32.1525803  23.8236542  21.5811481  32.4862518
  45.1927032  36.3251534  68.9721680  45.3906364  35.4167023  69.1996994
  44.7876320  36.2724495  68.1065063  62.6830978  69.7107315  83.7040787
  61.8980484  70.2480469  83.5981598  63.0335045  69.9643402  84.5579681
  18.5409527  36.6280289  73.0325623  18.5306950  37.5738831  72.8859863
  19.0308609  36.2758064  72.2894821  64.4895096  58.3200607  33.5239792
  65.4359131  58.3666229  33.6595879  64.3688660  57.5795097  32.9296227
  84.6754379  38.9865570  52.9629021  85.1334763  39.8091621  53.1354065
  84.7181015  38.5102196  53.7920685  30.6496143  67.9749832  60.2889900
  30.9326038  68.2113495  59.4056549  31.3882904  67.4885635  60.6550217
  38.6819115  24.7157936  71.2935791  39.3895493  25.2815914  70.9847794
  38.3634224  24.2780762  70.5041504  86.4748840  23.6450977  10.0671959
  86.0093613  24.0312977   9.3253260  85.8092804  23.1343632  10.5280161
  66.7919769  40.3633423  15.9262838  66.2832336  40.9631004  15.3806667
  67.5616684  40.8698692  16.1855907  22.7356300   7.3127646  74.0268250
  23.4913521   7.3149171  73.4393616  22.2956276   8.1451092  73.8541031
  10.7775736  33.3821182  61.9901733  10.4483700  33.4544601  61.0942802
  11.6580229  33.7557983  61.9527206  81.1378860  11.8924265  25.4606228
  81.5388260  12.7485456  25.3104763  81.1880951  11.4523087  24.6120892
  81.6586075  56.6095085  73.4307175  81.4901962  56.4820213  72.4971161
  81.2008667  55.8853798  73.8577423  71.7822876  47.6193962  12.1964912
  70.8458023  47.6457443  12.0002050  71.8992157  48.2651443  12.8933191
  78.5981216  58.2482262  71.0417175  78.3704147  57.6773186  70.3079300
  79.3344421  58.7687836  70.7206573  65.4034500  50.1926842  78.5719376
  65.9683456  50.7366066  78.0230484  64.6939087  50.7772064  78.8386230
  23.2216492   4.1605248  69.4971085  23.7277813   4.1626458  70.3095474
  23.8547020   3.9184756  68.8211746  18.8611736  63.2187538  37.2135582
  18.6693630  62.2832451  37.1482124  19.6605110  63.3357887  36.7001419
  32.1707382  37.8565102  85.2629471  31.7928638  38.6046715  85.7252197
  31.7265358  37.8496017  84.4150848  13.2231731  46.2883644  42.2551460
  13.6245365  46.1975250  43.1193695  13.3828087  47.2001877  42.0115738
  79.7248077  68.3647537  67.8726273  79.4817505  67.8699875  67.0900955
  80.6283646  68.1034241  68.0501785  10.3756695  60.0810623  83.2563019
   9.6556892  60.0290108  82.6276932  10.4769821  59.1856499  83.5791092
  16.1017399  54.0838509   0.2356162  16.0769501  53.8160820   1.1542662
  16.1244583  55.0403137   0.2654564  65.8905182  47.7601852  50.6928825
  66.0309982  48.0641098  49.7961540  65.2275391  48.3535995  51.0458069
  62.1310692  44.6314049  36.8717690  61.6276360  45.3482285  36.4858284
  61.9875298  44.7181549  37.8141632  56.7019043  21.9333210   8.4189730
  56.0447578  22.1390305   7.7540860  56.8560905  20.9937477   8.3206978
  16.3904419  33.6584091   4.8552408  16.1115780  32.7607956   4.6742535
  17.1578751  33.7877617   4.2979751  74.5577240  45.3601646  15.7401390
  74.4724503  45.6468124  14.8308573  75.3455048  45.8016129  16.0575600
  13.2390928  39.5977364  84.8235550  14.0680819  39.2006454  84.5564804
  12.6439829  39.4230728  84.0944672  26.9884224  47.2913055   5.3099685
  27.1722775  48.2229691   5.4300914  26.6660748  46.9989204   6.1625142
   6.6382775   1.6591454  32.2978249   7.2047262   1.4914236  31.5446720
   7.0847306   2.3526652  32.7835617  16.6536121  10.9086800  21.0975132
  15.8036366  10.7012873  20.7092342  17.1764851  11.2389698  20.3669338
   5.9711070  39.4752693  63.3803749   6.7348456  39.3448257  63.9424438
   5.7265444  38.5932961  63.1001129  47.2463150  31.4319801  67.6391449
  47.7061844  31.9285889  68.3159943  46.8319397  32.0994072  67.0922699
  81.2925491  12.8254108  30.0516758  81.2132721  12.1273031  30.7017460
  82.0123138  13.3695688  30.3711491  47.6836433  67.2655411  64.2898712
  48.4652061  67.5344467  63.8070793  47.3575058  66.5029602  63.8120308
  79.6106033   9.6287680  39.3310509  78.8691254   9.1658506  39.7211037
  79.8681183   9.0845385  38.5869179  13.9135103   7.6531620  85.0371017
  14.3687325   6.8374901  85.2461014  14.0473070   8.2061472  85.8068619
  76.2269974  49.6412201   4.7483339  76.1711273  50.3800201   5.3543730
  77.0959625  49.7195625   4.3546495  39.1235466  25.1432495  68.1884460
  39.0620613  24.2492695  67.8519211  39.3156776  25.6767750  67.4172974
  41.0016556   4.5641241   9.1736670  41.0658646   4.8347735  10.0895586
  41.3808708   5.2923274   8.6815815  56.8195229  35.9652176   2.4758806
  57.3875351  35.7745705   3.2223721  57.3786545  35.8347511   1.7099949
  24.2089462  36.2916489  10.7444048  24.2799587  36.6002579  11.6477032
  24.7568607  35.5073090  10.7154951  24.2727985  65.0542679  38.0868416
  23.8846188  65.7086792  38.6676102  25.0053883  65.5081711  37.6702881
  67.3435669  22.2800179  75.4629059  67.6867981  21.6670723  74.8127365
  66.4049683  22.3224945  75.2799835  52.8093414  63.4664230  25.5848179
  53.4650459  62.7794647  25.7047176  51.9916420  63.0727844  25.8892021
  64.9699631  42.3221817  86.7824173  64.2070007  42.8605499  86.9928436
  65.3977814  42.7843628  86.0615845  67.8982773  10.7968950  14.9034071
  67.2528992  10.4938383  14.2647591  67.4565887  11.5044556  15.3729782
   0.8450193  37.8819656  64.0627365   0.2138088  37.3545189  64.5522308
   0.9254813  38.6902695  64.5690994  71.6898422  25.3161983   9.2282867
  71.2585449  25.9303627   8.6341352  72.1515884  25.8733444   9.8548756
  69.6196671  21.4020367  48.5593948  70.0118332  20.7076855  48.0299492
  69.0004730  20.9471817  49.1302986  69.2302475  52.9672318  74.4541016
  69.6292343  53.3901901  75.2144623  68.3646164  52.6946564  74.7584305
  84.4547958  68.1172943  64.1964874  83.5431976  68.1686478  63.9091225
  84.9628601  68.3833160  63.4301033  22.4175129  33.3703728  18.3568916
  21.8725967  33.0370140  17.6440315  23.3027172  33.0793304  18.1379414
  30.9814854  56.8632393  31.0942059  30.8710213  57.7209358  30.6838589
  30.9142094  56.2408447  30.3701000  81.0493622  64.4243774  15.6183119
  81.5914612  64.1591339  14.8753376  80.9689865  65.3740311  15.5292091
  34.5670280  23.5314732   3.4179304  34.7473602  22.7541084   2.8893306
  35.2442245  24.1576195   3.1618536  46.3739433  21.8100433  70.2703323
  46.0976753  21.5419407  69.3939590  47.2768745  21.5005054  70.3419800
  73.2690048  64.0292053  41.5590744  73.3963089  64.2092590  40.6276207
  72.5527878  63.3946877  41.5846634  10.3437147  33.7423439  81.5517960
  10.3652077  34.4453812  82.2010269  10.1885147  34.1893654  80.7197418
   9.6376801  50.8089485  16.4432392  10.0353689  49.9395676  16.3957958
   8.6952753  50.6427689  16.4210911  43.7975426   8.0835676  65.7075653
  43.1111221   8.7406635  65.5923233  43.3396263   7.3166580  66.0516510
   1.6352758  17.6333199   1.9878438   1.1046863  16.8647652   2.1976812
   2.1173105  17.8188667   2.7937264   3.2302196  24.2784519  80.4376450
   2.4229045  24.1464024  80.9346771   2.9383531  24.3967381  79.5337372
  83.5464325  44.3483009  36.1577263  83.9753036  44.4316673  37.0094032
  83.7944260  45.1433220  35.6858406  82.9356003  20.4746647  69.3403473
  83.4293900  19.6702538  69.4994965  82.7054214  20.4347210  68.4120941
  65.5368958  38.3840332  85.7837219  65.0536575  39.0867195  85.3490372
  64.8842010  37.6992798  85.9297943  84.8470688  65.6114655  65.1283569
  84.9057388  66.3784790  64.5587234  84.0202103  65.1951294  64.8850632
  81.5056763  25.9749527  60.0873070  80.7735138  25.3617764  60.1520538
  81.0924911  26.8369503  60.0375748  46.8145142  59.1218147  26.9222107
  46.6455688  59.6345024  26.1317406  46.7154236  58.2116013  26.6430702
  70.5864868  51.8258858  27.9192677  71.1171188  52.5651436  27.6223488
  70.6030807  51.8874512  28.8743401   3.4282928  38.9781723  71.9481125
   4.1137886  39.6381035  71.8441086   3.0830040  39.1281281  72.8281784
  15.0347071   0.6418908  85.0090790  15.3854322   1.4910071  85.2778244
  14.4716835   0.3745187  85.7355423  70.9448166  47.9690323  40.3337555
  70.6018600  48.6383438  40.9258995  70.3709335  47.2146149  40.4669380
  50.5020752  45.2008171  54.9347572  49.7262535  45.6468124  54.5950203
  50.7326317  45.6896362  55.7247772  69.2570953  50.9484406  77.4651642
  70.0477448  50.6377487  77.0240479  68.9577713  50.1972961  77.9774323
  56.1232529  60.0438004  27.7907982  56.0612450  60.8126450  27.2239971
  56.7336769  60.3035431  28.4808350  71.5517731  66.1354218  54.3735504
  70.7578888  66.2762375  54.8894501  71.7729950  65.2158127  54.5205917
  19.6536674  65.0547409  24.8578873  20.4093113  64.6941147  24.3940086
  19.9039211  65.0269470  25.7813759   9.5760078  40.3776855  86.5872116
   9.0407696  40.1254120  85.8348083   9.8332405  39.5470848  86.9874268
  41.6073227  30.4862728  82.0622330  41.1097145  31.2186260  81.6985321
  41.6137238  29.8310509  81.3644714  53.3074684  20.9668045  57.3331184
  53.6152687  20.0774689  57.5079765  53.8002205  21.2432175  56.5604477
  60.7913895  56.0311203  59.5014610  61.5297699  56.6381226  59.4507751
  60.6087646  55.7995415  58.5908279  27.5688820  47.9307098  57.3784676
  27.8319645  48.7577705  56.9747505  26.6368294  48.0415955  57.5661278
  52.2693062   4.0070882  26.9755325  51.6731224   4.7554622  27.0026283
  52.1333733   3.6238265  26.1090088  61.5865974  66.6224518   3.5858142
  61.0193253  67.3787003   3.4357214  61.0410843  66.0074005   4.0760784
  36.5227470  47.8860550   5.0990472  35.9065704  47.2039490   5.3660502
  36.5524902  48.4867744   5.8436823  78.0986481  48.2168465  32.0120125
  77.2344666  48.4468117  32.3533745  78.2471161  47.3223915  32.3188400
  27.6485138  19.0104752   0.2367370  27.1814423  19.3784294   0.9868609
  28.5743008  19.1224365   0.4526359  85.3310394  25.1101875   7.9243937
  85.2718735  25.6391239   7.1288071  84.8395538  25.6063614   8.5789843
  37.5082779   8.5700817  86.6604614  36.6665878   8.9292297  86.3797379
  37.3105049   7.6696992  86.9182053   5.3461628  65.6705704  70.4203720
   4.9439893  66.0328445  69.6309128   5.1332755  64.7378006  70.3911896
  11.5636282  36.5492630  39.1698074  11.2119646  37.0776520  39.8863068
  10.7900267  36.1939316  38.7321892  46.8187256  21.4658356   9.4713583
  46.1381531  22.0029602   9.8770065  46.4823532  21.2738838   8.5960064
   3.1480074  57.9901085  25.4690094   3.0086265  58.2964058  26.3651047
   3.8243771  58.5705605  25.1199646  27.5392342   9.9136705  12.9549828
  27.5060482   8.9600096  12.8797445  27.7168922  10.2180996  12.0650425
  55.6936226  41.8010597  26.7477436  55.3122864  40.9410095  26.9241848
  55.5362282  41.9460106  25.8147659  56.3967628   5.8982391  80.9445419
  57.3498611   5.8211970  80.9881287  56.2090912   6.7612009  81.3137436
  17.1574841   3.8129215  55.6943245  17.3141251   2.8691785  55.6619949
  17.0584240   4.0707989  54.7778511  57.4971809  13.1588926  70.4737778
  57.6037369  14.0922747  70.2902679  58.2157364  12.9484892  71.0701370
  61.3907318  54.5263596  73.9000626  61.2660484  54.0668602  73.0696716
  61.5293465  53.8291779  74.5411224  67.8079681   6.5541310  83.4889603
  67.4671249   6.7161374  84.3686218  67.0292969   6.5166306  82.9335327
  61.8524437  20.5813770  18.7389679  60.9152641  20.7652149  18.8032703
  61.9082489  19.6260300  18.7182484  73.3817596   4.5380807  45.4274025
  74.1795273   4.9974437  45.6896744  73.1773453   4.8889008  44.5605850
  57.6730118  46.7076225  18.1066513  58.3749352  46.9047432  18.7268772
  57.9358902  47.1492729  17.2991390  69.1993561  42.2868271  26.2411709
  70.1056442  42.0317230  26.4137669  69.1166229  43.1564178  26.6325760
  35.5611610  39.1028290   2.4169211  36.2830048  39.5572624   2.8512757
  35.9869843  38.4314651   1.8838379  27.0575466  64.3009720  17.3409595
  26.5669174  63.6068954  16.9007664  27.4054127  64.8372498  16.6284771
   0.4431909  70.0013885  59.4605408   0.8142419  70.2486801  58.6135483
   0.9219598  70.5332565  60.0962448  23.5945301  57.7206001   0.6860846
  22.7795162  58.1478271   0.9496393  23.5276737  57.6435661  -0.2656652
  69.8929825  65.3398514  35.8160172  70.2316513  66.1170502  36.2604294
  70.6743469  64.8794632  35.5098419  11.3701181   6.8710504  29.6340408
  11.8967371   6.6418161  30.3997803  11.5120592   6.1496902  29.0210781
  25.1466446  66.2638245  25.1144905  24.5208702  66.0738983  24.4155159
  25.9495811  66.5118713  24.6562366  80.7478104  14.3153515  75.4347839
  79.8196487  14.0833044  75.4046860  81.1414795  13.8220444  74.7151260
   0.4555691  24.8793602  24.7050591   0.3443680  25.8283978  24.7615871
   1.1944237  24.6899147  25.2833633  37.3243141  21.4935627  66.1685715
  36.8577728  21.3487377  66.9917374  36.7552643  21.1116104  65.5003433
  50.1665268  19.9001942  54.8422050  50.3429871  20.6866703  55.3584900
  49.6895256  19.3237858  55.4392471  12.6377678  13.4699926  23.7404022
  12.6295242  12.8949299  24.5055599  12.0522413  13.0440407  23.1143379
  27.2290001  68.8315353  74.7241135  26.6022396  68.5128555  75.3736115
  26.8073845  69.6012115  74.3419266  47.3991585  50.5237045  45.9927673
  46.6642456  50.5593719  46.6050301  47.7536659  49.6405029  46.0952873
  64.7648773  18.7860165   4.1163268  63.9081917  19.1351852   4.3621130
  65.3363724  19.5532684   4.0855260  53.0697174  41.9698792  14.7860432
  52.5357094  41.8467979  15.5708475  53.4589424  41.1105347  14.6239862
   6.5120506  56.4199715  49.1964493   6.2163310  57.2638893  49.5378952
   5.7116857  55.9016342  49.1129570  66.3948059  13.8610649  73.2367630
  65.5681839  13.3802567  73.2785263  67.0688782  13.1851139  73.3071518
  56.6191788  15.4433470  17.4181137  57.2202187  15.4996386  18.1609535
  55.9777870  14.7822676  17.6785393  82.1902847  22.0842400  10.5480032
  81.4221191  21.5452137  10.3593340  82.9294510  21.4798412  10.4803915
  31.2610130   8.9290314   3.5972862  30.6160927   8.2517900   3.3931942
  31.8467445   8.9379053   2.8402717  14.2259092  59.4608841  46.1011620
  14.3651438  59.9037285  46.9382591  13.3582859  59.0645905  46.1812477
  81.8868027  67.3859177  22.2147636  81.7327652  67.5321426  23.1481037
  81.1650772  67.8391876  21.7790031  44.8602486  44.9858017  88.9190216
  44.9597816  44.8391457  87.9783707  45.7546082  45.1042328  89.2389145
  73.6761932  41.7817802  32.5282440  73.4968643  40.8484077  32.4147339
  73.7041855  41.9066658  33.4768486  43.2447014  24.1569290  76.4241638
  42.3048668  24.1683769  76.2430191  43.3072433  23.9245052  77.3506088
  65.2982178  68.2772522  19.0454178  65.7985001  67.5867157  19.4802895
  64.5000916  68.3597260  19.5673637  78.0973587  43.8629990  57.2261238
  78.4524078  43.0173149  56.9522820  77.1485519  43.7590904  57.1540489
  15.6853819  64.5086899  46.6553307  15.8415213  63.6986313  46.1698875
  14.7790289  64.4375381  46.9548187  81.8303223   2.3131521  53.6549149
  82.1546249   1.9599478  52.8264771  81.1523438   1.6957520  53.9294815
  22.9436836   0.8304347  14.7199392  23.0435772   1.7429955  14.9910221
  22.8612251   0.3444858  15.5404797  39.2797241  46.7473640  27.2955265
  40.0638084  46.2744713  27.5744896  39.5665779  47.2632904  26.5420227
  24.0115604   0.9421822   7.9582896  23.7292156   1.1279806   8.8538294
  23.6977711   1.6890335   7.4484057  66.2335052  20.2663422   9.4237747
  65.6154709  20.8916397   9.0452623  65.7205658  19.7862511  10.0738811
  66.7390518  19.5274315  16.7966290  67.2364120  18.8305397  16.3686104
  67.1962509  20.3323269  16.5530205  75.4970779  48.4919777  11.8446350
  75.2347260  49.3943024  11.6623821  76.4531097  48.5230751  11.8803015
  26.7331142  66.7129135  82.9715500  26.0335350  66.6365891  82.3227081
  26.3451557  67.2219467  83.6833038  15.4146404  69.5881958  60.8696556
  15.6596603  70.2788925  60.2539101  16.1799736  69.4896927  61.4360390
  33.5361481  68.9970169  53.9675407  34.3522415  69.3099594  54.3577805
  33.7973061  68.6439667  53.1170197  51.3457794   1.2823993  61.4485588
  51.4500351   0.3796839  61.1477814  50.6525269   1.2369088  62.1070137
   2.3201001  70.3591461  29.8711166   2.8302481  69.6136093  30.1875935
   2.7754898  71.1259003  30.2188892  53.0117683  45.8575401  83.4806137
  52.9267883  46.5454102  82.8204269  53.1460381  45.0557976  82.9752274
  53.7681694  54.6881676  67.3203201  53.3537407  53.8592033  67.5597000
  53.9720306  54.5941124  66.3898239  71.0073090  33.2712402  72.5317078
  71.5263596  32.6906471  73.0882416  70.1615601  33.3352928  72.9753799
  24.3644314  58.1451340  27.4900608  24.8609676  57.4559746  27.9313545
  23.6229992  58.3155823  28.0709724  41.1610184  62.9035339  40.8658676
  41.0293350  62.1924324  41.4929428  40.2885590  63.0748596  40.5113297
  30.8997097  30.6501598  43.3856621  31.4908600  30.3479958  42.6961174
  31.4792747  31.0078316  44.0582733  55.8567848  52.4216080  41.0926933
  55.9583473  51.5090446  40.8222313  54.9887733  52.4571152  41.4945946
  64.6365585  19.5470524  65.3769913  64.7593384  20.3193817  64.8250275
  65.2530746  18.9031086  65.0284576  56.4996185  54.7658005  30.2183189
  57.2953796  54.8553162  30.7427063  56.7627602  55.0299149  29.3367119
  21.0603104  58.1747055  13.6212473  20.2595539  57.6562881  13.7004080
  20.8943825  58.9541931  14.1514339  70.3867722  51.3019218  15.4636068
  69.6726913  50.9898643  16.0194283  71.0949173  51.5048447  16.0748291
  36.9282494  51.6097107  28.9492931  37.0991058  52.4869041  29.2921829
  36.1116066  51.6994247  28.4580936  21.7002869  49.4301033  41.5523567
  21.9813747  50.3062935  41.2887077  20.7905464  49.3724289  41.2603302
  30.4654503  38.6653481  83.1408920  31.0092793  39.4137230  82.8950958
  29.6144562  39.0477180  83.3549805  32.7626457  57.5609894   3.9631777
  33.2362633  57.0055580   4.5823817  33.2593346  57.4886475   3.1481314
  69.2609711  48.8895416  54.9954834  68.8616638  49.5442543  54.4226494
  69.4800949  48.1627998  54.4123344  84.5984497  45.9206810  19.8630524
  85.4519730  46.3207207  19.6966324  84.5819397  45.1479263  19.2984180
   6.9136095  67.9798355  54.9331512   7.4533715  68.6412582  54.5002441
   7.1815596  68.0155487  55.8513870  33.9210815  66.8673477  43.7239189
  34.0377083  67.2379227  44.5987358  33.1522598  67.3173599  43.3737221
  79.8197784  19.4441700  40.9398918  79.0755997  19.6012154  41.5210609
  79.8793488  18.4907475  40.8793259  18.3067455  56.5377426  86.3211899
  17.9740562  55.9162445  85.6736603  18.9082775  56.0235519  86.8597031
  86.7307053  32.5219154  53.4462128  86.2246170  31.9111805  52.9103813
  86.8569794  32.0637054  54.2770729  32.2207260   4.6931653  28.6581306
  31.9106369   5.4426079  29.1664734  31.4371662   4.3593788  28.2212620
  73.8816071  56.6488762  38.1660347  73.9142609  56.0778503  37.3985062
  73.2900848  57.3574066  37.9124336  55.8782921  48.0599518  77.3147964
  56.2934074  47.2277184  77.0882950  55.0831528  48.0837059  76.7824326
  58.6720200  10.3559408  47.2555199  58.5373688  11.2338419  47.6124382
  58.5311165  10.4559479  46.3140450  20.1863384  14.6793900   1.0231861
  20.4042702  15.3507996   0.3766980  19.5647984  15.1069603   1.6123413
  55.9594955  21.1415424  15.6969013  56.0711937  20.8207130  16.5917892
  56.1664772  22.0746212  15.7493973   6.3134298   1.0094806  41.4940262
   6.4697199   0.2462260  42.0501289   5.6308255   0.7267018  40.8854866
  41.2141724  39.9471283  16.0062828  42.0320816  40.3022308  15.6582079
  41.4879112  39.2236443  16.5700836  82.8358994  30.1131287  71.0490723
  82.6913300  29.2278728  70.7149200  81.9751129  30.5294361  71.0046768
  37.2579346  58.0622482  16.2700901  36.8632584  58.8212051  16.6995621
  36.5539551  57.4146996  16.2336674  57.6426086  38.0192947  37.0088692
  58.2730293  37.7632599  36.3356323  57.7541656  37.3681145  37.7015076
  58.4443741  51.5324516  78.2386398  58.6931686  50.6402817  78.4802170
  59.1432304  52.0808449  78.5951462   5.7050424  44.6454353  80.0159073
   6.2924647  44.0554810  80.4882660   5.0707459  44.9294662  80.6741028
  66.6495514  29.7574959  57.0529556  66.8641968  30.1948700  57.8768845
  65.7378540  29.4850082  57.1568565  10.0930891  52.5964813  28.8388329
   9.1854563  52.3700562  28.6359386  10.3442888  53.2159653  28.1537266
  21.6899986  13.9712505  49.6994858  22.4526939  13.5294561  49.3261986
  20.9400597  13.4849691  49.3569183  20.5427818  67.5166931  27.3663940
  21.1642780  67.8488541  28.0141945  20.8707733  66.6452103  27.1446686
   0.4263194  48.5814171  46.1440697   1.3724890  48.6626854  46.2640305
   0.0715624  48.5783577  47.0330963   3.8160024   2.0374603  62.9726830
   3.4243803   2.8154781  63.3696098   3.9007201   2.2585940  62.0452385
  18.1905861  42.8668251  83.4043961  17.4123325  43.3289070  83.0928955
  18.6776676  43.5251312  83.8999939  87.0714417  46.5825882  64.6031876
  86.2660141  47.0870399  64.7174149  86.8148499  45.6779366  64.7820663
  27.5512829  16.3168392  82.5263901  26.9274063  16.8091087  83.0599442
  28.2012291  15.9967699  83.1519775  19.6468391   9.7980089  77.1777649
  18.8861504   9.6928272  77.7491837  19.7291012  10.7444019  77.0602646
  57.0776176   6.2622776  60.6054382  56.5136604   5.9684062  59.8900185
  56.6392365   7.0392857  60.9522972  23.2922192  63.7440109  87.4296265
  22.3710461  63.5927887  87.6412964  23.7527084  63.6157646  88.2589188
  81.9717331  46.4502029  63.5775452  82.8682632  46.3278465  63.8897858
  81.9568405  47.3444595  63.2364883  86.4520035  55.3563118  41.1529388
  86.6246185  56.2229614  41.5208511  87.3203506  54.9876366  40.9908333
  47.2844162  57.6363831  14.1620150  47.5317307  58.4580231  13.7377863
  46.3856544  57.4786263  13.8729343  82.3091736  20.7974129   4.3106847
  81.8842392  20.7745609   5.1680851  81.5866241  20.8704758   3.6871350
  17.5620937  55.1338692  73.9966431  17.4437466  54.2903862  73.5598755
  17.1979809  55.0033722  74.8722153  14.1896400  60.1973038  32.3408737
  14.6238441  59.5684738  32.9173012  13.4935436  59.6940460  31.9184837
  76.4988251  38.9314156  55.0211449  76.7318573  38.4904175  55.8381195
  76.1687927  39.7867317  55.2963600  83.0540771  33.0523758  72.1768646
  83.5500717  33.4204559  71.4456024  82.2230225  32.7784920  71.7888412
  34.0892105   8.2065859  74.4470367  34.2808914   9.1374874  74.3333969
  33.1954231   8.1044254  74.1200180  33.4008141  12.3392582  39.7177391
  34.0901337  11.6775961  39.7749367  33.8711700  13.1677580  39.6250839
  78.0558548  69.2689819  54.1759224  78.3909607  69.5967636  53.3413620
  78.0073929  70.0440140  54.7355766  72.3562317  26.2532024   3.2683356
  72.6057358  27.0848789   2.8654795  73.0397263  25.6407509   2.9963567
  63.2072067  36.3700371   9.0356865  62.5462494  35.6900444   9.1659727
  62.7887192  37.0019455   8.4510603  30.7029266  45.8991776  73.1051178
  30.7762890  45.2472267  72.4081192  31.3515949  46.5657120  72.8788681
  26.9816418  18.2815266  86.9696045  27.8000278  18.5458393  86.5493469
  27.1637287  18.3414612  87.9074097  57.1786079   6.8931103  65.1938019
  58.0758171   7.2046924  65.0747910  56.7573891   7.0472531  64.3481979
   9.6430740  23.0441647  15.5871830   9.9774084  22.5840397  16.3570786
  10.0047531  23.9273911  15.6601944  36.4826622  32.2090645  11.1403198
  37.2656822  32.6376114  11.4859476  35.7567406  32.7506905  11.4500113
  39.1384659  47.3493462   5.1380010  39.3616562  47.5157051   6.0538297
  38.1814156  47.3446770   5.1217532  42.5384521  56.7025375  -0.0738003
  43.1600456  57.2230148   0.4350811  42.5257339  55.8506584   0.3625109
   9.6059904  25.6103840  12.2074490   9.5532961  26.5661106  12.2007656
  10.5068512  25.4183521  11.9470568  39.3837738  29.7466488  10.7320919
  40.1208496  29.1755447  10.9484043  39.4586983  30.4772797  11.3459301
  44.9806976  67.1179504  72.5487137  44.3526306  67.3992462  73.2140274
  45.7160645  66.7631836  73.0483170  79.6240616  28.8430462  55.8437767
  80.5522156  29.0485268  55.7318192  79.2242813  29.6736393  56.1017036
   5.7687016   9.8419924  65.3624573   5.1628389   9.2176628  64.9632416
   5.2430611  10.2998409  66.0184402  59.8711357  42.1579895  26.8125992
  59.4198303  42.0056610  27.6428699  59.2726707  42.7134628  26.3130779
   4.3080502  25.9203949  34.7766342   4.6026664  25.6188240  35.6359863
   3.6775587  26.6143036  34.9695206  48.6439629   1.0795344  51.8423424
  47.9691315   0.8031529  51.2223053  48.3298416   0.7700639  52.6919250
  32.5171127  66.1204987  19.8063297  32.8130608  65.2264633  19.9776230
  32.4686012  66.5266724  20.6717205  81.7674408  69.6235809  41.8866920
  81.5705719  69.9736938  41.0178490  80.9432907  69.2358246  42.1810532
  50.3685417   9.7276306   3.3765621  50.1254921   8.8858013   2.9912260
  50.8162460  10.1938639   2.6705754  78.4051971  13.3754206  71.9702072
  77.5335312  13.6132565  72.2862091  78.2725983  12.5538464  71.4972763
  59.4074745  34.7930145  16.5041580  58.7925758  34.7513428  15.7717676
  59.1033096  35.5324059  17.0304832  54.1920815  45.0299339   1.6384450
  53.4499054  44.4263153   1.6708946  54.6651230  44.8720398   2.4554710
  62.7949371  66.5703125  72.0743332  62.4543991  66.0406952  72.7952805
  63.7446136  66.4619064  72.1252670  68.3772659  43.1758041  63.4845200
  68.5584869  43.0914574  62.5484200  68.6762772  42.3484955  63.8618584
  77.9573822  34.6165695  71.5377197  77.6960907  33.9772339  70.8749924
  78.8905106  34.7586937  71.3786469  75.4178619  65.7191696  56.6765823
  76.3610535  65.6579132  56.8278503  75.3212738  65.6326370  55.7282104
  76.9790726  26.2513123  21.4781590  76.8094254  25.3349724  21.6967354
  77.9021225  26.3823490  21.6950493  78.6454391  67.8883057  82.6494675
  79.3627243  67.3000488  82.8854523  77.8973083  67.5679321  83.1533356
  10.8703699  57.8105469  65.4685287  11.7556973  57.7192116  65.1162720
  10.5359669  56.9146729  65.5111923  69.6794052  67.1477737  25.6258240
  68.9199371  66.6337280  25.9000530  70.2435913  67.1725159  26.3986835
  81.6998520  19.2880669  72.8328323  82.1515198  18.8025093  72.1425705
  81.4561539  18.6210861  73.4746933  44.3603172  38.4959221  35.7465668
  43.7741089  38.1123810  36.3988647  44.4402161  37.8225555  35.0709763
   8.2675905  39.5696678  16.0200386   8.0497866  39.3568611  16.9275112
   9.1502199  39.2201958  15.8972921  83.7262344  26.1398239  85.0688858
  83.1007614  26.2977028  84.3617096  83.3674316  26.6171417  85.8169861
  85.2943115  57.9083252   6.9300504  85.3427429  58.5543022   6.2253509
  84.6093674  57.3005943   6.6512151  69.5587311  44.2907295  55.2535133
  70.0079422  44.6173553  56.0331001  70.2068176  43.7370987  54.8179550
  39.6243401  44.4222679  59.9787369  38.7197495  44.1476517  60.1288490
  40.1381607  43.6213760  60.0826302  17.9935436  71.2435532  71.6767654
  17.6391602  72.1101303  71.8760071  17.4568806  70.6411057  72.1918259
  70.6834412  65.4371872  87.0235596  70.8439102  64.5077438  86.8604279
  69.7309494  65.5254669  86.9890060  29.5685444  62.2348938  70.0978317
  29.9431877  61.4398117  70.4769363  28.7627773  61.9409523  69.6728973
  84.7589798  70.6853485  75.9960861  84.5909576  71.5652542  76.3333740
  84.5761642  70.1062622  76.7360001  66.3924255  21.0788574  44.2771492
  65.8206863  20.7556305  44.9734764  66.4381943  22.0236130  44.4240265
  60.6519737  57.3540001  32.9191933  61.5169411  57.7610817  32.8707314
  60.3464355  57.3320732  32.0123329  66.2780304   3.6815708  20.5346680
  66.4311371   4.5375786  20.1346149  66.8330765   3.0816278  20.0364437
  39.1070175  23.4003448  73.5055695  39.6663742  23.9102726  74.0915070
  39.0749855  23.9135723  72.6982269  85.7718353   2.1613183  41.0027122
  86.0210495   2.4345002  41.8856049  85.0610657   1.5345449  41.1376038
  25.8694401   3.2317488  59.6572075  26.5232029   2.5418365  59.5438690
  26.3244228   3.9141181  60.1507607  44.6477661  38.8896561  20.9537582
  43.7832336  38.9620171  21.3582077  45.0719757  39.7263718  21.1439781
  49.2702675  18.0185909  39.8504715  48.4325294  17.9196606  39.3980980
  49.6408310  18.8261471  39.4944305  11.8691063  48.6882782  26.6239891
  12.1126575  48.0510864  25.9525013  12.1963100  48.3120728  27.4410820
  85.7374268  41.3436470   7.7603049  85.7823639  41.1339264   8.6931658
  86.0646362  40.5580292   7.3221626  21.9866409  63.3537979  19.7981319
  21.3686104  64.0151291  19.4868355  22.8062496  63.5619659  19.3496494
  71.6246109  15.3923388  78.7952881  71.6099091  15.1790848  79.7283096
  71.5123215  16.3424454  78.7649536  54.6292648  19.0190468  76.6920624
  53.9175072  19.3664665  77.2295837  55.1436882  18.4814301  77.2942047
  72.3116150  56.4929924  30.3591022  73.1731567  56.5526505  30.7719193
  71.8653564  57.2990570  30.6186085  39.0988655  58.5815506  52.8910027
  38.8936653  58.5728645  53.8259087  38.8610992  59.4624863  52.6017799
  20.4447899  67.3651428  35.4517632  19.6792679  66.9248047  35.0825577
  21.1687412  67.1046753  34.8823051  22.9702396  12.0111189  85.8617935
  22.9471016  12.3786001  84.9782486  22.1969109  12.3749619  86.2928543
  82.0996552  22.0333576  71.3466644  82.5382614  21.5381451  70.6548462
  81.9465637  21.3917255  72.0402832  80.8323517  17.3726788  43.5878983
  80.5852432  17.1550045  42.6891289  81.2141418  18.2482548  43.5259552
  23.3742962  53.3223000  27.7669239  23.3108501  54.2772217  27.7486210
  22.4737453  53.0201225  27.6489143  52.4664574  25.1286716   5.8531446
  52.3001213  25.0462303   6.7921686  52.1606979  24.3009529   5.4821649
  66.5830917  48.7114906  33.0334053  66.2062836  48.9518051  32.1869431
  67.1791611  47.9895821  32.8339462  51.7558327   0.3846896  11.6425037
  51.2138443  -0.2624308  12.0938501  51.1535492   1.0994556  11.4361153
  50.2509727  54.6979904  18.4314842  50.3049240  55.6011353  18.1190014
  49.3297958  54.5792465  18.6629276  35.8227310  71.5497589  82.4122696
  36.4300995  70.8484802  82.6479568  35.9382286  71.6595001  81.4684219
  45.4928284  63.1643143  25.6752110  45.6430855  63.3303490  26.6058483
  46.0295982  63.8170662  25.2257404  15.2361135  56.9463043  31.0268688
  15.3887758  57.4683228  31.8145370  14.2871180  56.9699478  30.9040661
  84.6338120   4.3876972  -0.0642750  85.0793304   3.5417440  -0.0183568
  85.1716080   4.9710035   0.4712216  43.7498512  68.0908661  68.2339020
  43.4605751  68.9223175  68.6097260  44.5282898  67.8573761  68.7396164
  71.0937653  16.2347908  34.0164642  70.5640564  16.6170540  33.3168106
  70.9620590  16.8191090  34.7630997  29.7987595  30.0329494  71.1521454
  29.5424042  30.9456177  71.0196762  29.6065178  29.6065388  70.3170166
  11.8748465  68.4872894  40.6959038  11.3852568  67.6653442  40.6653900
  11.3266897  69.1104279  40.2189789  23.6933079  34.6805382  23.8691769
  22.8866463  34.4456940  24.3278465  23.8387775  35.5991440  24.0955105
  70.5178528   1.2605866   8.0120726  71.4545593   1.2311137   7.8172851
  70.1269684   1.6804786   7.2458248  16.2368565  56.8281898  53.6144600
  15.9580641  55.9805069  53.2681389  16.0950623  57.4403000  52.8923416
  50.4608803  68.8772659  25.6086159  51.2603760  69.0563965  25.1136932
  50.6844139  68.1289978  26.1621094  74.8205185  16.4246597  19.1320000
  74.9679108  15.8735743  19.9006424  73.8784027  16.3668327  18.9729328
  24.4553795  41.6771774  12.6996660  23.9707184  40.8925095  12.4434814
  24.9316788  41.4176636  13.4883518  11.6437044  56.9624100  62.4202232
  11.9397974  56.5496788  61.6089211  11.0435772  57.6508217  62.1335716
  36.3158569  46.0996590  78.7865906  36.3995171  46.8973656  78.2641983
  36.3214149  45.3906021  78.1436005  17.9901981  60.2848892  23.9718246
  17.4090366  59.9567070  23.2856903  18.1452694  61.1997910  23.7370090
  10.5189152  15.8698244  13.5323191   9.8167849  16.5068321  13.4001579
  10.1526928  15.0418091  13.2216702  42.5503883  49.0356216  24.9257717
  42.5591927  48.7347832  25.8344250  43.1400986  48.4356689  24.4691162
  59.7215805  31.6409111  14.4268465  60.4930458  31.0743504  14.4358463
  59.8393593  32.1936684  13.6543055  30.7003231  43.5773544  25.8206177
  30.9773140  44.3489838  26.3146801  31.3063602  42.8883133  26.0929661
  62.1297073  54.5056076  33.0840797  62.1177368  53.5572357  33.2132301
  62.2898064  54.6177216  32.1470451  63.5518799  33.7402382  37.3968658
  63.5305061  33.0979042  38.1062202  64.0752335  34.4627609  37.7436943
  74.6724777  24.6049995  24.8809013  75.0679016  24.4525490  25.7391739
  75.2939148  24.2248974  24.2599602  74.3916550   3.3504078  85.1421280
  74.0433655   2.8127887  84.4308624  74.4980011   2.7412803  85.8728027
  20.4944954   7.0348153  63.8665466  20.6793537   7.1767797  64.7949371
  19.6659546   6.5555701  63.8578606   3.4433112  28.6079006   8.8731441
   2.6904404  28.0328732   9.0101137   3.2475214  29.3869381   9.3937187
  68.2131577  23.2618675  33.5540962  67.6932907  23.7139225  32.8895569
  68.8346024  23.9216938  33.8617783  27.1820221  52.0529747  58.0575218
  26.5607452  52.0706253  58.7854881  26.8609524  52.7215042  57.4523659
  78.5544586  45.1701546  29.5375481  78.7850800  44.6571960  28.7630043
  79.3021240  45.0648651  30.1258888  76.2256622  44.5285683  27.1659584
  77.1198044  44.2128601  27.0352631  75.8704300  44.6148834  26.2813187
  58.8906517  58.8974991  57.6499481  58.6648369  59.7253532  57.2258072
  59.8409729  58.9352112  57.7581253  55.3468170  11.4390430  44.5741005
  55.2772789  11.7209558  45.4861984  54.8815651  12.1132393  44.0788918
   5.2426567   4.6025147   4.0869932   4.8916531   5.2934208   4.6488447
   6.0356722   4.3088646   4.5354662  38.7966652  70.8123856  69.6502914
  39.4659691  71.1874542  70.2226486  38.7208214  71.4371033  68.9290390
  53.5571594   8.8388758  65.0577545  53.0623741   8.4020710  64.3644867
  53.7800369   8.1383295  65.6707687  15.3111887  38.3143501   7.9777026
  15.7657423  38.6307602   7.1969981  14.5107536  38.8377571   8.0174484
  60.3947639  67.8288269  18.7634411  60.6024170  68.7630463  18.7818432
  61.0900803  67.4187393  19.2778358  79.2961273  59.5278969  45.4858627
  79.5678940  59.1519051  46.3231201  79.6552963  58.9324760  44.8280640
  54.6665154   3.5228655  28.0534496  54.6637192   3.8086121  28.9669991
  53.7421265   3.5033765  27.8057575   7.0697980  59.8600502  59.7559357
   7.4304142  59.6546516  60.6184883   7.0734339  60.8164253  59.7163620
  37.8066139  51.1022911   4.9812117  37.5336685  50.6571922   5.7834692
  37.7877426  52.0327187   5.2052321   2.4421239  67.7756958  63.3720932
   3.1837943  67.2221985  63.1275558   2.2506306  67.5330658  64.2780151
  83.2295990  53.1734390  87.5033035  83.6074982  53.5429840  86.7052612
  82.3721008  52.8453445  87.2326050  32.9183617  68.3949280   4.1517501
  32.1043625  68.8512726   4.3647852  33.0032730  68.4870071   3.2027807
  10.1225758  24.9329166  74.5903854   9.2750368  24.4912033  74.5374756
  10.6896524  24.4343243  74.0021133  83.0895386  53.2526817  12.7526913
  83.1329422  54.2084808  12.7809114  83.5405273  52.9688606  13.5478563
   5.4511046  44.8418770  56.4402428   5.4030476  43.8930283  56.3235970
   6.3879676  45.0286255  56.5006104  48.3733368  59.9522667  22.7441273
  48.7707443  59.1282578  23.0257416  47.5712891  59.6893768  22.2926407
  13.0146761  69.3934326   1.1364847  13.1523485  70.2290268   1.5826586
  12.0641012  69.2815475   1.1254970  12.3555574  44.9118614   5.5304379
  12.3531847  44.0044441   5.2257786  11.7625790  45.3668365   4.9324369
  72.1968079  22.1701908  28.3025913  72.3434906  22.6323586  27.4772949
  72.3054199  22.8418865  28.9758377  65.3704834  46.3930397  47.7818222
  65.8018875  46.6885452  46.9800758  64.4593582  46.6677322  47.6787567
   0.9397410  62.9081650  29.4620838   1.8963214  62.9408531  29.4512634
   0.6742053  63.7707481  29.7809467  51.1685219  55.9788017   6.1773338
  51.2960625  55.7760468   7.1040783  50.5237198  56.6862221   6.1734633
  25.7523079  39.3086357  58.0769844  25.2171650  39.0228081  58.8173599
  26.4545288  38.6602745  58.0245895  29.4198933  67.2702179  74.5864029
  28.6717682  67.8560715  74.4709778  30.1723232  67.8560638  74.6692657
  55.9030266  50.9917068   5.1760931  56.2210617  51.8597794   5.4241590
  54.9875107  50.9832153   5.4553604  73.6347504  37.0559616  29.7211418
  74.1449509  37.7942505  29.3881969  74.2322998  36.5996437  30.3135433
  19.3676777  30.5453472  87.6080627  19.6315498  30.1368084  88.4325027
  20.1696033  30.5710735  87.0860672  42.5281754  67.2205658   3.3064535
  43.2465858  67.1492615   3.9349728  42.2473145  68.1336746   3.3663201
  20.9147511  37.1547127  17.5292034  20.2060280  37.5217133  17.0007591
  20.4938393  36.4748840  18.0554161  66.1922913  67.3595810  77.2007141
  65.4433517  67.5935593  77.7489700  65.9895248  67.7367172  76.3446198
  61.4170609  15.5032244  87.0102692  61.3715210  15.4923992  87.9663239
  62.3143806  15.7741814  86.8162842  44.3209915  17.4537945  67.7933578
  44.9166336  18.0593491  67.3520584  44.6558418  17.3980560  68.6883469
  21.6571922  55.0292397  23.2029285  20.9963627  55.5764885  23.6272526
  21.8244038  55.4615784  22.3654575  79.1723709  18.8066692   1.3801849
  78.3989563  18.3496361   1.7106165  79.3746490  19.4542103   2.0554657
  32.0595894   2.5418441   8.7329311  31.3951530   2.8710861   8.1276550
  32.7782974   2.2576883   8.1681795  46.0593719  28.2612514  75.5041199
  46.8535957  28.3552189  76.0300522  45.8899231  27.3192425  75.4923935
  48.0715752  50.1788635  11.6322708  48.9002266  50.6469193  11.7346878
  48.0229263  49.9797707  10.6972694  44.2102890  61.6511002  46.9803352
  44.1142273  62.4748230  46.5023346  43.6545792  61.7561150  47.7526016
  71.8737946  40.8911247  88.3313904  71.4093552  40.2717552  87.7684402
  72.6832581  40.4386711  88.5686188  71.9300461  34.9445648  75.3701477
  71.8129044  34.1865158  75.9427490  72.7713013  34.7919197  74.9397736
  66.5375595  56.5771828  15.6339846  65.8778305  55.8994560  15.4867630
  66.1569366  57.1394081  16.3087139  45.7972946  37.6256332  16.3963108
  46.1667519  36.7708817  16.6179600  45.9748344  37.7281418  15.4613228
  10.3442011  40.7691727  73.4170380  10.9755783  40.1384506  73.0709457
   9.9254169  40.3129425  74.1469040  60.7009163  42.6970100   4.3609409
  60.9300461  41.7836952   4.1889267  60.9881592  43.1674805   3.5783908
  38.2352142  49.7250862  83.6774445  38.9121513  50.3878784  83.5407181
  37.5775604  49.9127197  83.0077362  82.1581802  67.7701416  80.8021774
  81.6825104  68.5018082  81.1954269  81.6783142  66.9921570  81.0862503
  -0.0460270  29.0075436  36.2061806   0.5579827  28.7064381  36.8849602
   0.1417701  28.4475822  35.4529152  52.9010391  46.3789482  63.1594467
  52.8517838  45.4577179  62.9042168  53.7059364  46.4423256  63.6736031
   8.1938467  69.3552628  83.7308502   8.4103947  70.2701035  83.5508270
   9.0202503  68.9650650  84.0155182  41.5507011   8.8870659  22.7280674
  41.7815552   9.6134071  23.3071747  40.6362381   8.6958942  22.9364986
  65.8872986  13.4117584  83.9467392  65.8514023  12.7934046  84.6765213
  66.8151855  13.4562225  83.7159042   8.5268888  32.6309700  87.5517044
   8.4471302  31.8102875  87.0655518   9.4023609  32.9526825  87.3365707
  83.2930984  51.8349228  10.3962536  83.3423920  52.3112907  11.2250328
  84.0856781  52.0916405   9.9249287   6.0740743   1.3579873  75.7987595
   6.5349598   0.7747707  76.4018173   5.7333465   0.7778237  75.1179199
  50.6460915  68.5679169  10.6719503  50.7162285  69.0413208   9.8429775
  50.8300629  69.2275162  11.3407621   4.0459933  56.5908661  45.0412979
   3.8879600  56.0819092  44.2461739   4.9995685  56.6350098  45.1118469
   5.9197750  41.4962006  85.1593933   5.1256108  41.8108711  85.5912704
   6.5862918  42.1467743  85.3801575  61.8162384  18.1031914  17.9811554
  62.7642937  17.9915733  18.0515842  61.4609756  17.2246189  18.1158047
  15.4363718  40.5518799  16.3328094  14.7645016  39.9114075  16.5665188
  15.9937811  40.0951920  15.7027597  81.1539536  38.2667999  70.3977203
  81.6924133  37.5768509  70.7853546  80.4581070  38.4157143  71.0379257
  70.9853363   0.0121496  59.6904907  71.8125381  -0.3956583  59.9467278
  70.8548660   0.7118338  60.3305321  22.9891167  56.3263855  20.7117634
  22.8752785  57.2752571  20.6577740  22.6101589  55.9930305  19.8984394
  61.7313881  28.0143204  26.3166065  62.3985138  28.5682583  26.7219810
  62.2271309  27.3144417  25.8915882  62.2662621  25.6390991  19.7334538
  62.0135422  26.2377834  20.4362621  61.9179726  26.0425148  18.9383545
  36.4154549  68.7164688  78.6264725  36.8994370  68.0398407  78.1530151
  36.3057632  69.4225235  77.9895325  49.0360565  18.6056480  20.1647282
  48.8830109  17.6691475  20.0391273  49.4805794  18.6643887  21.0104122
  10.8376923   6.1716986   2.5094376  11.6073189   6.1146560   3.0756998
  11.1084814   5.7497802   1.6940298  10.3768196  51.0218010  78.6391220
  10.1568327  51.8579292  79.0498810  11.2771225  51.1343155  78.3341141
  47.8655052  40.2255745  33.0903664  47.0672531  40.5772209  33.4845314
  48.4987869  40.2069130  33.8078842  73.5125885  44.4741364  46.3798027
  73.8178635  44.5285645  47.2853851  72.8730545  45.1818123  46.2996941
  75.4934769   9.3569994  48.1715126  75.6384964  10.2918692  48.3171768
  75.0573654   9.3119955  47.3206253  12.4670382  54.7724571  46.9183693
  12.0477400  55.1525269  47.6903610  13.3861103  55.0289154  46.9943199
  43.0461807  44.1652870  54.1671104  42.4875298  44.9002342  54.4200821
  43.3528481  44.3889160  53.2883759   0.2676873  41.2104607  64.1237488
   0.1143663  41.9830513  64.6676483   0.7598015  40.6141167  64.6880417
  22.5947075  39.3500557  84.8194733  21.6974163  39.6591606  84.9441833
  22.4996986  38.4264412  84.5867996   0.0895515  27.0738945  61.1465645
   0.1729032  26.9054489  60.2079964   0.2080561  28.0199184  61.2315750
  58.9288063  48.7847176  50.1937904  58.6582565  49.6972580  50.2952919
  58.1083717  48.2918625  50.1792221  71.9347382  15.9689665   8.1135530
  72.6604156  16.3662796   7.6321335  72.3457031  15.5715895   8.8812971
  25.5969505   1.0006009  44.8729362  24.7444153   0.5670347  44.8350563
  25.9817200   0.8482001  44.0098228  72.3561935  10.5889845  84.2837448
  73.2746811  10.8521214  84.2257156  72.1817551  10.5338011  85.2232971
  53.2754898   7.1802797  43.0874748  52.8733368   7.5451202  42.2991905
  53.5608559   7.9454098  43.5868492  22.1141262  38.9566307  88.8854065
  21.6098347  38.5816574  89.6074295  21.9623966  38.3602867  88.1522064
  82.1679306  16.9504871  21.0151634  82.2423248  16.4145718  21.8047771
  83.0692062  17.0531254  20.7095585  20.0038261  50.9690590  34.8828354
  20.6738186  51.6452713  34.7824402  19.9264450  50.5775185  34.0128098
  26.5098877  32.2391853  20.0573425  26.2835293  32.1312943  20.9811134
  26.7110558  33.1706619  19.9672451  56.4886856  49.2640762  19.2957878
  56.2038994  48.4398460  18.9011097  57.4442062  49.2080383  19.3042240
  82.0901642   3.1464353  10.6355581  82.8540039   3.3136959  10.0834713
  82.4568405   2.9351387  11.4941235  46.9215584  48.5472260  33.0868645
  47.0998077  47.8021812  32.5129623  46.8057823  49.2867737  32.4902954
  11.2459602  11.4755154  26.5654850  11.8126478  10.9556675  25.9955254
  11.1134586  10.9255257  27.3376179  55.4115410  17.6134777  54.7847557
  55.7769356  16.8471489  55.2268639  54.4778557  17.4196053  54.7018204
  49.7259445  46.9283028  48.9743652  50.1800499  46.2657928  49.4950371
  49.8401299  46.6407356  48.0685539  56.8798752  57.9117966  16.3587952
  57.1493607  57.1698074  16.9001503  56.0256729  57.6563950  16.0104618
  83.4359665   4.4371128  28.5590038  82.6092148   3.9770505  28.4138889
  83.2090149   5.3645658  28.4914951  83.7603531  35.7330360   2.5039177
  83.1803055  35.2800026   3.1159165  84.1335983  35.0346870   1.9661158
  69.3423843  66.6672592  12.8582878  69.5879669  67.1094666  12.0456543
  70.1542282  66.2647324  13.1667089  66.0882034  32.9541893   4.9284277
  65.9040298  33.6795082   4.3315840  66.9662170  32.6607819   4.6850481
  41.5166779  60.2511406  70.0645752  42.0974731  59.5058937  69.9112244
  41.1620598  60.1020432  70.9410706  17.6914921  21.2846661   2.3670413
  18.4970245  21.4519653   1.8777963  17.9863453  21.1058693   3.2599719
  21.4143448   4.4390640  73.3262024  21.7329006   5.3209782  73.5185089
  21.3981094   3.9995821  74.1763916  49.8770790  46.0236397  37.8668518
  50.0002213  45.9463882  38.8129501  49.6026649  46.9310379  37.7343407
  74.7443542  53.1229858  23.6817284  75.2420120  53.1111259  22.8641548
  74.1892014  52.3445930  23.6355114  44.6786461  13.0626411  10.0733004
  45.4869766  13.0747852   9.5607738  44.0006104  12.8132858   9.4453468
  56.4499321   8.5220070  81.5558701  56.8350563   9.2240763  82.0802841
  56.2190895   8.9412746  80.7269211   8.5795164  47.1250763  69.1425247
   8.2190180  46.8950081  68.2861710   9.1931791  47.8368225  68.9606934
  80.9407806  15.4566336  38.7069855  81.8719177  15.2363787  38.7334862
  80.7379761  15.5279350  37.7742348  15.8547535  54.9743958  12.0197105
  15.7617702  54.0279388  11.9110498  14.9592915  55.3096809  11.9754333
  53.7265167  46.5201187  27.5620422  53.4108925  46.2201920  26.7096004
  53.8245430  47.4669685  27.4615479  63.6962357  46.0643883  41.4516411
  64.3425369  46.5719337  40.9608002  63.6088791  46.5288925  42.2840080
   6.4901114  15.8040352  65.5172882   5.7764201  16.3464794  65.1816788
   6.9631987  16.3771076  66.1206207   4.7457809  12.8576717   1.4837757
   5.6557541  12.7866564   1.1954397   4.2866883  12.1718111   0.9989451
  65.5256729   8.0442648  25.5568237  64.6587830   8.3510685  25.8225403
  65.7545853   7.3804259  26.2073231  51.9428864  53.8579483  25.4699955
  52.5674973  53.3434677  24.9587193  51.8932457  53.4061394  26.3123970
  52.1342010  19.9087925  39.2283707  51.6408577  20.0530338  40.0358582
  51.6351318  20.3733597  38.5565529  47.3428230  69.8199158  59.8462143
  48.2944412  69.7490540  59.7711411  47.0725288  68.9959793  60.2515564
   4.8386259   6.7453699  57.7937431   3.9671640   6.5428548  57.4534874
   4.6836090   7.3992691  58.4753723  75.0882111  18.6362915   2.2962153
  75.0744171  19.5931892   2.2765384  74.2728195  18.3939762   2.7351322
  53.9382744   0.5146431  78.1638412  53.5832024   1.1863867  77.5816803
  53.6976967   0.8078441  79.0427017  64.1320648  47.9486618  15.9887400
  64.6190643  48.7293625  16.2525005  64.6092224  47.6138725  15.2294827
  63.6995811   8.9433632  33.2972755  63.5992851   8.0917873  33.7227058
  63.6177483   9.5779047  34.0092392  66.7196579  53.7606125  39.3609009
  67.0442810  54.6154366  39.6439743  66.0992508  53.9601784  38.6598282
  78.2325439  56.2167740  69.0970001  79.1256027  56.4049683  68.8084335
  78.1501312  55.2665138  69.0167007  21.8841267  60.5671730  86.0521545
  21.9119034  59.6382141  85.8230362  22.2045078  60.6012421  86.9535065
  48.6958504  63.7368774  45.3236313  49.4310265  64.2863617  45.0519447
  47.9934196  64.3566818  45.5202599  72.3975525  56.3075867  68.0951920
  71.4613495  56.2178268  68.2732162  72.7829056  56.5256348  68.9438324
  80.9212952  40.8956833  66.4055939  80.8537979  41.7283592  65.9383392
  80.7656403  41.1222382  67.3224792  77.0788956  57.0926132  41.7809601
  76.6892319  56.6562119  41.0233688  77.1025543  56.4182549  42.4598656
  32.0969696  47.6631508  21.9227409  31.8675461  47.1890450  21.1234779
  32.9691582  48.0172615  21.7491760  52.9897842  34.0970497  59.6793747
  53.8255920  33.6358910  59.7500305  53.1631737  34.9644737  60.0450821
  24.3526421  63.6990852  66.8326416  24.8713779  62.9776649  66.4766998
  24.4276295  64.3936539  66.1782837   0.1347699  35.0832863  42.8491554
   1.0253836  35.1327324  42.5018883  -0.3942980  34.7837639  42.1098289
  39.2273293   0.8733384   6.0367885  38.9709053   0.5268205   6.8914251
  38.6546860   0.4245692   5.4147615  16.2929783  67.1916656  85.4328308
  16.1778336  68.1417923  85.4174881  16.8392048  67.0042419  84.6694565
  71.4952774  18.6841888  21.5769615  70.8822708  19.4039402  21.7266960
  72.2378922  19.0910015  21.1305809  62.9142342   9.7214699  48.9728508
  62.7744446   8.7799520  48.8716774  62.4386330  10.1142378  48.2408867
  25.5737801  19.4071980   6.8976173  25.0761013  19.5224648   7.7070994
  26.1946087  18.7061424   7.0959187  55.0724907  52.2031250  74.5998001
  55.6099472  52.9934883  74.6516647  54.2003174  52.4882660  74.8722763
  53.5640640  54.6656876  77.6582565  54.1759529  53.9830475  77.9336243
  53.0423203  54.8490181  78.4395447  45.0248642   1.9306937   0.2504208
  44.4001427   1.2218219   0.0972585  45.8264427   1.6419524  -0.1858496
  86.6421127  53.9264717   8.4469719  87.4978561  54.2945290   8.2268171
  86.3153915  54.4850845   9.1522636  70.0470428  17.5761738  23.6445255
  70.4823456  17.7076740  22.8022385  70.3667068  18.2920418  24.1936874
  75.9211731  16.2937260  16.6176414  75.8477631  16.2908459  17.5720177
  75.1863022  15.7578402  16.3192749  48.6173706  21.8013802  73.0311966
  49.2309952  21.0801010  72.8917236  49.0919189  22.5795116  72.7387161
  73.7992554  60.3992500  58.7482071  73.5683365  60.3601112  57.8200989
  74.7000732  60.0776482  58.7846603  79.0268173  15.6893091   4.7098393
  79.0249329  14.7942123   5.0489998  79.6549835  16.1537056   5.2629871
  30.4688625  17.3756294  82.0198364  29.9196110  18.1013145  82.3163757
  30.9918766  17.1421642  82.7867661  32.6976318  66.1519394  37.8030434
  33.5650635  66.1579666  38.2077065  32.3520050  67.0298691  37.9642982
   3.8486636  37.5768356   8.7900190   4.6774445  37.3140984   8.3896141
   3.5964706  36.8288231   9.3314133  10.6618156  67.5563812  23.3897915
  11.2907114  68.2507095  23.1932335   9.8158674  68.0027695  23.4263573
   6.5852709  25.1581097  21.3981609   5.6724415  24.9493599  21.5966492
   6.7291932  24.7957821  20.5239544  45.0330505  59.9743309   1.8847263
  44.3045387  59.6035614   2.3827560  45.6208420  60.3317528   2.5502956
  70.7817383   3.2596188  60.3504448  69.9265213   2.9164195  60.6093712
  71.1973267   3.5136886  61.1744385  71.4682541  26.5631371  81.3809204
  71.3396225  25.6148205  81.4005051  70.7314148  26.8942318  80.8674240
  75.1318970   8.0067387  40.3955421  75.7588882   7.5145407  40.9255066
  75.2595215   8.9182224  40.6584892  27.5968342   6.2645345  58.1233597
  27.1664944   6.6088138  58.9059944  28.3851070   5.8334246  58.4535141
  52.8551102  58.7936325  50.1531105  52.4019547  58.4459305  49.3850021
  52.1522446  59.0719452  50.7402687  61.5201378  66.2091522  76.7822113
  60.6181374  66.4304352  77.0138550  61.4658775  65.8977432  75.8787079
  81.3698349  65.8934097  68.5197906  80.5512619  65.4882584  68.2333832
  81.4777832  65.6013260  69.4249191  43.2055511  18.2210159   5.6681166
  43.3245277  17.3935471   6.1343498  43.2898064  17.9890919   4.7432685
   1.6020819  66.6242676  40.0292282   2.4425759  66.9390793  40.3619308
   1.1604193  66.2629776  40.7977562  75.2962341  20.4952221  25.3563423
  75.8332214  19.7090092  25.2576599  75.2851486  20.6609306  26.2990246
  55.6344566  27.1920300  18.1178322  55.3930092  27.8043652  18.8128014
  55.6566048  27.7269325  17.3243446  52.3519402  64.5822372  31.7721291
  51.6720276  64.3480682  32.4038811  53.1376686  64.7123642  32.3030968
   8.1978893   4.7693753  80.2715530   8.2300749   3.8458636  80.5212021
   7.2832341   5.0205317  80.4002380   4.5044208  49.4718781  19.6313992
   5.3660612  49.1434364  19.3746243   4.3256416  49.0456009  20.4695854
  54.8653564   2.7636526  75.4615631  55.7747688   2.4669414  75.4956436
  54.6759682   2.8485215  74.5271301   7.2808208  44.2272148  41.1430054
   6.4246645  44.4748383  40.7938461   7.0874667  43.8305588  41.9924202
  83.4102936  46.6001816   9.2750921  82.7319565  46.9967690   8.7284632
  84.1327438  46.4261932   8.6717443  56.7031593  47.0914841   2.1528635
  56.8712463  48.0248528   2.0232384  57.4520493  46.6546555   1.7471846
  62.2307434  58.2818146  66.1239929  62.2546005  57.4244080  66.5488663
  61.2990952  58.4926071  66.0620956  24.5716610  60.8217697  18.2821884
  24.7805500  61.5020790  18.9223270  25.1381283  61.0139809  17.5349255
  64.0169296   0.9949327   3.3042650  63.8188286   1.6032302   2.5922525
  63.1903572   0.5409819   3.4684026  74.3733749   4.5055194  57.2297287
  75.3019028   4.3023701  57.1165962  74.0083847   4.4578609  56.3461304
  73.0503159  30.2236156   4.8054938  73.8580933  30.6705303   4.5525208
  73.1027222  30.1555386   5.7588305   3.6538072  63.7957993  51.3515968
   4.0301170  64.3391571  52.0439758   3.0516067  64.3792572  50.8898964
  68.4759979  51.7693405  82.1618347  68.9934158  52.4073410  82.6532211
  67.9040375  51.3693352  82.8168869  18.4012718  50.7882042  30.0833340
  19.1807537  50.2393494  30.1693363  18.1240330  50.9533844  30.9844913
  59.3788109  31.7090168  20.6755390  60.0908546  32.3239174  20.4991264
  59.1261597  31.3811321  19.8124676  77.9269485  65.5933609  35.7525291
  78.1112137  64.7468872  36.1596680  77.0370255  65.8057938  36.0338593
  23.0736122  13.0468998   0.1536910  22.8519249  13.9450426  -0.0921256
  22.2863750  12.7155943   0.5858095  13.6580648  70.0233841  52.4506569
  13.7653236  70.0265884  53.4018211  13.6812897  70.9479370  52.2038879
   8.0875788  65.1459579   0.8875715   8.4799051  64.2822800   0.7596346
   7.7571249  65.3893890   0.0228327  75.8225250  19.9068089  88.3178329
  76.5011978  20.4226418  88.7532043  76.0260010  19.0002804  88.5481262
  73.2589645   9.5924768  69.0439682  73.7791824  10.3875341  68.9278488
  72.9609222   9.3703022  68.1619034  54.9971237   5.0741892  33.7009583
  55.1947861   6.0095057  33.7493820  54.0560799   5.0193367  33.8672791
  39.4578781  32.6893082  16.2758064  40.0153427  33.0618477  16.9589462
  38.7316093  32.2870750  16.7522202  63.8035049  38.9942436  83.2267914
  63.3155708  39.8176956  83.2177124  63.1884346  38.3553429  83.5869598
  66.2153473  27.3626232  49.1455841  66.7116776  27.3956814  48.3277855
  66.2801208  26.4504433  49.4283638   5.5210738  20.5989113  78.2001038
   4.7908373  20.9176826  77.6696548   5.4121051  19.6479950  78.2108612
  46.6484108   3.3007650  80.2262115  47.2626534   2.6196492  80.5000992
  46.9460526   3.5544665  79.3525543  51.9081993  55.6655426  80.6634598
  51.0393600  56.0361557  80.8183746  51.8176003  54.7399216  80.8898468
  12.9742146  56.9518318  14.3460417  12.5927296  57.7672844  14.6712170
  13.7417898  56.8089561  14.8997993   3.0687516  50.4134293  48.9477234
   2.9850969  49.8341904  49.7051620   2.9426670  49.8394356  48.1921654
  35.3181343  56.6163216  21.8371124  35.0349960  56.1376419  22.6161709
  35.8735619  55.9967308  21.3640003   6.6585073  37.7188797  73.6683731
   6.6741405  37.3622589  74.5565262   6.9812975  38.6148872  73.7643356
  46.9151993  14.0276947  31.0293179  45.9758682  13.9212475  30.8791351
  47.2011299  14.6287785  30.3414421  28.5051441  22.6874847   7.6671729
  28.8402786  22.4807892   8.5396366  27.5681591  22.4989681   7.7196560
  62.1379852  34.0913506  27.4131203  62.5044899  33.2551956  27.1254520
  62.7358170  34.3921242  28.0974941  69.9654694  37.7527046  42.8149338
  70.1755219  37.7731514  41.8812904  69.7302246  38.6559067  43.0273438
  11.6099234  70.7467651  17.1871548  11.2990971  71.5965195  16.8748512
  11.9635592  70.9264832  18.0582905   8.2663460  52.2479286  86.7542114
   8.6889553  52.3285179  85.8991470   8.7618713  51.5626640  87.2026520
  22.2430153  66.1035004   6.3837161  22.8710766  65.3825760   6.3386097
  22.3918247  66.4973679   7.2433424  79.2417450  37.6369133  30.2936993
  80.1239014  37.4856110  30.6330128  79.3806381  38.0388107  29.4361343
  10.1285515  16.0943012  62.6915779   9.8451872  16.7327232  63.3460655
   9.5278940  15.3570127  62.8004189  33.5380898  62.9767227  74.3015137
  34.2693672  62.4751282  73.9411316  32.9238129  62.3129578  74.6150589
  47.5609055   8.0655928  61.1239891  48.3798370   8.5596466  61.0853767
  47.0090179   8.4637375  60.4508362  10.9990463  65.2185974  14.0906410
  11.7554169  65.7980118  14.1823587  11.3498020  64.4308090  13.6752033
  64.3049927  49.8910980  88.4960098  63.5005302  50.4082489  88.5364075
  64.1508636  49.1611862  89.0957642  43.0702286  37.4095917  70.6655579
  43.7548256  37.1074753  70.0686646  42.8648872  36.6437340  71.2017746
  53.0160789  50.9167824  64.8872757  52.0925140  50.8387566  65.1263809
  53.0202942  50.8747597  63.9310074  58.5918083  28.6518917  20.7335091
  58.2176094  29.3705921  20.2239265  59.5340309  28.8205166  20.7293320
  42.7533913  26.0929050  14.4966373  43.0096779  26.9036388  14.0570269
  42.9160881  25.4073658  13.8487186   3.5846970  25.3877678  57.0385551
   3.0275095  26.1073532  56.7419548   3.8786120  25.6556320  57.9092407
  70.0819855  45.0010300  79.0930939  69.5341797  45.2717247  78.3563004
  69.9065781  44.0651283  79.1908264  49.4982567  67.8213730  62.1207466
  48.5724487  67.6586838  61.9400635  49.9450035  67.0342102  61.8092461
  50.1671295  64.1312561  75.0030136  49.9248390  65.0438232  74.8456573
  49.3337860  63.6844139  75.1516876  52.6840897  26.5062351   3.3481567
  51.8850746  26.2635365   2.8802848  52.6401291  26.0145950   4.1682715
  35.1623726  42.6047897  15.7514048  34.9145203  42.2513428  16.6057339
  36.1104202  42.7243156  15.8075418   0.7748969  35.2830200  66.9593048
   1.5212131  35.7005196  67.3893509   0.4972420  34.6006737  67.5704880
   6.8715730  70.8658981  77.4220276   6.1504278  70.2505646  77.2895584
   7.2407227  70.6230621  78.2711334  65.8838120  28.0600357  75.3323135
  65.8476334  27.3121281  75.9285965  66.7122040  28.4922276  75.5401840
  37.1206779  63.3569145  54.4602966  36.7858620  62.4665756  54.5671997
  36.3376770  63.8946838  54.3422165  37.2162361  66.7825928  47.3673096
  38.0852051  67.1121521  47.5964661  37.3852234  66.0696030  46.7514191
  13.0118971  71.4718323  10.0669031  13.2696323  70.6561356  10.4963636
  13.7411919  71.6749268   9.4811440  45.8973885   3.1553900  72.3059998
  46.2678642   3.7180600  71.6260147  46.3582344   2.3225245  72.2050705
   0.4596841  52.6341057  43.8436470   1.0871738  52.9409142  43.1891556
   0.8403940  52.8962708  44.6818352  18.5978336  52.0894623  73.8198776
  19.2669373  52.3624268  74.4475861  19.0183868  51.3998680  73.3062363
  45.6048317  43.4206009  55.5024834  44.7991028  43.3564034  54.9897346
  46.2872696  43.0893898  54.9186974  20.3451042  45.8097343  87.8937531
  20.9337292  46.3034096  88.4647522  20.8880157  45.1037483  87.5429535
  24.8671303  60.2766457  21.3938160  24.1978321  59.6697922  21.0775871
  24.4748821  61.1431274  21.2861805  80.6393356  33.7680321  28.1883183
  80.1261902  33.9744987  28.9695263  80.7938461  34.6160927  27.7722054
  26.4003048  42.8049316   0.7037506  25.9564323  43.6170654   0.9479716
  25.8632774  42.1130142   1.0898647  67.6648865  58.0056953  13.5022984
  67.1574936  57.5232277  14.1549921  68.0806503  57.3260040  12.9718304
  11.7203770  53.1939697  26.2129478  11.0296497  52.6111336  25.8976231
  12.5000925  52.6403618  26.2552948  64.7238235   6.3679342  88.5341644
  65.3199615   6.8736219  89.0865479  64.8843155   6.6930494  87.6482925
  56.8146706  16.5856228  73.1524200  56.7537422  16.5251465  74.1057587
  56.6864357  15.6876411  72.8467789  55.3694534  12.7005730   2.7081194
  55.8313637  13.0518589   3.4693489  54.5885353  12.2842607   3.0729208
  61.0904770  20.4261971  70.3594360  61.3105850  21.3395729  70.1763229
  61.1878281  20.3418865  71.3079376  64.2156982   7.3820615  44.2882462
  63.7047691   6.8616343  44.9081993  65.1013794   7.3855162  44.6512680
  65.9447021  70.9647446   4.9633164  65.2961197  71.4010010   4.4108214
  65.4254227  70.4666214   5.5945435  29.9218960  47.2742043  12.9299221
  30.5107460  47.7577324  13.5093069  29.0773888  47.2888794  13.3802814
  80.3152237  37.5001717  18.4040279  80.9876633  37.3271332  17.7451534
  80.2097702  36.6669350  18.8631916  30.3353310  67.5906525  48.3643723
  29.5156517  67.7582016  48.8294373  30.8058529  68.4234314  48.4006729
  28.8451385  12.2402563  85.2146149  29.5310764  11.5751877  85.2729568
  28.7391739  12.3933210  84.2756958   1.5245817  53.6194344  25.7256317
   1.4321712  54.1603241  26.5099354   0.7272743  53.0902061  25.7043552
   5.6952648  61.4855728  88.6184235   5.6928353  62.4243927  88.4317551
   6.3253870  61.1195908  87.9977570  13.6402807  53.4570084  80.4069214
  13.8932095  53.0725670  79.5676041  12.9499903  54.0821495  80.1857224
  67.3475113  50.3233452  29.4056168  66.4362030  50.1925621  29.6676254
  67.7360229  50.8166008  30.1281052  44.4641075  63.8717346  12.2259340
  44.5082016  63.8277206  11.2707644  45.3787956  63.8936119  12.5071726
  31.2416630  56.1743355  25.8343716  30.8154945  56.8082123  26.4112720
  31.2096825  55.3497353  26.3193874  32.0304871  49.4858398  67.8484879
  31.5634785  49.4119301  68.6807556  32.7656097  48.8784485  67.9315796
  45.9121704  43.6850090  32.5205879  45.0136414  43.6639671  32.8498802
  46.4559898  43.5841637  33.3018188  66.6961594  12.8290606  20.4610214
  67.0991974  13.4443712  19.8484974  65.9512329  12.4668579  19.9813042
  21.4321976  65.3361359  83.8415298  20.5755348  65.5410538  83.4668732
  21.3407936  64.4432220  84.1740723   5.0670099  57.3097992  34.9496422
   5.8006611  56.7873878  34.6254883   4.4448867  56.6654510  35.2872963
  16.9681015  37.9532661  18.4363194  17.2648659  37.4096718  19.1661625
  17.1084023  38.8519516  18.7344952   0.3787789  30.3112621  40.4106140
  -0.3784394  29.7719574  40.6386528   1.0999674  29.6876945  40.3252869
  81.3030014  49.7136078  86.7674713  80.7108994  50.4655952  86.7801971
  82.0326385  49.9925957  86.2142792  18.2870445  45.8495750  81.6001740
  18.0897198  45.2501183  80.8804855  19.2315388  45.7647438  81.7304230
  75.0062790  11.1222353  57.9415283  75.3137054  11.1174660  57.0350571
  74.3335495  10.4418945  57.9698639  46.7702179  21.3079796  84.0496216
  47.1324692  20.7066841  83.3988876  46.0597343  20.8159161  84.4610977
  47.2115517  14.8473387  63.8901596  47.5605659  14.6203346  64.7520676
  47.8071404  15.5201111  63.5601883   4.3956904  65.7484818  81.8467331
   3.7059422  66.3220444  82.1806641   5.2098632  66.2070694  82.0542221
  32.4205437  65.1500778  77.3347702  32.6429214  65.7402878  76.6147461
  32.2315674  65.7314224  78.0713501  54.4142342  48.9853096  59.6574936
  53.5127602  49.0968819  59.3556213  54.4210701  48.1258888  60.0788956
  59.4033585   5.5995426  55.0968857  59.6315117   5.0200768  54.3699760
  59.4956818   5.0527802  55.8771133  11.1808147   4.1055021  24.8361282
  11.1657543   4.8202591  24.1996326  10.4784966   3.5192318  24.5545826
  71.2569427   4.3866105   7.1405916  70.8317947   4.6268873   6.3173361
  70.5377197   4.3065624   7.7671285   8.4553032  32.0577354  54.6710243
   9.3000822  31.9798374  54.2277260   8.6777525  32.3042259  55.5687943
   1.4500906  47.9084435  74.2497864   1.0215058  48.7607155  74.3283997
   1.3243538  47.4973259  75.1050110  29.5792484  11.5570240  71.6838684
  30.0126858  12.3840084  71.8947296  29.7858028  11.4067535  70.7613754
   8.6601572  48.4727058  82.3422623   8.3342648  49.3456154  82.5614777
   7.8703227  47.9489937  82.2076492  15.9653111  50.7949791  29.3174438
  15.7661066  49.9975662  28.8268509  16.9203873  50.8051872  29.3803577
  70.9896774   9.2235508  33.1565323  70.5819931   8.7727814  32.4170494
  71.9291306   9.0915890  33.0290718  56.5765572  40.5513916  13.3701429
  55.8579636  40.0930672  13.8058043  56.1721115  41.3381042  13.0044422
  16.2350559  63.0047417  58.0377159  16.7730865  63.1299820  57.2560081
  16.5661297  63.6501541  58.6622696  64.4726562  17.5263500  55.8889923
  64.7828903  17.6259995  54.9889641  65.1658707  17.0335331  56.3281021
  76.2043991  37.4549751  11.3046064  75.4778595  37.1609917  10.7551117
  76.0722961  37.0032997  12.1381359  64.5975418  54.8008537  15.3560724
  63.9899368  54.6528816  16.0807457  64.1180573  54.5135918  14.5790234
  49.5625458  67.6673431  84.1197586  49.9019127  67.4982376  83.2408600
  49.2001076  66.8276443  84.4022217  78.7647476  26.3837128  55.6947021
  79.0322876  27.2959633  55.8063011  79.1287079  26.1293926  54.8467140
  78.1577225  22.8335514  18.3229198  78.0832138  23.5403080  17.6816902
  77.2811356  22.4509220  18.3605824  43.1004982  51.3596153  81.3432388
  42.6225166  52.1888275  81.3301697  42.5351753  50.7650375  81.8363113
  46.3101273  50.9607048  72.5144119  46.5313835  51.8738747  72.6971512
  46.5986443  50.8201981  71.6126099  24.1686153  36.6235275   4.5378003
  24.3140125  36.5596390   3.5938673  23.7608013  37.4808655   4.6598320
  83.7049179  65.1039886  72.0125198  84.5280380  64.7329483  71.6946564
  83.9487305  65.9590530  72.3670120  76.8203506   3.3377469   1.3049641
  77.3004532   3.6638017   2.0661619  76.1203232   2.8002746   1.6755248
  20.8712921  49.4701118  12.3140669  20.4450684  49.9401283  11.5973740
  20.2586079  49.5426636  13.0459032  30.0997162   2.7609549  44.3022232
  30.6921768   3.0812199  44.9824104  30.4145031   3.1723211  43.4972916
  44.8432617  32.9385910  19.8547039  45.1422539  32.0411758  20.0012627
  44.0230675  33.0007401  20.3442478  35.7904358  69.3371429   1.0353786
  36.7097092  69.4549332   1.2747463  35.7274246  69.6879196   0.1469989
  10.2593517  56.8214645  18.3432961  10.4822836  57.5864410  18.8737144
   9.9901648  57.1850967  17.4997673  10.6935520   4.4167986  77.8158112
  10.5658388   5.3537517  77.6673508  10.3208199   3.9983468  77.0397949
  38.8484726  10.7625151   4.9120040  38.7075500  11.4765615   5.5337038
  39.6442032  10.3294363   5.2210145  20.5592117  49.8150749  55.9311638
  20.3156548  49.2331009  55.2112923  21.2939987  50.3244133  55.5892639
  43.3181725  14.4797392  85.5364685  43.4093475  13.9198990  84.7654343
  44.0274620  15.1172857  85.4547653  20.5476665  22.5561714  10.4913216
  21.0636177  23.0824604   9.8805466  20.2451115  23.1814537  11.1498909
  78.6557312  20.0584984  48.0956955  78.6330185  20.6973667  47.3832626
  78.2599030  20.5140915  48.8386574  59.9367790  52.3679390  33.3885994
  59.3589211  51.7634087  32.9229164  59.3574638  52.8404007  33.9864388
  53.2591896   4.7186055  71.7743301  53.8901863   4.1231031  72.1786270
  53.4306755   4.6477752  70.8352890   1.4926502   1.7841618  40.1414261
   0.6761638   2.1453538  40.4865685   1.2272770   0.9858086  39.6848755
  84.6255722  69.6111450  59.1195602  85.4993668  69.3268738  59.3876953
  84.5647125  70.5168915  59.4231339  68.2750244   6.2115211  31.4829159
  67.6809387   6.7194977  30.9304218  67.7055740   5.8040004  32.1355133
  81.2479095  54.4197922  43.2806244  81.6424408  55.2897377  43.2191963
  81.9929123  53.8188171  43.2865562  60.9018173   3.8627493  72.0895767
  61.6757584   3.9743965  71.5375061  60.2642670   3.4280655  71.5231705
  26.2706661  52.4876747  73.8791580  26.3199749  52.5091934  72.9234695
  27.1810913  52.5526733  74.1674805  50.7272911  68.7660141  69.8548508
  49.7850533  68.9174118  69.7807083  51.0403671  69.4751740  70.4163666
  64.7379456  13.1669931  64.2458115  65.1801987  13.2894344  63.4057808
  65.3802872  12.7122307  64.7906265  56.2349167  69.8301010  39.1404839
  56.1192017  70.6981659  39.5268936  56.9258232  69.9482651  38.4886284
  83.0221710  64.0247803   3.0968482  83.8800201  63.9960098   3.5205188
  83.2183075  64.0504150   2.1603103  24.6852322   7.1746154  16.5818806
  24.6916084   6.3343854  16.1233997  24.0954056   7.7244368  16.0660973
  37.2706528  70.3152008   6.7020259  36.5932236  70.7705383   7.2020159
  38.0479202  70.3563156   7.2591629  56.9498672  14.9363394  86.8847809
  56.5730324  15.0987549  87.7495575  56.9158058  15.7859812  86.4452515
  77.9434662  49.6732597  45.6234398  77.5717239  49.1207237  46.3110046
  77.8556824  49.1532249  44.8246346  78.9413986  63.7188301  71.1317596
  78.9808197  62.7929192  71.3712692  79.8556824  63.9728889  71.0062180
  42.9480438  11.6618185   7.8625631  42.5277100  12.3048172   7.2915077
  43.7448082  11.4109955   7.3951383  68.2373199  62.3484993  19.6834164
  68.5507050  61.7153625  20.3292923  67.4698792  61.9313660  19.2919197
  47.1196632  55.2126045  52.8102226  47.8316765  54.5787773  52.8969803
  46.6929054  54.9819641  51.9850464   0.2817950   8.5157566  82.6404419
   0.3946830   7.6913929  83.1136322  -0.0646907   9.1221485  83.2950134
  25.2512684  32.4232826  88.1168900  25.7121181  31.9903660  87.3982544
  25.8215237  32.3001938  88.8757629  54.5715218  44.5016670  14.6524143
  54.1606293  43.6445198  14.7651052  54.9534111  44.4707451  13.7752399
  53.1596947  62.3489876  82.0873489  53.9894676  62.2322540  82.5500336
  53.2537842  61.8260345  81.2911682  59.7483330   9.2420092  23.9941864
  59.6301384   8.7582836  24.8116665  58.9478149   9.0723257  23.4975910
   3.1580436  51.4037552  30.3471394   3.1211808  50.7077026  31.0031776
   2.6303082  51.0750999  29.6193256  81.4300842   7.9420691  33.6061592
  82.1761093   7.3602862  33.4605217  81.6154404   8.7093554  33.0647316
  20.6714172  34.1767845  66.6843948  20.4453888  33.3574486  67.1246567
  20.8718262  33.9179764  65.7849045  34.7284889   6.1891599   8.4274445
  34.4719353   6.9899216   8.8848209  33.9668884   5.9640541   7.8931022
  19.3034954  41.3537254  16.9662857  19.3102455  42.1870689  16.4954071
  18.4174709  41.2869492  17.3222828   0.8438559  29.7312546  61.0393829
   1.6128280  29.7557983  60.4699020   1.2033179  29.6895084  61.9255447
  49.5103302  50.8395729  51.0608902  50.2806473  51.2834015  50.7061234
  49.1872520  50.3043633  50.3360443  15.5824709  39.7183151  10.6070967
  15.9729528  39.9020576   9.7526999  16.3207684  39.4540520  11.1560173
  22.2170734  59.3698082  17.9452133  22.5362549  58.8284340  17.2232246
  22.8081722  60.1225548  17.9596329  68.6528473  25.7217655  11.8542175
  68.5293961  26.1402245  11.0022287  69.3221130  25.0552750  11.6989784
  16.5843010   7.8999619  13.3789444  16.7478218   7.6176782  14.2788382
  16.9146557   8.7977362  13.3457699  26.7384434  66.1664658  15.1623373
  27.3994770  66.2158203  14.4718084  26.4733810  67.0750198  15.3055410
  10.1863117  61.9272156  85.7755127  11.0186243  61.5804214  86.0967941
  10.1683350  61.6869240  84.8491364  64.7349777  33.9417229  25.4338951
  64.2118454  34.4675407  24.8288517  64.4945068  33.0369492  25.2344360
  43.2207718   7.3847294  59.8368378  43.2015915   8.3334160  59.7109070
  43.4249802   7.2704000  60.7649841  36.7905846  66.5417328  76.9420166
  36.1405144  66.1222382  77.5056381  37.2027321  65.8172455  76.4713974
  13.9132023   1.5076500  50.1194153  14.7840824   1.9047489  50.1088676
  13.6157455   1.6066895  51.0238190  17.9975681  44.4597549   0.0809623
  18.2513123  44.3187675   0.9930856  18.7288952  44.9469719  -0.2985247
  64.3066864  22.3013382  47.3217087  63.9405441  22.9875698  47.8796120
  65.1804886  22.1430225  47.6789665  49.0077896  61.4509773  56.1208611
  48.6233368  62.2828064  56.3974266  49.2908096  61.0353737  56.9353600
  84.1150208  68.6051025  11.1074305  84.9510803  68.7107162  10.6534634
  83.8606949  67.6988983  10.9332266  27.1344757  26.0469761  13.6304359
  27.2912674  25.6980801  14.5078859  27.5230808  25.3994770  13.0422516
  60.6666908   4.5249572  74.6643677  59.8662682   5.0374680  74.7778778
  60.6702538   4.2886176  73.7368088  86.2482376   2.7306805  78.2502975
  86.7956848   2.2706120  77.6139984  85.9189758   3.4938405  77.7755203
  45.2604904   3.3975086  50.4059944  44.4143524   2.9971998  50.2059021
  45.6255531   2.8508136  51.1017570  78.9114609  12.6711168  54.5424843
  78.6479340  13.5871773  54.6297874  78.3166351  12.1945534  55.1215439
  15.9141569  61.5208855  27.5004044  15.8389893  61.2248421  28.4075642
  16.7303944  61.1305656  27.1879368  43.2248154  60.7640953  82.1971283
  44.1645012  60.5950432  82.2652435  43.1427460  61.3660011  81.4573975
  41.8071747   2.1891963  59.1107903  42.5077896   1.8206563  58.5726967
  42.0751495   2.0059674  60.0112610   8.2559710  63.8803482  73.8629456
   8.8473625  63.1955032  74.1751556   7.8846817  63.5261192  73.0549240
  36.8084717  50.7933235  81.3871994  37.0934906  51.1811752  80.5598145
  36.2812424  50.0375061  81.1283646  82.8567886  40.9792404  69.7428055
  82.5186539  40.0874405  69.6616211  83.7583618  40.8670425  70.0441589
  24.4690762  54.9954948  73.5445633  23.8658886  54.4215393  74.0167694
  24.5634327  54.5875893  72.6837845  33.9121742  42.0168419  75.1618347
  33.4872856  41.2100983  74.8705139  34.4216080  41.7556915  75.9289780
  79.1295395  17.4411240  12.2365780  79.8737183  17.9066715  11.8548813
  78.3620071  17.9230995  11.9286375  11.4253254  36.3838005  58.4847984
  10.5391760  36.7445297  58.4557076  11.6200361  36.1533089  57.5763969
   7.5571170  64.7327271  54.0035400   8.3208494  64.7304306  53.4265289
   7.5012565  65.6331940  54.3233376  36.8648834   0.1853222  61.3164177
  37.6109314   0.6070799  60.8900795  36.2870865  -0.0649574  60.5954819
   6.0471964  64.5714111   4.3510666   6.5856814  63.8329239   4.0666213
   5.2851801  64.5491714   3.7722154  77.6423035  35.7252312   2.6994796
  78.0955276  36.2770386   3.3369179  76.7858658  35.5584831   3.0931025
  45.7993889  13.1808119  67.5142975  44.8713989  13.4151077  67.5009995
  45.8043861  12.2248526  67.5627670  59.7956200  39.3887100  25.6677761
  60.5699158  39.6516075  25.1702023  59.4288788  40.2111320  25.9923649
  13.2565145  59.8024788  57.6257706  13.3342085  58.9653130  58.0833206
  12.7388954  59.6020775  56.8459358  17.4952450  21.1591644  21.4479866
  18.0931053  21.8452606  21.7447433  17.1735249  20.7564850  22.2545700
  70.2070084  51.7034149  20.5547829  69.5110168  51.8676643  21.1910610
  69.8529739  52.0227432  19.7247734  44.1059074  67.4521561  22.0212193
  43.4585571  67.9101257  22.5573425  44.2839279  66.6426620  22.5000401
  57.6000023  48.3848648  65.1621628  58.0361481  47.8414230  65.8184204
  57.9972534  49.2496567  65.2649307  34.5175972  34.3328667  80.1536331
  35.0449715  35.0930138  79.9081039  33.6824150  34.4658890  79.7052994
  84.7112885  10.2417364  70.4922333  84.5041122  10.6584568  71.3286896
  83.8584747  10.0621462  70.0963898   6.5329485   6.9765987   1.0994402
   7.2627149   7.1266570   1.7004024   6.9471779   6.8566709   0.2448857
  77.3845825   6.7012358  64.7194214  77.4661026   6.0200520  64.0519028
  77.7013016   7.4961271  64.2903824  75.0179977  50.2325935  87.0893326
  75.6067657  50.4619637  87.8083496  75.5677032  49.7449913  86.4758987
  44.8981819  70.4072189  57.0434227  45.3925781  70.9301376  57.6745796
  44.0183907  70.3506088  57.4162369  34.9048042   4.1506562  39.3208160
  35.5874367   4.8205285  39.3597069  34.2918167   4.4714808  38.6593361
   1.3447479  64.1285095  38.3634186   1.1785011  64.8710403  38.9441414
   0.9220192  64.3697205  37.5391922  34.9680824  32.1241493  15.1102743
  34.7819405  31.5553646  14.3632364  35.4168663  31.5569172  15.7372274
  13.7396517  37.8412361  13.5404615  13.6189041  37.1394653  12.9007998
  14.1810188  37.4198074  14.2779055  53.9883003  70.3550415  63.4664154
  53.5987854  70.9545135  64.1029282  54.1391716  69.5480499  63.9585915
  82.3839417  20.7438240  41.7125816  81.4442139  20.8422298  41.8657265
  82.6241226  19.9539127  42.1969223  86.6126862  68.6677856  17.7844753
  87.2798538  68.1290741  18.2098103  86.2850266  69.2372055  18.4806252
   4.0400019  27.5142879  42.7117157   4.5305381  26.6927032  42.6871147
   4.5517135  28.1150761  42.1700172  23.3000412  10.3300724  47.4237289
  23.7153530   9.5611715  47.8142929  22.8060875   9.9839058  46.6804848
  80.9324036  60.4040680  10.2625628  80.1019211  60.5010452  10.7285290
  80.6994858  60.4880943   9.3379431  81.1669540   5.8485165   1.3154576
  82.0951004   5.6927943   1.4901644  81.0755539   6.8010802   1.3378267
  80.1190872  52.6891747  65.5349579  80.8886566  52.7107887  64.9661560
  79.3881607  52.5134392  64.9424286  38.9784508  66.6572647  41.0788879
  38.8822250  67.5565720  40.7655067  38.1484070  66.4656219  41.5153885
  63.5846786   8.2894859  53.5199738  63.8594894   7.6608534  52.8524933
  63.2664452   7.7480564  54.2423401  50.1393852  62.8946838  29.9649391
  49.6958961  62.3265076  30.5948009  50.9290695  62.4117050  29.7212963
  64.9733734  50.1314087  30.8771534  64.7537384  51.0537529  31.0085793
  64.1685791  49.6604118  31.0932331  22.1701298   8.4523315   9.7999973
  22.7163601   8.5770330   9.0239086  21.3205338   8.8199310   9.5565014
  77.6964493   8.7483654  13.8572865  78.1125946   9.5947733  13.6940413
  78.1800995   8.1333561  13.3058567  67.4788361   0.5701534  42.1982880
  66.7887268   0.1244276  42.6895142  67.4558182   1.4721889  42.5177155
   3.2974968   4.0298481  25.3017044   2.3478138   4.1492143  25.2924347
   3.6508691   4.9113569  25.1821156  25.3046131  12.6382809   7.3786254
  25.5895844  12.0689545   6.6638584  24.4933147  12.2396383   7.6934438
  49.1122742  45.3153114  21.3726425  49.2025185  45.2035446  22.3190022
  49.9711723  45.0812874  21.0208454  53.1337585  39.5073586   2.1568298
  53.6687088  38.7760620   1.8481791  52.6313057  39.7776909   1.3882635
  22.3308182   0.9737738  33.4388275  22.2747765   0.5514847  34.2960091
  23.2412128   0.8504289  33.1701279  85.2795715  21.7255688  83.4368210
  85.7196579  22.3890324  83.9682159  85.0215149  22.1892452  82.6401825
  78.0079269  54.0615845  11.3476305  77.6023560  54.2857742  10.5100822
  78.8981705  54.4072533  11.2827988  61.1703568  68.0781555  63.9111748
  61.0331039  67.8659134  62.9879494  60.8217812  68.9644089  64.0075760
  17.4006958  64.1413727  30.5558071  17.9746666  63.3797379  30.6376629
  16.9241829  63.9954529  29.7385731  63.5619125  70.6573944  71.2452240
  63.9641876  71.4011230  71.6938629  64.1925507  70.4176254  70.5662231
  34.0782280  66.3293610  67.1029968  33.8111267  67.1731720  66.7384796
  34.9487038  66.4904785  67.4670563  67.1096344  68.8998871  11.6771860
  67.7746811  69.0778961  12.3422098  66.2875519  68.8581619  12.1657248
  76.3727341  27.0027523  73.0142059  77.0973587  27.0910263  73.6333618
  75.7083511  26.5064583  73.4922409  82.1073380  41.4466057   5.8280010
  81.4108200  41.2222900   5.2109327  81.9699707  42.3748207   6.0171595
  86.9637833  27.1628437  50.8961830  86.3029327  27.2147484  51.5867004
  86.5168152  27.4823914  50.1123848  75.7212448  55.7425919  39.7316895
  75.2622910  55.0297623  40.1760597  75.0627747  56.1277237  39.1534843
  84.0503464  60.5923805   6.7835541  83.5670853  60.3435173   5.9956732
  83.5341187  61.3012581   7.1672664  50.3984337  66.1334686   8.8589354
  51.3168449  66.2814713   9.0844336  50.0076561  67.0072708   8.8603067
  13.2257280  59.2755775  64.2631226  12.8925924  59.4199371  63.3774529
  13.3774357  60.1553802  64.6083221  52.7958755   7.1251698  36.1024094
  52.9866104   6.4470506  35.4543304  52.9238434   6.6924710  36.9465828
  16.7038746  69.1190643  56.2667351  16.8251133  68.9251328  55.3372574
  17.5337410  69.5100174  56.5400658  60.3728981  21.8913364  56.4030380
  61.2438202  21.4968033  56.4485741  60.5369148  22.8343811  56.4021225
  35.2037621  17.5989571  78.2877731  34.5299950  17.0435143  77.8956604
  35.0572662  18.4622955  77.9012299  29.4915466   1.2267356   6.4239287
  29.6686993   0.8279783   5.5719652  28.6547146   0.8496569   6.6955094
  71.9676056  62.8119278  86.7929916  72.7855911  63.1834679  87.1232758
  72.2130737  62.3833427  85.9730530  41.6861839  51.7501793  17.6190624
  42.3143311  52.3670502  17.9947395  42.1331635  51.3898010  16.8531857
  34.0482445  38.0086746  13.8744907  34.6564865  38.1061363  14.6071405
  34.3748665  38.6150360  13.2097511  36.4692879  47.2543869  39.7021675
  37.0595627  46.5187988  39.8656387  35.6593323  46.8476830  39.3942757
  76.6741333  55.2985458   9.0717583  75.8032227  55.2686005   8.6757164
  77.2152557  54.7519073   8.5020208  -0.1111600  41.6076965  44.4687462
   0.2401505  41.7524948  43.5901985  -0.1085583  40.6562958  44.5739326
  54.2119179  37.1457710  15.5711966  54.8245964  36.8809052  16.2572765
  53.4510345  36.5789452  15.6976910  24.8632030  15.7023716   8.6450768
  23.9224262  15.6826992   8.4696302  25.1806068  14.8505220   8.3453436
   4.6191039  54.8091660  19.2700920   3.7166226  54.5977783  19.5089951
   4.7230392  54.4528313  18.3877907  37.0470657  46.4329185  62.5696220
  37.2857819  45.6041718  62.1543808  36.1016312  46.3693619  62.7050667
  57.1159058  10.5092220  37.3644333  57.7004395  10.2704649  38.0838394
  57.1571579  11.4648914  37.3294029  80.2553024  46.4682884  65.7879181
  80.2367935  46.3295174  64.8410110  81.1549759  46.7376709  65.9729614
   3.2394872  21.7447357  44.5028877   3.8731670  22.1579952  45.0893135
   2.9396548  20.9714985  44.9808388  18.3490009  21.4544525   8.8135691
  18.7828159  22.0604248   9.4142628  18.5185490  21.8167667   7.9439640
  55.5105743  58.2575951  36.5159225  56.0801659  58.6351471  37.1861839
  54.7344093  57.9689903  36.9960327  48.4604759  64.8138275   7.5298715
  49.0221367  65.5829163   7.6261582  48.9609833  64.2203140   6.9699893
  12.0150137  64.2223511  66.6303101  11.6826334  65.0594864  66.9542923
  11.6714792  63.5741386  67.2451630  67.3292313  41.8165703  79.5546341
  67.3722992  42.7285576  79.8421326  66.4042740  41.6716614  79.3554306
  32.2954140  66.0792618  54.2011490  32.1548500  67.0250244  54.1563377
  31.6044254  65.7617035  54.7824593  32.2614670   2.1301188  47.6085129
  32.3704643   2.5011301  46.7328987  31.3303185   1.9151990  47.6633682
  47.0475044  46.6790733   5.6211734  47.2673073  46.2036743   4.8199782
  47.7892532  46.5203552   6.2049947  22.4487705  30.3932972  82.0281143
  21.5372581  30.2967396  81.7523346  22.8246975  31.0107765  81.4007111
  50.8221397  17.6133766  87.4250870  50.9718857  16.9488144  86.7526550
  51.4966698  17.4446888  88.0829544  65.9626389  15.6741219  57.0752258
  66.7599716  16.1173763  57.3650856  65.5036545  15.4526672  57.8854866
  54.0913849  44.1028786  79.0213699  53.6591606  44.0059395  78.1728363
  53.9292488  43.2724762  79.4690094  74.2925262  52.3900833   1.7604269
  74.9968796  51.8532143   1.3972687  73.4912643  52.0084152   1.4018948
  42.5225525  50.0385666   9.3749247  42.1965446  49.3286591   9.9280777
  42.9748878  49.5947876   8.6575089  67.7315216  55.1090584  67.1511230
  67.8496704  55.4278030  66.2563171  67.7012482  54.1563148  67.0639572
   8.2591400  47.1107330  18.0226822   8.3176756  47.8369026  18.6435547
   8.8734312  46.4581223  18.3588009  86.4891510  27.2529030  30.2563934
  86.5822067  27.1808357  29.3064575  87.3876114  27.2438202  30.5864372
  56.3537064  49.0917358  70.2394791  56.1884613  49.0588112  71.1817322
  55.4898415  49.2249603  69.8493271  27.0537205  44.9438744  74.4338684
  26.5780296  45.7729301  74.3826828  27.4110107  44.9271660  75.3217239
  80.9461060  54.4157867  32.9558105  80.2321854  53.8587074  33.2660065
  81.3964081  53.8845787  32.2990952  38.6645432  67.0003510  33.1951599
  38.4940681  67.8786850  32.8550186  39.2593040  66.6073837  32.5563545
  30.7961655  59.9952965  70.9703217  30.4142036  59.8271103  71.8317413
  30.8109989  59.1386528  70.5435028  55.9550667  31.5484600  52.5959244
  55.1550026  31.3562565  53.0849915  55.6695480  32.1237335  51.8861542
  15.0359945  54.2289429   7.0362029  14.9888344  54.9886436   6.4558067
  14.3576841  53.6368523   6.7113142  22.6455650  66.5859375  80.4395447
  21.9190807  66.7811508  81.0314407  22.3676853  66.9394913  79.5945511
  30.2299747  37.3704758  78.8366852  30.6680641  36.7281990  78.2783051
  30.9287834  37.7276230  79.3847198   0.4032309  27.4129028  58.5325851
   0.6653675  28.0844326  57.9028511   0.6595888  26.5868664  58.1224937
  26.2843151  63.7788696  59.2137413  26.2171879  64.5858459  59.7241516
  25.3890495  63.4418716  59.1796379   4.4659085  24.1638412   1.8604723
   3.7928801  24.5539513   1.3027275   5.0581617  23.7249432   1.2498690
  54.5154953  66.8840103   3.2096953  54.9511871  66.0527267   3.3977764
  53.6169128  66.6389008   2.9890101  48.0920219  65.5184402  15.1427279
  47.9652252  65.3513184  16.0766563  47.2500038  65.2993011  14.7437134
  74.3026123  39.4115143  88.6580353  74.5505905  38.8669167  89.4051285
  74.2680664  38.8035889  87.9194794  17.5453072  62.4372368  86.9765244
  18.0695324  63.1972466  86.7239227  16.6647835  62.7876663  87.1110992
  43.3326607   8.4281616  82.5898666  43.1715164   7.6750159  82.0215073
  42.7553825   9.1121521  82.2505417  40.6658745  49.1245346  33.2861671
  40.2179260  49.8060799  32.7851028  41.3009453  48.7546730  32.6728821
  57.8981438  51.7742691  39.0000229  58.4730492  51.4211617  39.6790161
  57.7426300  52.6806946  39.2654305  15.2319756  25.3295593   6.2638950
  14.2933235  25.1693726   6.3613834  15.3707733  26.1892605   6.6612368
  71.7053223  51.5185432  58.3612785  71.9752884  51.9576874  57.5547409
  70.8213348  51.2011070  58.1768074  17.9763947  40.7689362  23.2972488
  17.4903603  41.0879745  24.0576515  18.5648632  41.4888153  23.0698490
   1.6351072  41.6677551  73.5302277   1.6128643  41.4658928  72.5948181
   0.9570268  42.3330345  73.6478729  50.5911903  52.1679497   5.1496825
  50.2158585  51.8275490   4.3375950  50.4833031  53.1167870   5.0841341
  37.4258194  49.6223297  46.9669151  38.0660667  49.9153633  47.6153336
  36.5885582  49.9559555  47.2892799   2.4225442   9.5883217  71.6730499
   2.1292691   8.7739220  71.2644196   3.0782261   9.9367952  71.0689926
  76.7002869  25.3092651  65.5997543  76.8076019  24.5765896  66.2063065
  76.7936783  24.9171257  64.7315750  48.7824173  68.0549240  46.4672852
  49.7344475  68.0482559  46.5664101  48.5320435  67.1315231  46.4970818
  33.2429810   5.5631728  53.4743423  33.7790909   6.1615000  52.9539375
  33.4056396   4.7011452  53.0913506  85.5921783  59.0379333  22.7753105
  84.6718216  59.1603394  22.5425339  85.9502487  59.9249229  22.8108826
   8.7828884  71.4558945  35.5847664   8.8411598  70.5043945  35.6712761
   8.1584101  71.7200241  36.2604103  71.6766815  23.4923534  81.1225891
  70.7321548  23.5793457  81.2511978  71.8248367  22.5483494  81.0665665
  78.2067947  62.4961166   4.3656664  78.9499207  62.9934616   4.0241323
  78.5467453  61.6093521   4.4853001  79.0107117  69.6865540  26.5312824
  78.7628784  70.1449051  27.3342304  79.9113159  69.4017563  26.6863041
  22.2478714  26.4392052  70.6040344  21.5742569  26.1561852  69.9856720
  22.4842663  25.6438618  71.0812988  62.5873680  24.2392921  65.6631927
  63.0540924  24.2559223  66.4987335  63.2744331  24.3318081  65.0031815
  54.0261192  36.1499901  49.3117523  53.1473083  36.5290375  49.3273163
  54.5954361  36.8756218  49.0556908  85.3722153  13.7006435   8.3975525
  85.9859161  14.0835657   9.0244255  85.2735748  14.3694210   7.7198811
  46.5328979  23.7964592  25.4387054  46.9097595  24.4223385  26.0571556
  47.1789665  23.0920658  25.3871632  82.1254654  49.3732452  55.0009880
  82.6305923  49.9926605  54.4742966  81.4006729  49.1114120  54.4332314
  46.2888184  60.8398323  40.3777199  47.0259552  61.3963966  40.6289024
  46.0956917  61.0912971  39.4745598  31.8704224  18.0789261  12.2694130
  31.7522430  17.3538284  12.8830080  32.1158829  17.6579304  11.4455538
  43.6768875  33.8204803  84.8586121  43.8440361  34.0445099  83.9431305
  43.3213196  32.9323387  84.8267746   7.6585612  50.9819145  39.4547005
   7.2528486  50.7449226  40.2886429   6.9502645  50.9102707  38.8148460
  83.8671799  14.0272036  63.1325684  82.9648895  13.7421465  63.2769470
  83.7853470  14.9181080  62.7922363  54.8916512  40.0467491  42.6692734
  54.3268509  39.6661911  43.3418846  54.3897476  40.7855148  42.3249550
   9.6002474  68.9869080  13.2564621   9.2054644  69.2551193  14.0861864
  10.5348063  69.1608658  13.3685856  10.8108158  26.4746437  65.1749191
  11.1975203  25.9783287  65.8962784  11.3526001  27.2608833  65.1076202
  81.8029480  46.7639503  41.1919403  81.1876450  46.1520081  41.5958710
  81.7401733  46.5826988  40.2541542  83.8440475  39.4282608  85.5946045
  84.4641495  38.7101707  85.7212906  84.2954483  40.0335426  85.0063019
  13.5947599  40.4059639  80.8776474  13.5214624  41.3234253  80.6147308
  14.5009422  40.3126907  81.1715240  53.1945457  47.5191803  22.2635403
  53.9366837  47.0049896  21.9456215  53.0807381  48.2065849  21.6072197
  45.5315781  23.9160099  22.5753040  45.4847488  23.9881039  23.5286369
  45.5581322  22.9740314  22.4073620  38.7922668  59.8101921  64.7384338
  39.1614342  58.9270515  64.7421494  38.5983353  59.9848442  63.8175011
  62.6712570  59.2851295  63.6199646  62.5509415  58.8178711  64.4466629
  63.3932114  58.8275642  63.1890984  17.6246872  64.4108124   0.2410164
  17.3456059  65.1956482  -0.2305641  17.4447975  64.6071777   1.1604255
  54.1998062  69.1452713   8.8357134  54.2444191  68.8583984   9.7478247
  53.7326241  69.9800262   8.8697538  56.9549141  26.5942554  58.4406624
  56.5947342  26.8724060  59.2827644  56.7436142  25.6622772  58.3858757
  18.8506222  51.0027122  10.5944529  18.0697479  51.0568924  10.0435162
  18.5922966  51.4175262  11.4175148  76.1080627   1.0024788  61.2803993
  77.0081558   0.8691634  60.9832687  76.1441040   0.8580346  62.2259521
  51.7576599  71.1495590  43.0325356  51.8426552  70.4700623  43.7013359
  52.2029305  71.9101791  43.4059372  18.8485680  66.9088440  55.5267448
  19.3926716  67.1029358  54.7635231  19.1096764  67.5592499  56.1786804
  66.5070648  37.4200783  68.0343552  65.9767838  38.1562614  68.3394394
  66.1362152  37.1951408  67.1810684   4.8063440  68.7371216  84.2462616
   4.2802668  69.5329514  84.1679535   5.5949230  68.9200745  83.7354736
  22.6722336  32.2425842  88.7310638  23.5943527  32.4077873  88.5345078
  22.5911617  31.2889500  88.7155838  65.7011719  47.5376778  78.6980743
  65.4355545  48.4227600  78.4484482  65.0170822  47.2428932  79.2992020
  37.0212250  41.9558144  74.4025421  37.8804436  41.5604248  74.2554245
  36.4845619  41.2415695  74.7461624  44.8100471  50.5522385  54.0837860
  44.5338211  49.6397552  53.9983292  45.3455009  50.5671005  54.8770714
  70.9670486  55.6871834  38.0890884  71.5019531  55.7442513  37.2973480
  70.5574875  56.5490837  38.1640739  14.9605341  59.2221794  51.7507744
  14.2335472  59.4817505  51.1847839  15.6739550  59.8134499  51.5106430
  58.7390060  45.8146362  78.1339035  59.2017937  45.0567207  77.7766571
  58.0335693  45.9810753  77.5086975  45.4571419  33.8309021  75.2595825
  46.0660706  33.5519981  75.9434280  45.9716110  33.7985725  74.4530411
  64.7180023  69.2221375  64.6198730  64.4593887  68.3009949  64.5905457
  64.2303772  69.5843735  65.3596191  83.4894104  67.2452316  59.5673714
  83.8053131  68.1449661  59.6504784  84.1922913  66.7861099  59.1075974
   7.1312623  32.6063004  82.4254379   7.8395042  33.2256699  82.6015244
   7.4078674  32.1449547  81.6336823  60.7896004  60.7240715  55.2417984
  61.1522751  59.8754616  55.4958839  60.2093887  60.5261574  54.5066681
  58.4468422  60.7849922  24.4551792  58.0805244  61.6274109  24.7242050
  57.6919212  60.2822876  24.1492138  82.5984726  48.4015694  81.7751770
  81.9449158  47.7072220  81.6916199  82.1591644  49.0842094  82.2823715
   4.0478096  64.9651642  84.6781464   3.6761739  64.9636917  83.7960358
   4.1740465  64.0394669  84.8864136  76.9493561  46.4840393  58.1854477
  77.6536255  46.2731667  57.5724525  76.1473923  46.2475967  57.7194099
  72.5825195  27.7670288  18.8927879  72.2366562  28.6100082  19.1860447
  73.0538864  27.4243011  19.6521187  51.9171562  25.5171032  29.5164127
  52.4047012  24.7404728  29.2418633  51.7192497  25.9765530  28.7003441
  58.2326889  53.0823097  19.4594975  57.7424278  52.8135490  18.6825542
  58.6308594  53.9175491  19.2144012  48.4865646   4.2481127  68.1556702
  48.9142075   5.1028986  68.2075958  49.1892281   3.6185470  68.3173599
  33.0212975   4.8998737  14.4217281  33.7898140   4.3456411  14.2859316
  33.0048447   5.4776521  13.6587515  15.0978088  43.6065559  43.4962006
  15.3452806  43.2620201  44.3542709  15.8481455  43.4121590  42.9345627
  68.3115463  28.6344814  32.9060020  68.4970474  27.9557190  33.5549278
  67.3609009  28.6084652  32.7972488  28.9366970  36.0219269  87.8382950
  28.8215637  35.1362801  87.4939041  29.8852615  36.1316032  87.9048233
  11.1113987  16.0281963  20.4381752  10.2231073  16.3424034  20.2695179
  11.6379137  16.4101086  19.7359238  50.0611610  45.8431702  27.9602814
  50.8276939  45.5189743  27.4874649  49.6246262  45.0532150  28.2790928
  35.8728256  22.5878811  76.3950958  35.9835815  22.7500362  75.4582520
  34.9264679  22.5072136  76.5139694  45.0350571  44.5765457  86.2362595
  44.7106667  45.0527687  85.4719162  45.8898659  44.2419777  85.9649658
  24.8815708   0.7340500  67.2455139  24.1162033   0.2543371  66.9287796
  24.6359730   1.6558429  67.1666946  25.7475243  37.7820778  75.1789093
  25.1469936  38.3646889  74.7139816  25.7427235  38.1032028  76.0806274
  50.3599854  14.4682913   9.4123354  50.8320274  13.8758364   8.8271818
  50.6511955  14.2205667  10.2898664  13.3897038  64.4535294  38.9216080
  12.6029673  64.9828720  39.0522842  13.1391153  63.8121147  38.2567635
  71.0159149  20.1974926  62.5875130  70.9795837  20.6234398  61.7310791
  71.5978699  19.4486237  62.4580650  47.6840019   2.3411205  11.7970705
  47.8999062   2.4652989  12.7212992  46.9103165   1.7775879  11.8054667
   4.5389762  29.3601246  15.9054785   3.8442159  29.1903763  15.2692976
   4.3687625  28.7423744  16.6165657  59.7975616  20.1550236   4.4056492
  59.5818291  19.7298355   5.2356534  58.9802284  20.1370296   3.9077771
  23.6270523  49.9084244  25.9791985  24.1956654  49.2420273  26.3649750
  23.4703560  50.5301781  26.6899052  52.5199776  29.0207100  12.1028500
  51.7978325  29.6423492  12.1939745  52.1139374  28.2333736  11.7402658
  75.9233170  22.2754974  60.3125839  76.8021088  21.9075890  60.2198563
  75.4696274  21.6677685  60.8965950  46.2820663  61.2914581  48.5206261
  46.9652786  61.9528503  48.6302299  45.8269157  61.5479012  47.7185631
   1.7787768  39.7229118  75.5889893   2.3543108  40.3428459  76.0369568
   1.4045483  40.2240944  74.8644257  35.5237122  27.5711517   9.3917093
  35.9970551  28.4028091   9.3688841  34.6635056  27.7948284   9.7470140
  42.6979332  61.4952812  88.2840500  42.4415169  62.3082504  87.8486633
  41.9001808  61.1948357  88.7194366  12.6269417  35.7032509  61.2117577
  12.0732517  36.2717514  60.6765327  13.3212223  35.4172668  60.6181068
   1.8901846  68.5220108  78.0516891   1.4666988  69.3766556  77.9711990
   1.7928420  68.2925568  78.9758682  75.7059402  26.8496513  46.8622017
  75.0010376  26.2182827  47.0061111  75.3768921  27.6659279  47.2385674
  11.5736399  60.6500626  78.8057098  11.2702045  61.2160034  79.5155411
  12.4899282  60.8959084  78.6784058  86.3191071  64.0551682  67.0238800
  86.5435181  63.4463425  66.3201752  85.7160797  64.6781769  66.6183548
  44.9006767  11.9946413  79.1965179  45.3191414  11.2675381  79.6574326
  44.3337135  12.3996792  79.8528214  86.1391220  61.0278435  75.5836792
  86.1610184  60.9232559  76.5348969  86.2970123  60.1476555  75.2422485
  59.1724434  31.7756710   2.5555437  59.8482819  31.3054352   3.0437570
  59.4976311  32.6743050   2.5013368  81.2938919  28.6298485  29.1306973
  82.0382919  29.1650581  29.4057312  81.0176620  28.1764107  29.9271431
   8.8421125  70.3022003  57.0962296   8.6682053  69.4328995  57.4571991
   8.2371073  70.8800735  57.5612755  37.1208534   7.3715386  35.8910408
  37.3921204   7.0018053  35.0508347  37.9116821   7.7849841  36.2372894
  13.0378885  60.6938057  50.5125580  13.3613062  61.3901787  51.0841331
  12.1593838  60.9789009  50.2612000  79.1800461  21.8377018  12.5545301
  78.8366470  22.6544762  12.1923265  78.4522171  21.4748936  13.0593796
  79.5457306   3.4740112  67.2883911  79.5457230   2.9030719  66.5201111
  78.6526184   3.8154631  67.3330612  41.3939323  69.7566757  66.2786102
  41.0659981  69.2312775  67.0084381  41.5411148  70.6242905  66.6552048
  73.7037811  55.9340897  57.5911713  73.3948746  56.0587158  58.4885445
  74.6156693  56.2245522  57.6092567  43.0035934  62.8706589   6.7967458
  43.0382004  63.6004715   6.1783566  42.1404648  62.9427261   7.2042317
  43.6160889  46.8224678  48.3051910  44.0658913  46.2160454  48.8935471
  43.0858307  46.2597504  47.7409134   7.3937545  28.4505367   6.3496799
   6.5226645  28.3715725   6.7385240   7.4802752  27.6743298   5.7962823
  84.2158203  71.0216980  20.9531460  84.6720581  70.2044754  21.1537323
  84.9125061  71.6746140  20.8856316  40.9427872   8.3260050  29.4563465
  40.6761055   7.4366202  29.2237377  40.2414055   8.8825912  29.1179543
  20.9799023  60.6730461   3.2219024  21.3786373  61.4110031   3.6830552
  20.5157948  61.0727959   2.4863501  73.3331909  37.3934059  82.0473251
  73.4950409  37.3718605  81.1041489  73.4053345  36.4798050  82.3236465
  58.1444511  57.9164886  63.5741119  58.1655197  57.2408562  62.8963890
  57.4796753  58.5362816  63.2738419  50.5839081  54.4775696  42.0208969
  49.8439445  54.7383575  42.5692406  50.9473419  55.3031387  41.7006073
  14.3167982  12.8908253   9.8279715  14.7357903  13.6349096   9.3955183
  13.6416225  13.2842026  10.3808041  59.0833702  52.5550461  49.1863213
  58.5616074  52.8699837  48.4482079  58.4862518  51.9917831  49.6786842
  86.1354294  29.0203152  79.2920074  85.3220901  28.6976128  79.6800537
  86.7893600  28.3606701  79.5232544  84.8707428  54.5931587  65.7577515
  85.2054138  55.4021873  66.1446686  85.6541595  54.1188469  65.4793472
  45.5568047  45.7182617  23.5570488  45.6376076  46.5084953  23.0229797
  44.6190453  45.6435204  23.7338486  47.7326851  17.4406700  88.5012283
  47.4676208  18.3540611  88.3931198  48.6840248  17.4533176  88.3962173
  67.2676697   9.3300056  34.7245255  68.1103821   9.7443714  34.5391502
  66.6749802  10.0607777  34.9003830  47.5188560  41.7034836  70.2714539
  47.3911476  42.0386429  69.3839874  46.6524811  41.3963470  70.5384674
  20.1452541  60.9093857  41.6872902  20.7322826  61.3596001  41.0798874
  19.8094807  60.1647453  41.1882935  80.1276627  69.5803604  74.6289520
  80.4724197  70.4687653  74.7190399  79.3306808  69.5778122  75.1590805
  72.6609116  30.1991692  27.9686489  71.9905472  29.7714424  28.5014668
  72.2160339  30.9551697  27.5855331  54.3510170  56.3647575  43.3026428
  54.2448807  57.3159599  43.3160858  54.9851112  56.2043648  42.6037674
  13.8420210  34.3671265  65.8706284  12.9984550  34.3219185  66.3207245
  13.6625566  34.8685646  65.0752792   5.3029137  39.0698090  23.0500145
   4.3535666  39.1824875  23.0023041   5.5102406  39.1751175  23.9785385
   3.8383436  55.4595528  75.8431854   3.6566021  54.5465355  76.0658875
   3.8211589  55.9188766  76.6828079  53.1523399  31.8876953  32.1793213
  53.7876320  32.3798332  31.6592865  53.6687126  31.5045471  32.8883972
  29.4925575  53.4194298  58.7552986  30.2463493  52.9067459  59.0471687
  28.8390827  52.7651138  58.5081635  78.6346054  40.4547691  11.3527927
  79.4208374  40.8961563  11.0314751  78.2608109  41.0643921  11.9890852
   2.7000906  55.7488632  33.5175781   3.1686218  56.4799576  33.1148224
   1.7774349  55.9985733  33.4667511  72.3134079  67.1336212  76.4393768
  71.5503464  67.1404266  77.0172348  71.9643555  66.8808289  75.5846863
  48.6338577  23.0338898  38.3540001  48.5559845  23.9477386  38.0800476
  48.4612503  23.0505066  39.2953606  80.9658585  14.2091627  41.7423248
  80.0496140  14.0892487  41.9920273  80.9269562  14.6111593  40.8745003
  12.7933540  61.8326530  73.9383087  13.0898685  62.7076912  74.1885529
  13.3507137  61.2381783  74.4404831   1.7771966  26.1009197  15.4250689
   1.4963582  25.2095070  15.6318178   1.0123454  26.6435547  15.6168537
  44.2340469  70.3262787  76.8597641  43.7844315  71.1659164  76.9550400
  44.6072769  70.1549759  77.7243958  12.8124323  33.2412682  19.0048256
  13.1338654  33.0204163  19.8789749  12.8110714  32.4086113  18.5326900
  35.1587601  16.4345646  10.6827660  35.6228714  16.7842007   9.9221172
  34.2613983  16.7523022  10.5826902  85.2915344   6.4305086  48.4381485
  85.8375702   6.4277668  47.6519699  85.1304474   7.3574014  48.6146431
  39.9571724   3.8731692  14.9502583  39.0550156   3.9091251  14.6323652
  40.3771095   4.6431217  14.5667791  67.6128616  62.8165550  29.1214905
  67.5425186  62.1971207  28.3951397  67.5117950  62.2779083  29.9062691
   4.9212766  26.5380211  80.2533646   4.5848765  25.6732559  80.4884109
   4.5266175  26.7251511  79.4016266  47.9748192  63.7897797  57.0950851
  47.2919998  64.1615067  57.6534805  48.3870811  64.5491104  56.6831436
  75.7520142  10.8950968  39.9694595  75.8359375  11.1866655  40.8773041
  76.5807800  11.1441135  39.5603409   2.9265661  41.8508224  76.7536469
   2.2434814  42.4699440  76.4961243   3.2100239  42.1522903  77.6167831
   4.4968972  44.0467224  32.4806709   3.8686626  43.3559113  32.2701073
   3.9729326  44.7253799  32.9062462  82.5303879  36.1254539  71.6165466
  81.8837814  35.4968567  71.9374771  83.3365097  35.6166573  71.5297699
  63.4856567  38.6384811  48.4937859  63.1618576  39.5316162  48.6108170
  64.2934799  38.6075020  49.0063210  53.8309517   8.3649445  71.6797867
  53.1482315   8.6110363  71.0556335  54.2810898   7.6292348  71.2646484
  68.8003387   4.4082799  29.3772278  68.9006042   3.4712617  29.5450802
  68.2574692   4.7242455  30.0995140  69.2569504   3.5463161  46.5351067
  68.4915924   3.9401476  46.1163406  69.3217773   2.6748471  46.1445045
  60.8027534  31.0092182  56.9189720  60.4811668  30.3903561  57.5745850
  60.7907600  30.5165730  56.0983696  75.9799347  25.4910641  56.4618378
  76.8636627  25.6952877  56.1559868  75.5606003  25.0641632  55.7147446
  39.3988914  44.3986511  81.7007904  39.0053940  45.2357750  81.4545822
  38.7354965  43.9725876  82.2435684  80.2397537  13.9298954  78.3366241
  80.4199142  14.6802645  77.7703094  79.7402267  13.3279362  77.7849503
  57.5355949  25.9299068   0.8580797  57.7139893  25.7749939   1.7856624
  56.6088562  25.7145367   0.7531832  84.9218063  25.8378143  68.4738922
  85.1603470  25.9250546  69.3967819  85.4396286  26.5082569  68.0282593
  50.7921333  41.5229492  16.2825146  51.1402512  41.9531860  17.0635052
  49.9682541  41.9771461  16.1059875  43.7590599  62.1386642  17.8174362
  43.2276039  62.0786781  17.0235939  43.2242088  61.7258720  18.4954967
   6.0862069  40.0901985  67.7922668   6.5940089  39.3683853  68.1628723
   6.2000599  40.8078384  68.4153748   7.9234471  39.9963303  74.5950470
   7.6835809  40.8831367  74.3262253   8.2310600  40.0941772  75.4961777
  64.8532486  32.8152275  86.4053268  65.7749939  32.8330078  86.6628189
  64.7351608  31.9576263  85.9969101  73.6992340  27.4697514  88.2910156
  73.0825653  26.7670059  88.0858307  73.1537323  28.2526855  88.3663177
  35.6372490   1.3631536  37.9155769  35.9355392   1.3826711  38.8249016
  35.3849487   2.2670047  37.7268181  18.3705006  53.7489624  25.1829796
  18.5257626  54.5040588  25.7503891  19.2409554  53.3813896  25.0299072
  36.0449677  45.2586746  12.2148609  35.2006493  44.8244972  12.0929909
  35.9797897  46.0594902  11.6945953  18.0120888  55.5082054  64.9731827
  17.1852436  55.7311478  64.5455704  18.5872402  55.2391396  64.2569199
  82.4909363  30.5186501  84.8504257  81.9729996  31.2949333  84.6374512
  82.9729156  30.3243542  84.0465775  80.8991852  52.1801949  61.5258865
  81.2807388  51.9416313  62.3707161  80.6439590  51.3450432  61.1339531
  21.6623383  26.8760643   1.9912275  20.7967110  26.4699364   2.0357065
  21.5416393  27.6353817   1.4210527  54.2042007   9.3421507  30.9908028
  54.5489426   8.7367935  31.6472530  53.9538879  10.1195984  31.4899521
  47.1740494   9.3198423  75.8274536  47.6741104   9.9207230  75.2750778
  46.5297279   9.8764963  76.2647324  62.6813126  15.9331808  11.8653173
  61.8624649  15.5950966  12.2278290  62.5853615  16.8847885  11.9036398
  55.0764236  54.5104942  59.2415848  54.2583809  54.9657593  59.0421638
  55.7564087  55.1712799  59.1103821   4.1525741  66.8510971  20.8384838
   5.1011562  66.9748230  20.8050747   4.0392885  65.9307175  21.0757465
  11.1973314   8.7867174  60.5169487  11.1796331   9.6955938  60.8167191
  11.8014212   8.7911253  59.7744637  57.7216110  52.2377434  70.9958572
  57.8495102  51.3293304  71.2690887  57.5796738  52.1858406  70.0506668
  19.3036919  69.2708054  74.1704102  19.7643738  69.9165115  73.6346359
  19.1420784  69.7196274  75.0002747  51.5824432  19.9097996  61.2274399
  52.0105133  20.6434765  60.7861824  50.6716194  20.1874695  61.3250809
  59.9521523  43.8625832  62.5913658  60.2443542  42.9519234  62.5520325
  60.1771851  44.1482964  63.4767838  80.5053177  27.4288197  62.7613068
  81.2859955  27.4909115  62.2109261  80.7652817  27.8278923  63.5916061
  29.1382751  20.1741772  77.7485046  29.2482624  20.3960400  76.8238907
  29.5253277  20.9120960  78.2195663  53.1484909  38.4246063  24.2591629
  52.5606079  37.6724815  24.3293991  53.7133064  38.3598633  25.0292454
  83.7761307  20.1954556  45.5596046  83.3949051  19.8223648  44.7648048
  83.0251694  20.5235023  46.0542564  70.2477264  34.8869019  79.4026871
  70.4153671  35.8245010  79.3076248  70.0519562  34.7716637  80.3325424
  67.5476227  38.7009506  87.3489227  66.9604263  38.5732155  86.6038666
  67.8033295  39.6219101  87.2972107  47.7291641  71.8774261  34.4658394
  48.1564522  71.0922318  34.8080826  48.0186729  71.9299316  33.5549812
   8.2494164  11.9154034  77.4842758   8.1817255  12.8484583  77.2816467
   9.1516657  11.7998743  77.7823181  42.1331711  64.4686966  28.5799408
  42.9226990  63.9674187  28.3759842  42.3483543  64.9367218  29.3867092
   2.5966871  51.8921547  81.7669754   3.5488772  51.9860153  81.7944794
   2.3558843  51.6319847  82.6561127  59.7066841  42.6015587  54.2662277
  60.5065842  42.2705307  54.6746559  59.0334702  42.4969406  54.9385872
  65.5702667  14.2772093  54.9022026  64.6521301  14.1206503  55.1230125
  65.8776474  14.8861122  55.5737534  17.9466267  37.6415405  11.7194071
  18.0168133  36.7423859  11.3987446  18.8414154  37.9795113  11.6825294
  84.0710831  35.1979637  75.2025146  84.7044754  35.3932304  74.5119247
  83.5563126  34.4690285  74.8562469  47.7038574  64.8428040  62.6656303
  47.7438774  64.0253830  63.1620674  47.2950516  64.5989151  61.8351898
  23.6621952  20.9332447  63.1064796  23.5812416  20.0205097  62.8297272
  24.0983009  20.8877506  63.9573479   5.2955976  35.7859993  86.5378036
   6.0868502  35.4821053  86.0930557   5.5554910  35.8752060  87.4547119
   6.0848107   4.8344865  52.5267334   6.8477392   4.7064271  51.9630203
   6.2201104   5.6962624  52.9207726   8.4805975   0.9339540  25.8939762
   8.8770132   1.3571591  26.6555443   9.0658760   0.2033326  25.6942940
  73.8553543  42.9213753   0.2115309  73.3453445  42.6608086  -0.5554318
  74.4375992  42.1794891   0.3753234  67.5692520  20.5630894  70.9274216
  66.6794891  20.9158115  70.9389572  67.4741135  19.6852036  70.5579681
  18.8617573  50.8827057  15.0199776  18.5612087  50.8571129  15.9284086
  19.8115463  50.7794724  15.0789309   1.3666304   9.5008678  88.2042847
   0.4977891   9.8884983  88.0989761   1.1968547   8.5728426  88.3660812
  77.7995911  45.8725281  74.6899490  77.0837173  45.5433922  74.1464157
  78.3436279  45.1037140  74.8607559  48.7407227  21.3531265  23.1155052
  48.6493301  22.3054733  23.0852413  47.8557777  21.0225639  22.9611340
  22.5397549  24.1310501  67.8030243  21.7464256  24.4353104  68.2437973
  22.3866272  24.3195782  66.8771515  15.3309889  48.3384094  19.6373501
  14.9441338  48.5833511  18.7967682  14.6230125  47.8981285  20.1076221
  65.0907745  36.1148300  71.4166260  65.7072449  36.5384598  72.0138931
  64.6232605  35.4832802  71.9632645  61.0886536  51.1560478   2.9635031
  60.9752159  51.8382034   3.6253393  61.0779839  50.3372650   3.4591956
  20.7380810  38.8196526  62.7701416  20.3833103  38.9376106  61.8889732
  21.6851139  38.9053040  62.6604958  75.7619781  34.2575035  57.9199448
  75.6940689  34.8533440  58.6659966  75.0991211  34.5689125  57.3036003
  53.9680977  24.1408405  23.0952740  54.8412514  24.0001926  23.4614048
  53.3990898  23.5634594  23.6042843  67.3108597  68.2495804  16.9069614
  67.0967560  68.4569778  17.8165646  66.9433365  67.3768387  16.7673969
  50.9109955  36.4259224  67.9189987  50.0179901  36.0822678  67.8931503
  50.8022385  37.3768005  67.9037781  42.7036819  67.4414368  74.2292709
  42.0635834  67.4711456  73.5181961  42.1963005  67.6384811  75.0166550
  76.9854202  23.6008644   9.0129423  76.1063080  23.9271355   9.2051592
  77.2095108  23.9978580   8.1712713  15.4307203  38.0464363  84.8344955
  15.1084213  37.1496468  84.9246216  16.1087875  38.1258163  85.5054321
  64.4436035  14.0524740  42.2145309  64.3519363  13.5510054  43.0246887
  65.2199097  13.6850319  41.7919502   5.0175657  61.7661591  13.6671419
   5.6098647  62.3626480  14.1249790   5.2673254  61.8407402  12.7461157
  40.9167023  30.9665642  18.5736580  41.5106773  30.3994312  19.0653763
  40.0549469  30.7990379  18.9551601  41.2129707  70.9765091  43.6854477
  41.7257233  71.0257187  42.8786697  40.4768028  71.5702591  43.5379601
  54.0243607  46.1931343  35.8087845  53.0896072  45.9948158  35.7527657
  54.2796059  45.8990784  36.6832085  18.0533752  41.0714798   8.7796974
  18.2119274  41.9409828   9.1471987  18.8108273  40.9070854   8.2180262
  49.5338593  29.2966137   0.5106141  49.6392097  30.2459545   0.5729468
  49.4221230  29.0080433   1.4164146  20.4400043  62.6546364  80.3876266
  20.4102859  62.4001884  79.4653473  21.3737392  62.7074203  80.5915604
  11.6581879  45.3067322  49.5731544  10.8826065  44.9190178  49.1677132
  11.4701338  46.2448578  49.6012459  44.2722168  46.2176628  34.4530945
  44.4748039  46.2358360  33.5177536  43.9460716  45.3315887  34.6103477
  26.7187023  70.7921982   1.8654974  27.6347466  71.0283737   1.7195023
  26.2441998  71.2220459   1.1539432  68.3712311  24.7294312  64.1739349
  69.1534424  24.1818066  64.2408752  67.6417084  24.1111336  64.2155991
  17.5112686  62.0275612  48.7757187  17.8902798  62.8696251  49.0277405
  17.8497677  61.8665466  47.8949661  71.3436050  62.3025436  33.6537209
  70.5023575  62.1818199  33.2133064  71.1570816  62.9193916  34.3614883
  46.0433960  15.8038607  85.9177246  46.8704376  15.9517498  85.4590683
  46.2977142  15.3911715  86.7430954  70.0429993  55.0925407  88.4196777
  70.0955887  54.3450050  87.8241501  70.9489365  55.2521248  88.6843414
  54.2218933  25.0271168  60.4154205  54.0879745  25.3196049  59.5138969
  54.4052200  24.0907745  60.3387108  26.8553429  63.9910164  13.3887911
  26.9428787  64.4522781  12.5546408  26.0624142  64.3555450  13.7820005
  27.0192814   5.4139204  23.3928757  26.1092625   5.1220880  23.3387394
  27.4147091   5.1185904  22.5727234  53.2809944  11.3690329  83.8832016
  53.8375816  12.0619669  83.5278397  52.6197243  11.8327808  84.3969040
  59.5154381   3.1242576  35.4932709  58.6173477   3.4368773  35.3840485
  59.8101463   2.9269123  34.6042061  70.1893311  50.8299217  11.2383070
  70.0996017  50.3103371  12.0371895  70.7819595  50.3198586  10.6861582
  43.6037521   7.7158670  73.9481125  44.5365295   7.7017450  73.7337189
  43.4483757   8.5988998  74.2832870  40.6175385  64.1933594   1.9203607
  40.5332565  64.7740250   2.6766427  39.9385223  64.4895096   1.3141723
  58.3618202   0.3423586  64.4202499  57.7342300   0.5743130  65.1047668
  59.0065384  -0.2092225  64.8633423  32.8580856  62.9422569   2.8609316
  32.1194763  62.6379814   2.3335781  32.6212387  63.8349724   3.1123161
   0.5398908  55.3994141  71.3488693   1.4408337  55.6689682  71.1703415
   0.5744210  54.4429436  71.3631363  24.6579056  69.0562668  52.0970764
  25.2712479  69.7903976  52.1302223  25.2107430  68.2887115  51.9506035
  74.4023819  15.9756927  70.5079269  74.7091522  16.4274082  69.7217484
  73.4926300  15.7494345  70.3145523  81.2865677  56.5331039  77.4532242
  80.9004822  55.6599083  77.3846588  80.8446655  57.0442772  76.7752457
  55.5019569  54.4522057  54.5926056  55.7969551  54.2726059  53.6998863
  54.8969307  53.7380943  54.7931557  67.6827393  22.4263859  17.2152805
  66.8665619  22.8119030  16.8967495  68.3483200  22.7313213  16.5986423
  46.5279961  19.6991596  56.6469879  47.3859367  19.3115158  56.4740639
  46.4007225  19.5885715  57.5892220   3.1489744  57.4041557  40.7969894
   3.9496367  57.7208519  40.3788033   2.7224007  56.8719215  40.1254272
   9.0280638  27.0109425  71.3781357   9.2084341  27.9504490  71.3460846
   9.7923985  26.6061859  70.9680176  57.2443924  18.9653606   5.2106562
  57.5203171  18.7586441   6.1036081  56.3060951  19.1397800   5.2842283
  71.2199554  37.2739220  37.1188965  71.7766266  36.9903030  37.8440971
  71.1147156  36.4915428  36.5775681  82.6880264  31.2497272  22.0527878
  82.0198975  31.2511826  22.7382278  83.4556503  31.6453094  22.4657154
  46.1036911  45.8448868  76.4150391  46.4598045  45.9100075  75.5289383
  45.3827782  45.2199059  76.3381195  20.6432762  44.8835754   4.9759011
  21.0400391  45.2293625   5.7754273  21.1322212  44.0811310   4.7935662
  23.6914425   2.8436525  53.9546089  23.5327454   3.7500684  54.2181587
  24.3609829   2.5310330  54.5630646  78.0044861  35.8747635  31.9589100
  77.1594086  35.9035950  31.5103130  78.5100708  36.5846977  31.5631657
  84.5524673  17.8329754   4.3084645  84.5131989  18.7121468   3.9319685
  85.2613449  17.4001236   3.8326893  86.4824142  70.3957748  29.6331520
  87.4255219  70.2599792  29.7244759  86.3909302  70.9087448  28.8302059
  23.3185005  48.2938004  30.6407166  24.0679665  47.7177658  30.7914429
  23.6981621  49.1705627  30.5826073  14.1815071   3.9890356  81.7058258
  13.6519642   4.7780252  81.5904465  14.3253374   3.6649790  80.8167038
  54.0261497  70.6679382  12.4353018  54.6361618  71.3686523  12.6657648
  53.2765236  71.1205063  12.0486794  69.0804138   8.7168360  28.0461273
  68.7752151   9.0290833  27.1943169  68.2832260   8.4465389  28.5018234
  37.8173561  64.7373352   1.2026911  37.1327019  65.1695862   0.6921679
  37.3630905  64.0323486   1.6640708  32.0268478  33.9997673   0.3354437
  31.8397293  34.8230820  -0.1155229  32.5742378  34.2528687   1.0787714
  38.8431511  70.3395538  87.8537750  39.1950607  70.3367767  88.7439346
  38.5215149  71.2320175  87.7261581   3.0688839  57.1358070   3.8704178
   3.0957682  57.8316765   4.5271349   3.9249523  57.1756554   3.4440482
  81.5849457  55.0566025  48.9331055  82.1788330  55.0160255  49.6826897
  80.7284546  55.2462578  49.3161087  57.0271072  36.1318855  75.5886307
  57.5571976  36.8936920  75.8229141  57.0257568  36.1262512  74.6314468
  30.8636990  51.0013123  46.7539558  31.7524319  51.1489487  46.4305534
  30.8522682  51.4115448  47.6187134   1.9399517  19.3370266  45.6147728
   1.1834062  19.6024532  46.1376648   1.6131994  19.3137798  44.7153702
  18.9684315  62.5472946  43.5864220  18.3139458  62.0511284  44.0780525
  19.1096134  62.0345497  42.7905655   3.1345954  51.2184792  37.7838898
   2.7312877  52.0620270  37.9888306   2.6211920  50.8793793  37.0506325
  24.8903675  17.9270000  28.1893120  25.6319256  18.3249397  28.6453476
  24.9541664  16.9946537  28.3964157  13.4150791  28.4439030  67.6596985
  13.8691683  27.9437885  68.3378754  13.1002026  27.7818527  67.0442505
  45.4689064  43.4463997  52.7120209  45.3656464  43.4608421  51.7605171
  46.2017250  42.8497467  52.8643799  85.0245590  53.0452652  77.6823578
  84.1061096  53.0905647  77.4165878  85.4993896  53.4892044  76.9797363
  55.6477661  65.0331802  11.2247572  56.4604988  65.1710358  11.7112713
  54.9624710  65.0528793  11.8927479  53.7591782  58.9899559  43.2161331
  54.0650711  59.8543053  42.9412460  53.1357002  59.1692009  43.9199638
  68.1823044  57.9952888  58.2618675  69.0653152  58.2354126  58.5426788
  67.7042465  57.8447952  59.0773697  77.5741959  32.3783989  69.7717209
  77.0675812  31.5726833  69.6697845  78.4398117  32.1625481  69.4248047
  44.6766891  58.5376587  40.6122551  45.1229401  59.3546066  40.8351669
  45.3788376  57.9491310  40.3350372  75.2709427  37.6191673  73.4161301
  75.1879272  37.6108093  72.4625702  74.4029617  37.8729362  73.7298965
  51.8280144  31.4533615  87.1000366  52.3731194  30.7093945  87.3561707
  51.0079575  31.0585938  86.8035583  66.1626892  33.5420380  60.3452187
  66.9990768  33.9879150  60.2114944  66.1584854  33.3145943  61.2749977
  26.2240429  46.4850655  78.7803116  26.1817474  45.6503868  79.2469559
  27.0654449  46.8614159  79.0384445  18.6712704  20.5993958  86.4982147
  17.9245167  21.1727257  86.6710815  19.4290619  21.1841354  86.5061569
  65.7181702  21.8578186  50.6680794  65.8700867  21.8863831  51.6127129
  66.3178635  21.1832829  50.3493347  23.5622787  60.9101601  61.2214546
  23.2235222  60.8302917  62.1131401  24.4352055  60.5194321  61.2609787
  35.8161049  20.8595161  83.3743973  36.7620697  20.9870358  83.3028030
  35.6124878  21.0821342  84.2828064  63.6320496  52.3078651  78.7625504
  63.7227859  53.1874352  79.1290970  62.7393875  52.2829170  78.4179306
  76.0990372  58.9280968  13.8285637  75.9232635  59.6815300  13.2649384
  75.3939590  58.3115768  13.6310768  19.0924530  47.4965973  85.7113266
  19.5541515  46.9010735  86.3015976  18.4484024  46.9437180  85.2688904
  60.4756660  18.3465405  59.7694817  59.9585495  18.2110977  60.5635071
  60.0276680  19.0568562  59.3101501   7.6878023  42.2479820  16.8851242
   7.9072361  42.0406227  17.7934647   7.9987559  41.4931870  16.3853035
  40.9654655  15.0173731  86.5613861  40.5603256  15.7313757  86.0691528
  41.7057571  14.7431631  86.0200806  76.6086960  21.7645779  49.9655304
  75.7945786  21.9206295  49.4868965  76.9464569  22.6398506  50.1553917
  51.9702454  64.9677429  76.9294586  51.5142479  64.5788269  76.1831055
  52.4907875  64.2509766  77.2920990  75.8903580  34.4988213  67.6784821
  75.5934830  34.1472702  68.5178375  75.3694687  34.0315208  67.0253906
  56.8514595  69.8957825  29.7698669  56.6979065  70.8201294  29.5743389
  55.9754829  69.5138016  29.8245392  15.3545036   5.4789648  -0.2281228
  14.9014654   5.7096758   0.5829015  16.2317543   5.8479939  -0.1257479
  49.4188461   5.4939704  13.9443722  49.6811981   6.2702794  14.4390936
  48.7726364   5.8171463  13.3165197   1.7483256  43.5171890  44.8826027
   2.0716498  43.3145981  44.0047379   0.9229331  43.0372429  44.9505234
  37.3505630  64.7360916  29.7756920  37.0978775  65.6591949  29.7594128
  36.9675598  64.3688431  28.9790325  13.5193005   7.1730576  10.6030884
  12.6739807   6.8188128  10.3270884  13.5488482   7.0146041  11.5466204
  81.3662567  17.2534084  84.6600494  82.0182343  17.2652302  85.3607712
  81.8777924  17.3384323  83.8554840  32.2949944  59.2917824  78.0520325
  31.8079834  59.7997665  78.7008820  31.6588879  58.6607437  77.7152939
  49.4913902  47.1308517   7.1722107  49.4699135  47.8638878   7.7873740
  50.2711411  47.2878265   6.6396928  77.6925430  11.9655504  20.9070129
  77.3678589  12.4149914  20.1267471  77.7886276  11.0528231  20.6351147
  61.6627922  64.3282013   8.7334251  62.4767799  64.3522873   9.2364941
  61.9315033  64.0560837   7.8559418  66.7910995  54.5306091  43.3065567
  67.4255905  54.3195801  43.9914818  66.7621460  55.4872818  43.2934036
  67.8413925  64.9548492  86.7767029  67.3998184  64.4667969  86.0816879
  67.1409454  65.1939621  87.3836823  33.1126137  58.9306908   8.7572289
  32.4029350  58.7360992   9.3693743  32.7500534  59.5979156   8.1744833
  26.0580502  18.0171223  80.0479279  26.7356777  17.7248173  80.6575241
  25.5353775  17.2336159  79.8771439  18.0976849  53.3288574  29.1014423
  17.1566582  53.2453537  28.9474125  18.3807564  52.4459038  29.3391342
  86.2275620  41.4354210  79.3797379  86.9466934  41.0242233  79.8593216
  86.2070847  40.9772415  78.5395737   5.1437387  38.2134171  25.7066078
   5.3428211  37.9236259  26.5968990   5.5013337  37.5255241  25.1452198
  84.9922714  50.7173996   0.6229501  85.4314728  51.5668716   0.5812515
  85.2994537  50.2505455  -0.1541711  78.5634537  12.7243319   0.3767897
  78.9419403  11.9324141   0.7586911  79.1019363  13.4370556   0.7207324
  54.9689140  63.1425476  72.1891174  54.2549973  63.7317619  72.4328003
  55.4535942  63.6193657  71.5153503  30.6914787  47.0452118   4.7242575
  31.6483936  47.0647125   4.7114172  30.4714413  46.6375389   5.5618849
  46.9385567  49.2276955  76.0060654  47.7492714  48.8525543  75.6622009
  46.3927002  48.4692039  76.2133255  81.3532791  70.4979095  24.9166584
  81.9260406  69.7348709  24.9938087  80.4955978  70.1326065  24.6994686
   9.4015427  53.2013092  53.4908028   8.6376400  52.9116516  52.9920235
   9.2618465  52.8482056  54.3694572  74.4818726  11.4806881  74.1284637
  75.4352417  11.5274658  74.0568848  74.1996002  11.0768356  73.3078232
  61.4233246  11.7213831  28.6481590  62.0495453  12.4214573  28.4638290
  60.8775215  11.6754379  27.8631649  34.5637474  16.6815109  14.5504599
  34.6527748  15.7993002  14.1898918  34.4729080  16.5466824  15.4937534
  22.2777805  21.3001900  67.4758377  22.2679691  22.2538986  67.3947525
  21.5150814  21.0094433  66.9758530   7.7645884  46.9692192  75.3388596
   7.7163887  47.6836205  75.9741058   8.4836655  46.4196663  75.6505508
  38.4280281   9.2784662  68.2997971  38.9424248   9.7837448  68.9293365
  37.9286232   8.6636105  68.8371811  85.5027390  29.3260956  76.6137924
  85.5660553  29.3704243  77.5678635  85.9941330  28.5393963  76.3774338
   6.0515156  44.7877274  76.1357346   6.7362294  45.4563255  76.1163559
   5.2351861  45.2828255  76.2044067  74.6463699  69.4033661   4.0972009
  75.3945084  68.9357071   4.4684453  74.0191498  69.4622803   4.8178601
  83.8703308  53.8199577  20.4575901  83.1359177  54.4245110  20.3509045
  83.9158249  53.6624260  21.4006405  65.9601212  52.1497040   7.2135715
  66.3558044  51.6102333   7.8981457  65.2242966  51.6281548   6.8929744
  19.0596390  71.4939575  14.2737904  19.4687595  72.3070450  14.5700035
  18.8531952  71.0219727  15.0805359  60.0493202  61.2290497  16.6667671
  59.5793800  60.8260384  17.3968182  59.3909416  61.7653236  16.2249756
  39.6808434  54.4577904  29.0684376  39.6068611  55.2443314  28.5279655
  38.7808609  54.2593956  29.3270969  73.3323517  19.6008186  46.0055771
  73.6487198  19.0231400  45.3110046  73.4108200  19.0798092  46.8047180
  53.8969879  37.4507027  36.9176178  54.5526657  37.7312431  37.5560608
  53.3740005  38.2349014  36.7510414  33.2606812  17.2416019  72.6644745
  32.4480133  17.1916656  73.1677704  33.9527283  17.2349873  73.3257294
  36.4164619   6.4238710  79.7311325  36.7339516   7.3029737  79.9375534
  35.6641731   6.5694742  79.1574631  34.3168068  53.1520615   7.1962762
  34.2066078  53.4267159   6.2859716  35.1146584  53.5950050   7.4851828
  38.4727020   1.9172275  37.6936302  37.5751381   1.5847102  37.7000504
  38.4109726   2.7648194  37.2531662  33.4574928  56.9035835  18.7312431
  33.8911057  57.2002907  17.9311333  34.0797348  56.2947655  19.1292267
  76.5132751  58.9566002  72.9611359  77.1750946  58.7305908  72.3075790
  76.9812546  59.4944458  73.5998383  23.9735260  47.7851830  60.8410149
  24.7831917  47.4904404  60.4241219  23.7185440  48.5634422  60.3455009
   7.2649713  48.7662086  27.4034309   7.2016730  48.2336311  28.1962662
   7.4999709  48.1439934  26.7150612  24.9418564  60.4735909  24.4999580
  25.5600605  60.1837463  25.1708126  24.7946129  59.6979218  23.9587688
  35.4223862  67.7619095  38.2127190  34.8181915  68.4649124  38.4514046
  36.2863121  68.1738510  38.2258034   6.8395419  33.7530174  32.2226639
   6.7852483  32.8057137  32.0965652   7.2886872  34.0734100  31.4404564
  29.1491547  63.2732506  80.6887741  28.5578804  63.4870262  79.9670258
  29.6993809  64.0504608  80.7858658  43.6754227  51.1620522   0.7296174
  42.7987518  51.2219276   0.3500184  44.1240463  50.5075569   0.1942585
  62.3276443  20.0213070   9.0366421  61.6676521  20.0621014   8.3445568
  62.9402542  20.7257500   8.8252230  79.4919662  41.5062065  56.7032928
  79.8513184  40.8438034  57.2934799  79.9061279  41.3252106  55.8595238
  20.9109898  58.0120773  58.4820786  21.2840347  57.1737709  58.7546768
  19.9648819  57.8903313  58.5613823  50.4782867  52.1056938  43.1026382
  50.3313065  51.4873199  42.3869286  50.4220314  52.9675064  42.6899109
  37.7703934  67.0830460  71.0440369  37.0471344  67.1413574  70.4197540
  38.2797890  66.3276520  70.7505569  24.9985847  36.9640694  32.4834061
  25.8547058  36.6942749  32.1509895  24.4274693  36.9477844  31.7154236
  23.0373745  69.9316254  72.3945999  23.0451908  69.5560303  71.5142059
  22.3934155  70.6382751  72.3478165  69.2110596  67.1097412   7.5738616
  68.5925751  66.5019226   7.1685534  69.0959930  67.9271545   7.0892692
  24.3387032  20.7318726  69.3102036  23.4807415  20.7264080  68.8858185
  24.2724152  20.0643501  69.9930267  33.4866409  47.7665825  26.5316334
  34.3311615  47.7541389  26.0812263  33.3155746  46.8493309  26.7452259
  54.3895493  68.7552948  43.2339516  54.4514236  69.7100220  43.2038307
  55.2739487  68.4514008  43.0296974  72.1186142   2.9994943  67.2033005
  72.5196609   2.2695651  67.6750946  72.8325195   3.3707476  66.6848984
  75.5038605  30.2689667  69.9401855  75.3054504  30.5841408  69.0584030
  74.9013519  30.7498264  70.5076294  39.3211632   2.3148694   9.7710199
  39.8324165   2.8297312   9.1467056  38.9198303   2.9659743  10.3465443
  15.5965290  69.7123032  84.4963226  15.1769495  70.5718613  84.5330811
  15.0849295  69.2234268  83.8517380   0.6100247   6.3239832  88.4700623
   1.2125461   5.6693473  88.8231201  -0.0893455   6.3815961  89.1210556
  53.5550613  19.3989944  63.4346237  53.4854774  19.5431786  62.4909058
  54.2935638  19.9439774  63.7063675  51.9801521  13.7731400  34.1227760
  51.4553909  12.9746284  34.0658798  52.7357826  13.5256948  34.6557121
  77.4826736  55.4815216  22.8427010  77.2483673  55.4887314  23.7707539
  76.6643066  55.6797943  22.3875122   2.3180914  59.4740715  66.7215195
   2.7924619  58.7907562  66.2479324   1.6402535  59.0030785  67.2062225
  59.8972282  16.5819931  39.6362305  60.2021065  17.4836960  39.5351753
  60.4762001  16.2063122  40.2994728   3.4222598  63.7201309  10.8677149
   2.7278006  63.0692596  10.9693327   4.2334023  63.2138977  10.9125032
  82.4952774  65.0269775  63.6907539  82.7691803  64.9035416  62.7819252
  81.7434692  64.4438629  63.7956314   7.4874859  68.0669861  58.0360374
   7.0418563  68.0383606  58.8826942   7.9004774  67.2074051  57.9535713
  15.2183905  23.3168831  71.5149307  15.3213720  23.4057465  70.5674438
  15.5706558  22.4493675  71.7138214  52.6293182  22.2219963  88.1705933
  52.9605637  21.3597679  87.9194489  53.3631020  22.8159046  88.0122681
  57.5085831   5.9752746  11.5155458  56.8256798   5.3169265  11.3872843
  58.0867119   5.5949755  12.1768885  49.8088646   1.9272373  10.2828922
  50.2390480   2.7645440  10.4563665  48.9375305   2.0213499  10.6677942
  76.2676544  43.8650246  45.0460205  75.3956451  44.0756607  45.3798866
  76.8275528  44.5661964  45.3793373  14.7313490   4.4155517  57.6017189
  15.3134871   4.2841997  56.8533287  15.2342548   4.9651322  58.2027855
  55.0192146  67.7243347  30.0024490  55.2792053  66.8508759  29.7096939
  55.3531647  67.7862625  30.8973656  32.2067413  50.4637413  64.1416397
  32.7325935  51.2619629  64.1921997  32.8449593  49.7525482  64.1974487
  54.3282776  14.4387417  85.1225586  54.9036407  14.6376181  85.8612366
  53.7097015  13.7947769  85.4673843  81.7206650  66.2011871  12.5193958
  82.0230560  65.2933121  12.5429115  82.1863632  66.6274567  13.2388716
  84.9071045  20.3545589   3.4199300  84.0147705  20.5152607   3.7267497
  84.8894958  20.5975075   2.4942424  10.8659468  68.0091858  59.7600517
  10.4959469  67.2974548  59.2377739  11.2565279  68.6004562  59.1165619
  47.9063759  69.5442734  43.9100113  48.3746490  69.2231750  44.6806297
  46.9956779  69.2907333  44.0602608  27.4841194  15.4286594  65.0192642
  27.6571579  16.1001377  64.3594131  27.9406528  15.7383022  65.8015213
  78.6255569   6.5602136   5.5716271  79.1254501   5.7945476   5.8546309
  79.0493164   6.8358741   4.7588086  86.1665421  50.2286720  38.4090843
  86.4642258  50.0918732  37.5096931  86.2259216  49.3639183  38.8151741
  10.3869867   7.3216434  77.5141602   9.8848858   7.7861967  76.8445969
   9.8745070   7.4291201  78.3154373  65.8243256  17.2148209  26.0839748
  65.2910233  17.1652775  26.8773003  66.5722427  17.7583923  26.3317165
  25.1388893  23.6633606  68.3945465  24.3261890  23.8490295  67.9241486
  24.9285870  22.9116344  68.9485474  68.7061920  48.6934242  19.5176983
  68.4972458  49.3455658  20.1864929  68.1808929  48.9506378  18.7599812
  25.7290649  49.5968399  37.0860252  25.1059017  49.3306351  36.4099770
  26.3320618  50.1887245  36.6362534  76.7725830  39.8139648  71.9736252
  75.8367233  39.8153076  72.1746063  76.8182220  39.5781937  71.0470352
  55.1087723  16.5271225  -0.1904071  54.6470718  15.7044077  -0.3522868
  55.5615196  16.3880405   0.6414027   9.1917439  18.9214401  13.3547297
   9.9141026  19.0910892  12.7500410   8.5057516  19.5324440  13.0858030
  10.8155994  64.3272324  81.4987030  10.9288540  63.3769112  81.5157776
  10.8882179  64.5605087  80.5732117  51.5605545  39.0349693  21.8050537
  51.9764099  39.0291519  22.6671810  52.0252609  38.3599739  21.3104191
  87.0152969  28.3671799   8.8758068  86.6830444  28.7765617   9.6747103
  86.2296829  28.0936546   8.4022760  55.4425201   8.8244152  79.0580978
  54.7170906   9.4485388  79.0793686  55.3668594   8.3982363  78.2043533
  56.2592506  43.3251343   9.0307150  56.3471107  43.7043343   8.1562328
  56.1676903  44.0806389   9.6112900  32.6923294  66.8935318  61.9059677
  33.4873581  66.3733826  62.0226402  32.0737915  66.5311432  62.5402565
   0.7674406  51.6663437  34.0878601   0.4184670  51.0139198  34.6951408
   0.0023744  52.1724396  33.8144112  52.0242386  24.1053085  38.1166458
  52.6708679  24.6488304  37.6664352  51.1791267  24.4511337  37.8295593
   0.5533475  68.4700470   3.2692497   1.2695034  68.6318893   2.6551173
   0.5873300  67.5277176   3.4338500   2.8860393  23.2274799  47.7186661
   2.6614025  23.3572445  48.6400414   3.1684074  22.3143196  47.6672935
  64.9365387  24.0400925  21.3275833  65.5154037  23.3341312  21.6152649
  64.0642853  23.7644653  21.6094151  57.8832016  18.5997868  45.5947304
  57.1348763  18.8612251  46.1312866  58.1342430  17.7413845  45.9358368
  59.7533989  22.7546997  39.5922318  59.1006927  22.1813908  39.1903343
  60.4571877  22.8066711  38.9455376  53.8963737  58.0992622  12.1410942
  54.7419662  58.0303879  11.6978493  53.2505264  57.9799004  11.4447708
  57.4796410   2.1910830   6.5229802  58.1470451   1.6629865   6.9610634
  56.8710861   1.5505857   6.1546664   3.4829853  13.8818607  82.8040085
   4.0910449  13.5598755  83.4694595   3.8133500  13.5191374  81.9821091
  85.5943527  40.6268959  56.2194061  85.1220551  39.8121796  56.3908997
  85.5581436  40.7290955  55.2683678  78.1671906  47.6752548  51.3116760
  77.4389954  48.2136269  51.0016479  78.9389038  48.2312279  51.2040367
  75.4114609  11.8673706  48.9175262  75.3588791  12.6918907  48.4341698
  74.6341629  11.8672152  49.4761314  64.5321808   2.6732459  78.8720474
  65.1247101   2.7541080  78.1246490  64.9496155   2.0253043  79.4396286
   7.2534013  23.4952183  82.0882492   6.7869344  24.2932587  81.8397064
   6.7132049  22.7845688  81.7427063  41.3614235   0.5132825  20.3538971
  40.9626312   1.3303190  20.0544872  41.9910049   0.2888819  19.6686935
  40.3352661  70.8245316  36.8904839  39.4795113  71.2494354  36.9485817
  40.1520729  69.9691772  36.5018501  12.9163513  25.0807228  85.8867950
  13.2211599  25.4871960  85.0755615  12.0453987  24.7453899  85.6741409
  11.9962978  56.4233856  38.9857101  12.6901817  56.9896812  38.6479721
  12.0387249  55.6397285  38.4377022  10.1978292  40.3736076  40.0242195
  10.3261576  40.3442497  39.0761147   9.3705940  40.8411636  40.1395836
   9.4329453  11.9368477   6.4963231   9.5980387  11.4457750   7.3011980
   9.2678432  11.2646160   5.8352041  15.9712543  50.5796051  80.7025604
  16.0104218  51.3132896  81.3160782  16.5298615  49.9088516  81.0953522
  57.3678894  43.3639565  69.3942947  56.9269562  42.8765450  70.0901718
  56.7583427  44.0675201  69.1714020  24.2882919  48.7941132  78.4499359
  25.1846790  48.4790649  78.5659714  24.0469475  49.1500816  79.3050766
  72.4493256  21.2279243  71.3111649  72.2302246  21.9025650  70.6684494
  73.3752594  21.0411892  71.1562119  30.4275970  67.4918594  85.7693329
  30.8247185  67.5451660  84.9000320  30.5037708  66.5688782  86.0112686
  28.7176094  19.4463139  83.3792419  28.7610340  20.2486000  82.8589706
  27.7886906  19.3456211  83.5870895  20.2293949  29.7006550  70.3635712
  19.4410248  29.1629868  70.4385300  20.8610172  29.2825089  70.9487534
  19.2381210  48.1775894  23.9535370  18.7003746  48.8942146  23.6166344
  19.9533272  48.6125870  24.4177437  43.2627220  33.8333511  11.1010065
  42.6946259  33.8558044  11.8710680  43.1138649  32.9685326  10.7186909
  64.0805817  42.3776169  64.4939728  64.7616577  41.7362938  64.2913208
  63.7403755  42.1045723  65.3460007  33.5922279  58.6907349  54.1393661
  33.1942253  59.5029755  53.8261833  34.1064262  58.3740807  53.3966904
  71.5583572  15.0184288  51.2288742  71.1049652  14.7004776  52.0096283
  71.3634949  15.9552431  51.2035828  34.5293541  12.7310390  33.3387604
  34.1967430  13.5417814  32.9536629  35.2747650  12.4923401  32.7877464
  67.0582352   2.8591969  70.7457962  67.4749680   2.5039525  69.9607010
  67.1217651   2.1544578  71.3904190  50.2509384  44.0119171  67.4788589
  50.8357887  44.5551529  68.0071411  50.4483376  44.2565804  66.5747604
   6.8342123   5.6797676  59.6151085   7.5470257   6.2218294  59.9531860
   6.2692118   6.2929850  59.1450348  40.8311615   2.5374267  51.9327278
  40.2964630   1.7928419  52.2082710  41.3496590   2.2022934  51.2012367
  10.6489162  60.2779694  29.4308167  11.1920967  59.7559547  30.0213146
  11.2663412  60.8630524  28.9918461   9.6972561   4.9714527  65.7199020
   9.2889948   5.8143449  65.9176102   9.8516798   4.5733209  66.5765686
  75.1528625  18.0841560  32.4211197  75.4723358  17.5210629  33.1261711
  74.7320786  17.4829903  31.8064899  41.9650154  49.8420677   5.8736572
  41.4960213  50.1670189   6.6422157  42.7901001  49.5040092   6.2217779
  66.7024536  44.4946022  32.9509201  66.5244598  44.4472160  32.0116119
  66.8648376  43.5875435  33.2099838   9.4611092  26.0883350   1.8192894
   9.1282187  26.6882782   1.1518438  10.4006681  26.2676640   1.8553642
  42.1914291  33.7956886  17.1500072  42.1302338  33.0830574  17.7861252
  43.1115112  34.0586777  17.1727409  52.4452972  26.5221043  15.6053972
  52.6860313  25.6678295  15.9638519  52.9976845  27.1445675  16.0783024
  13.8271828  62.0737839  34.3968697  14.5078049  61.8646393  35.0365944
  13.8582363  61.3516312  33.7693634  32.3499641   4.5733099  41.2065773
  32.8887138   5.0005894  41.8724670  32.8797722   4.6098223  40.4102097
  15.3049059  58.1276817  33.7114258  14.7594719  57.4005737  34.0115089
  15.8899527  58.3078194  34.4472961  11.2832975  62.6019402  49.4603844
  10.3371058  62.6412926  49.3210869  11.5552673  63.5179024  49.5176125
  30.5353775   0.2927114  53.2703514  30.9895859   0.7840843  53.9548073
  29.8182449  -0.1470725  53.7270164  57.6302261  33.5800514  29.6042099
  58.3581161  32.9769058  29.7546082  58.0495682  34.4065475  29.3648682
  31.4939423  35.5494118  77.1980743  31.7006798  34.6614342  77.4896088
  32.0452995  35.6828308  76.4270706  68.3242493   8.3239450  15.7008104
  68.2504883   9.2522030  15.4791584  68.8644333   8.3085413  16.4908714
  53.7275200   8.2072248  61.7549858  54.6249847   8.3081560  62.0721741
  53.4528236   9.0953245  61.5268364  58.8162384   3.3015492  52.5880089
  58.0506897   3.5439036  53.1090012  58.7834663   2.3459070  52.5443535
  19.0877991  30.8979359  13.3139629  18.3592625  31.2976761  13.7890139
  19.4220963  31.5988102  12.7542734  66.9036407   2.5170979  37.3531227
  66.5859833   2.3298602  38.2364502  67.6196594   3.1389542  37.4828873
  69.1572800   4.1642132  36.7150650  69.6692581   3.9193120  35.9442635
  69.2455215   5.1158233  36.7687607  61.0710068   5.1700478  58.7886734
  61.9253616   4.7385697  58.8002052  61.1917763   5.9251337  58.2129211
  60.8719368  29.7604103   8.1826830  60.9965973  28.8432999   7.9385567
  60.5812111  29.7282639   9.0940990  23.3976364  54.9327545  44.3893700
  22.9777489  54.6770630  43.5680618  22.7701454  55.5239639  44.8052521
  29.1017094  55.9939194  28.7987995  28.2605286  56.1463242  29.2294025
  29.3279266  55.0923615  29.0273838  20.5412769  62.6533356  84.7609482
  20.9229012  62.6148415  83.8839569  20.9759426  61.9494209  85.2424088
  50.0628204  19.3258820   0.3832006  50.3125153  18.8191586  -0.3895312
  50.2736740  18.7552490   1.1222200  23.0502911  20.7891712  57.6804581
  22.5241013  20.5515366  56.9169884  22.5104828  20.5395546  58.4304810
  29.0013390  15.3155432   1.0437422  28.0912628  15.2867327   1.3389761
  29.5131721  15.3729515   1.8505645  22.7598400  31.0077724  28.6177635
  23.4799747  31.6288586  28.7267952  22.0361958  31.5366631  28.2818394
   1.5973616  33.3504257  87.0052338   2.3138154  33.4760056  87.6274490
   1.8132977  33.9264450  86.2718811  83.6443481  13.9328489  31.1600533
  83.8342743  13.8357544  30.2269230  84.1269073  14.7167826  31.4223881
  79.6003647  47.0314865  24.5391617  79.7065048  46.6853676  25.4252586
  80.4740753  46.9723892  24.1526890  64.4492798  65.4685287  12.1396770
  63.4979057  65.5653000  12.1815634  64.5941086  64.8225403  11.4483356
  76.3092041  25.4772854  14.5553675  76.0246887  25.2226086  15.4331055
  75.9088287  24.8288002  13.9762335  51.5371361   6.0082750  24.2704010
  51.2166824   6.6056471  23.5946159  51.3185463   5.1360431  23.9422836
  11.2895775  42.2036057  29.6253319  12.0360222  41.6309662  29.4488754
  11.6442595  42.8934898  30.1861267  61.5327415   4.2771883  52.4745064
  60.7931328   3.6726241  52.4135666  61.8877296   4.1336918  53.3517876
  16.6066113  66.4588242  56.9395905  17.2954369  66.3339005  56.2867928
  16.4957199  67.4081268  56.9921112  31.3766479  50.0447884  32.1043167
  30.7863235  50.4480515  31.4678211  31.3804951  49.1160812  31.8725414
  29.2943573  69.8705215  19.4775658  30.2125416  69.7708893  19.2260799
  28.8909550  69.0333862  19.2479973  36.2994003  25.7550316  69.2493362
  37.0723724  25.8114548  68.6875839  36.6323204  25.9177761  70.1318970
  18.3654613  14.4326649  27.4598331  18.2338428  13.6542006  28.0010376
  17.9015198  14.2392750  26.6452217  53.2604370  41.5738373  78.7407303
  53.3592033  40.7637100  78.2405624  52.5238609  42.0230255  78.3261032
  41.6446304  43.3872490  19.4561806  42.1888046  43.3041077  18.6731167
  41.3049622  42.5050697  19.6065750  28.4315491  32.7896729   6.5937538
  28.8013763  33.5548248   6.1533031  29.0066528  32.0671234   6.3419414
  75.0011063  57.3579407  17.8389244  74.8760529  58.0174675  17.1565647
  75.8742905  57.0031281  17.6719379  66.7209930  35.8255119  84.7128830
  66.2340698  36.6217613  84.5004578  66.3698959  35.1638832  84.1168900
  82.0720596  42.7314301  81.1452179  82.3709412  41.9365120  81.5868149
  81.3226929  42.4473152  80.6218109   4.0228195  44.9939194  45.1118851
   4.5563760  44.7072525  45.8530807   3.3470273  44.3211365  45.0288391
  28.2765770  12.5931292  17.2745037  28.8834877  13.0810928  16.7179222
  28.4185829  11.6766109  17.0377331  82.0905533  41.4591484  33.5160294
  82.9782562  41.7325020  33.7473259  82.1917267  40.5627480  33.1959305
  74.5745239  17.9420109  65.1861954  74.7803421  17.0103111  65.1100006
  74.8039932  18.3086033  64.3322678  18.4086018   7.6222796  61.7086983
  18.0617828   6.7301369  61.7031937  19.3540745   7.5123305  61.6075821
  80.1709595  13.1084900  20.6364670  79.3601685  12.7044849  20.9457150
  80.3815994  12.6365223  19.8307934  45.2641716  53.9375114  81.0610962
  45.4122086  54.8567657  81.2831116  44.9573746  53.5406265  81.8763199
  16.5853710  63.5810242  64.6450500  16.1121101  62.9852295  64.0642929
  15.9325800  64.2310944  64.9048691  77.9049911  36.0065231  15.7280836
  77.7099686  35.1250267  16.0461407  77.1410446  36.2463722  15.2035933
  12.5883331  68.0663452   8.0835228  12.5156260  67.4406586   8.8042641
  12.2422266  68.8842545   8.4405508  43.4130249  41.1127052   7.8111858
  43.5681648  41.7582436   7.1216617  44.0497551  40.4193459   7.6378121
  74.4275055  32.2157326  73.7686691  74.3517303  31.7285061  74.5890961
  74.7288742  33.0848808  74.0332184   8.0666342  61.8105888  53.0191345
   7.3805842  62.0901718  52.4129982   7.6214175  61.7259827  53.8622589
  26.3095627  67.8873749  85.7799149  26.3642368  68.2113953  86.6789398
  25.7561932  67.1085968  85.8392410  15.8147879  32.2656860  17.6674175
  15.9409456  33.1456108  18.0224495  14.8718214  32.2014160  17.5160332
  70.7187042  29.5839634   9.0497417  69.8159943  29.4378242   9.3325787
  70.6606445  30.3105049   8.4292593  18.5479431  43.5029411   6.4582987
  17.7872963  44.0267868   6.7097650  19.1452084  44.1290245   6.0490012
  47.9088173  14.0055885   6.8712816  47.1992493  14.1147051   6.2381635
  47.5051804  14.1947002   7.7183633   0.1561735   0.2312951  33.1336479
   0.3227777   0.9649552  33.7254410   0.2298250   0.6090319  32.2572212
  56.5473442  14.6497345  22.7593803  56.7327881  13.8838615  23.3027782
  57.3936005  15.0869541  22.6649075  86.5515594  18.4952087  78.3432083
  86.3506317  18.2534771  79.2473297  85.7323151  18.3520908  77.8693085
  46.3369865  25.1259537  62.4133682  45.5971947  24.5469494  62.5969353
  46.1142120  25.9461460  62.8536949  36.0133972  23.9143162  82.2989807
  36.1065102  23.6640415  83.2181778  35.6717758  23.1295090  81.8704910
  63.8592758  61.8674164   5.7908325  64.5189438  62.4242630   6.2043538
  63.0727959  62.4120102   5.7577009  37.5367508  52.2118721  39.4794617
  38.4406815  52.4084244  39.7254448  37.4254875  51.2861481  39.6959991
  26.9802666  19.4322567  70.6290817  27.4843159  19.3855667  69.8166809
  27.5952225  19.1562386  71.3086929  59.0615768  35.8411331   4.6885734
  59.4170227  36.7290382   4.7274957  59.5390320  35.3621063   5.3659220
  10.6764841  60.0236969  15.5138454  11.6311035  60.0918541  15.5307961
  10.3696547  60.8956184  15.7625170   3.5561783  61.2357635  22.4774990
   4.2020688  61.0014763  23.1439571   3.4233668  60.4295998  21.9788132
  53.5067024  37.2468567  32.4598083  54.2616196  36.6756096  32.3183517
  53.1640739  36.9838715  33.3140221  64.4488678  42.8383865  34.0221291
  65.0417404  43.5817947  33.9122353  64.9341812  42.2244186  34.5732498
  38.9374390  64.6900940  46.3988838  39.3999596  64.8789673  47.2153587
  39.5215073  64.0988464  45.9239960  84.4495239  65.1797791  17.9426422
  84.1067657  64.3441391  17.6256905  84.4272690  65.1015091  18.8963776
  30.8747959  69.9830170   5.4144006  31.0848312  70.7972946   4.9571557
  30.3330727  69.4935837   4.7953534   2.0530388  30.3390160  78.1205063
   1.4623868  29.7735538  78.6181107   2.1320488  29.9114876  77.2677383
  57.2042236  50.3820801  73.2208099  56.5075378  50.9588623  73.5341568
  57.6656647  50.1108475  74.0143661  17.4581890  61.7463379  77.5456390
  17.2960815  62.3174477  78.2965012  18.4121075  61.6953506  77.4850388
  14.7337484   9.1105347  87.1515121  15.5999804   8.9245806  87.5138550
  14.1284037   8.9196892  87.8680038  64.8548126  14.4765091  22.4114189
  65.5592499  15.0033464  22.7888374  65.0983582  13.5726156  22.6111584
  57.0729790  23.9213142  58.7361374  57.2858849  23.3247433  58.0184975
  57.2868729  23.4287567  59.5285187  57.8323250  37.3045959  62.7570877
  57.6177673  37.2120399  63.6853294  58.7837105  37.2059402  62.7201767
  49.3521385  14.3005762  86.4686584  49.0768547  14.9085321  85.7824783
  48.6862297  14.3912477  87.1502609  81.7333984  32.2286987  55.7976265
  82.1370621  33.0176430  55.4358826  82.4672089  31.6342373  55.9537468
  -0.1894141  19.1795425   0.0711666   0.2993420  19.9657001   0.3146950
   0.2389995  18.4722366   0.5532584  73.5464935  69.6571198  86.5457993
  72.6943817  69.6610794  86.9818192  74.1402969  70.0639572  87.1767578
  42.1758461  63.8808365  43.6314888  42.2707939  64.8323822  43.5894508
  42.1685448  63.6002007  42.7163811  40.0472260  11.1571407  12.6709843
  40.9180870  11.4463634  12.9433546  39.4469032  11.6267176  13.2500696
  77.2260361  51.5482140  31.1414051  76.7292786  50.9336700  31.6815968
  77.9901733  51.0494728  30.8523045   9.9334726  57.5019760  84.8478394
  10.1934881  57.3214073  83.9445038   9.0109224  57.2497139  84.8865128
  39.7594376  56.4999695  13.1673374  40.2496262  55.6837540  13.2660294
  40.4323578  57.1714745  13.0555954   5.1265211  45.2940407  37.4439888
   5.0405369  45.7322845  38.2906189   4.6659322  44.4625626  37.5568199
  63.4766426  13.0620337   5.7240462  64.0647354  12.4807272   5.2419086
  63.1761742  12.5371122   6.4659414  32.5289230  58.1524124  59.1185722
  31.7471085  58.3452759  59.6360664  32.4548111  57.2209969  58.9107094
  80.8842773  18.3927326   5.6252880  81.3643951  19.1103611   6.0384793
  79.9695129  18.5509796   5.8585238  36.2183456  23.7272148  73.9526520
  37.1472626  23.6967144  73.7237015  35.7882385  24.0593987  73.1646881
  52.4842377  65.6265793   6.2780528  52.2566566  66.0621490   7.0994639
  51.6757393  65.6435852   5.7659245  10.7796011  39.9002533  58.3962555
  10.4987936  40.4214134  59.1484337  10.0792313  39.2593307  58.2740669
  60.5948982  47.4924202  67.1347046  60.9925690  47.0890846  67.9063263
  59.6862297  47.1918259  67.1487656  62.0731964  30.4036884  13.7890358
  62.8051033  30.2781124  14.3930025  62.4719582  30.7801018  13.0044756
  74.0143661  39.9215050  51.2674904  74.2766495  39.2171593  50.6747551
  74.8226166  40.4055901  51.4366798  20.4656353  18.3877335  87.7141571
  20.2972775  18.3631916  88.6561127  19.8972683  19.0851517  87.3873520
  20.2227364  11.1684017   8.7347689  19.8356209  10.2943115   8.6863823
  20.2653236  11.3599634   9.6716366  76.0284805  20.8883286  32.3537636
  76.2751007  20.8839073  31.4288921  75.5855179  20.0504017  32.4875374
  14.9078875  58.0793304   7.9476194  15.3917961  58.7890816   7.5253396
  14.9695091  57.3484116   7.3326478  58.0716820  61.2613220   5.2922020
  58.4176712  61.6342010   6.1030569  57.7128181  62.0112190   4.8177457
  70.5262756  56.8947449  25.3376141  69.9033966  57.5960121  25.5286160
  71.1744461  56.9523392  26.0395985  70.7926331  36.8798637  46.6658173
  71.2001648  37.5332718  46.0973015  71.4919281  36.6113281  47.2617226
  75.1193542  35.9403725  32.2942886  74.6852646  35.1198502  32.5278130
  75.3892212  36.3155746  33.1325188  58.0127411  20.1624699  13.9736691
  58.1086922  20.9458504  13.4320583  57.3927307  20.4179859  14.6566992
  83.3995056  34.7393875  28.8404503  83.9751511  34.4398842  29.5441284
  82.7862473  34.0163689  28.7085953   2.7540474  62.7609825  83.4322510
   1.8081642  62.6354523  83.3562317   3.0775988  62.6933632  82.5339355
  10.5723991  71.3806992  55.4447174   9.9696064  70.8421249  55.9573746
  10.1528778  71.4604874  54.5880585  35.5550156  26.1021729   7.2994094
  36.2875900  26.4636383   6.8004985  35.4750214  26.6787930   8.0592394
  50.1007805   3.7316942  38.6539040  49.6531296   4.5528073  38.4499092
  49.5982742   3.3584383  39.3780594  59.6388359  36.6796036  12.3537178
  58.7684898  37.0562897  12.4834661  59.7002945  36.5383911  11.4089890
   4.9184685  55.7265434  68.6170120   5.6274185  55.4932404  69.2163315
   5.3066225  56.3724251  68.0267487  51.7214775  33.1359978  55.4011078
  52.1524162  32.8292160  54.6033554  50.7955360  33.1947441  55.1657143
  28.6837616  66.6555786  58.7370453  28.6503906  65.8752747  59.2904434
  29.3621483  67.2018890  59.1339912  59.4037933  19.5885277  11.3576183
  59.9444160  20.2296314  10.8961582  58.9824028  20.0891266  12.0562325
  77.0122681  51.0029488  73.7944717  77.4695511  51.1727066  72.9708786
  76.5558624  51.8217278  73.9881897  72.7931900  34.0482559   3.5894649
  72.6600037  33.1047897   3.6809247  72.4611130  34.4174576   4.4077854
  24.2005272   3.3333070  66.5615082  23.3809986   3.7280028  66.2634888
  24.8800602   3.9372761  66.2620239  38.2557640  16.3722668  75.0483170
  38.4083214  15.4273920  75.0613098  37.3363991  16.4698753  75.2962494
  47.6652756  51.9842567  17.9570560  48.6068954  51.8236313  18.0185642
  47.4892235  52.6384544  18.6332703  49.6870384   3.5196362  50.9097099
  49.4260406   2.7979367  51.4817772  49.6646233   3.1468117  50.0283852
  70.2976685   7.8209043  30.7480640  70.0024796   8.1716270  29.9077721
  69.6337280   7.1729026  30.9836712  31.9493275  60.4245605  62.9093285
  31.3118191  59.8863258  62.4401665  32.3903618  59.8135948  63.4996185
  26.2340679  56.2726593  68.6895218  27.0162678  56.6581573  68.2948227
  26.3034611  56.4891510  69.6193390  22.3606262  46.9437981  13.7874136
  22.4470520  46.6161079  14.6826115  23.1483898  46.6327705  13.3414059
  38.2690849   0.6449784  72.7316742  37.9077148  -0.0811858  72.2234116
  38.9947472   0.9718058  72.1998520  55.4146805  14.6236095   9.0297384
  56.2020721  15.1554947   9.1452541  55.7442207  13.7538433   8.8035946
   0.3976382  58.8736649  20.4387722  -0.4212789  58.4039078  20.5966759
   0.8232862  58.9076462  21.2954540  82.9376373   6.2234902  76.6054001
  82.3982162   5.4398646  76.4995956  82.4207993   6.7951732  77.1731033
   6.3647847  20.2206688  55.0898285   5.7456908  20.5829697  54.4560356
   7.1067367  20.8251801  55.0723763  73.4377518  63.4355392  73.5423584
  74.3184204  63.0869255  73.4041138  73.0678558  62.8850403  74.2325439
  12.6910782  49.5887794  61.2641640  12.2519817  49.5524521  62.1139336
  13.4210520  48.9749527  61.3453293  53.3382111  47.4290886  18.1163921
  52.8096161  48.1912651  18.3528461  53.6360092  47.6113243  17.2251358
  29.4358234  57.2755852  57.0298195  30.2265797  57.1246300  57.5476494
  28.9869480  57.9905701  57.4809723  24.6623077  23.9015961  13.3620329
  24.3227749  23.0948772  13.7495298  24.8551083  23.6684322  12.4539061
  78.9489746  30.0110226  36.8907127  79.3593750  29.7448750  37.7134895
  78.2026520  29.4196701  36.7930527  19.4085102  35.4946022   0.9976287
  19.7771740  35.5698051   0.1174786  20.1650867  35.3325882   1.5611672
  68.0228653  56.1452942  86.0916214  67.0923386  55.9381523  86.1779099
  68.4271240  55.7598686  86.8689575  47.1656761  54.6988945   0.7533301
  47.9198685  54.2656593   1.1529950  46.4292183  54.1158028   0.9373636
  19.1125927  57.9121170  32.4273872  18.4289780  58.5164375  32.7166977
  18.9649582  57.8161697  31.4865208  51.0936241  46.7825089  73.0991211
  50.5718422  47.0902977  73.8402252  50.5346451  46.1391220  72.6634216
  42.5602341  39.7766457  64.8007202  42.1847305  39.8820152  65.6748657
  43.5066261  39.7864609  64.9438095  19.5356922  54.2215767  76.0067749
  19.5954475  54.8315773  75.2715454  19.0060997  54.6821327  76.6576614
  60.6332664  32.4423828  54.6548729  61.1559067  32.2572937  55.4351425
  60.7841988  33.3713493  54.4803123  76.4235382  51.6377831  44.1677551
  77.1070099  52.2601166  44.4163628  76.5099030  50.9227104  44.7981873
  47.3362427  39.1470604  64.0788116  47.4552536  40.0930252  64.1637878
  47.5309029  38.9627571  63.1599159  48.0947723   0.4796227   6.1799321
  48.9224701   0.0999445   5.8849931  47.9214859   0.0535849   7.0193939
  45.9917183  68.1241608  31.8836365  46.8025932  67.6155548  31.8897934
  45.6250763  68.0009766  32.7592125  70.5072174   4.6987920   4.2451849
  69.6004868   5.0033498   4.2089257  70.8309479   4.8033123   3.3504739
  85.5965958  24.2767220  84.7187881  84.6906204  24.5704250  84.6229630
  86.0223999  24.9728432  85.2191238  78.1918106  50.2897110  20.1278038
  77.7492828  50.6799698  19.3740788  77.7014465  50.6091309  20.8852615
  63.8289719  22.5222263  44.7234383  63.8401375  22.7293701  45.6578865
  63.6107330  21.5909443  44.6871452  77.3793945  45.6286850  67.5416107
  76.8585815  45.1109200  68.1555405  77.4878311  46.4755478  67.9743805
  46.8808975  31.3347836  17.8368969  47.4816322  30.6085854  18.0041924
  46.1862869  31.2254963  18.4863605  26.6889381  64.7030945  31.1134605
  26.4560947  65.4414444  31.6763573  27.6326256  64.5979614  31.2344284
  18.6191120  64.4714279  72.0703888  18.9391479  63.6166153  72.3586578
  19.2715244  64.7702560  71.4369125  41.5018349  19.9645672   6.7940865
  41.1411591  20.5061646   6.0920792  42.0975990  19.3616161   6.3493967
  32.5888023  54.5827713  44.1519585  32.6937447  54.6008110  43.2006989
  33.4742432  54.7088432  44.4930344  86.6059647  52.9275780  56.2439995
  86.1012726  52.1620903  56.5188484  87.4735794  52.7917862  56.6248360
  40.3595200   6.0726533  77.2676697  40.4034805   5.9206500  78.2117004
  39.5175285   6.5079045  77.1341095  58.9684944  15.2914991  75.5709152
  59.3248787  15.3795319  76.4549179  58.0623131  15.5902681  75.6471405
  71.0395584  11.4896402  29.7034321  70.3551636  11.1124926  30.2562351
  70.5648193  12.0152969  29.0595837  29.5551491  43.3112755   4.0538702
  30.2090893  43.4286613   4.7429380  30.0316372  42.8847961   3.3416152
  66.9860764  62.9650154  53.1114693  67.7564468  62.8438072  53.6665192
  66.4489365  63.6017227  53.5829697  28.6420956  25.7669792  80.9372482
  28.4859905  25.2608185  80.1399612  29.4814262  26.2011681  80.7848129
  77.0013275   3.4799969  63.0990868  77.3301773   4.2688360  62.6680145
  76.6159515   3.7964997  63.9161186  42.6654472  70.3029022  69.3838577
  42.1027603  71.0468979  69.1691971  42.0626411  69.5648270  69.4738922
  69.5229645  58.2614250  52.6582718  70.3276367  58.7709274  52.7539368
  69.4393082  57.7881546  53.4860687   3.7820792  62.9048500  77.5234680
   3.4573538  63.4827919  76.8329849   4.6820168  62.7054863  77.2654037
  49.3765221  57.2813950  23.3613071  48.6172028  56.8524971  22.9667053
  50.0749016  57.1735420  22.7156582  82.4386368  36.6888046  10.7650366
  82.5696487  36.7940521  11.7073689  81.5157089  36.4508400  10.6766415
  17.2403603   8.8708792  88.2814941  17.3113747   7.9227262  88.3919296
  17.7512550   9.2351341  89.0043640  85.7307281  33.5537376  84.5717926
  85.9976730  34.4673042  84.4699631  85.5243835  33.2640266  83.6831284
  72.5055008  61.4728279  11.9403324  71.7620316  60.8707886  11.9725580
  72.2457199  62.2044106  12.5002718  80.8590622  33.3365059  16.1778812
  80.3546906  32.5373726  16.3302956  80.7092209  33.5419617  15.2550774
  76.1987381  44.8244247  87.5608063  75.4495163  44.4395523  87.1060791
  76.7928772  45.0919533  86.8596268  30.1481304  12.7032785  64.0171890
  31.0440998  12.9931583  63.8456001  30.2326927  12.0761356  64.7353592
  81.4046860  18.2313995  25.2254429  81.5029602  17.4821415  24.6379185
  80.6663208  18.7227974  24.8654861  53.3139038  15.1548166   7.1862006
  54.0729065  15.2891636   7.7537360  52.8691025  14.3928833   7.5574694
  82.2081528  28.2535019   7.9048934  82.4440689  28.3168373   6.9793868
  81.2811584  28.4904594   7.9325237  37.2458458   6.3672342  68.1882935
  37.0327835   6.3315792  69.1207962  38.1514740   6.0614486  68.1376724
  13.6347961  26.4245834  83.7337799  14.2129354  26.8605042  83.1077118
  12.8292828  26.2619953  83.2429199  82.1889801  12.9179592  48.0421371
  81.4835052  12.8729477  47.3967590  82.9752426  13.0945559  47.5255775
  52.5238228  10.7281170  61.8136368  52.0011826  11.2157936  62.4502296
  52.8326073  11.3927307  61.1978683  54.4326782  29.5323601  75.1889038
  53.5276146  29.6036549  75.4922333  54.4012146  29.8110504  74.2737122
  24.9255123  58.4209442  76.3729858  25.1620274  57.6328239  76.8620224
  24.1547794  58.1658859  75.8658905  82.8265610   4.2377634  58.4113998
  82.2347641   3.5251775  58.6527100  82.7750931   4.2788587  57.4564705
  78.8260269  63.1916962  77.2077332  79.1632843  63.1171036  76.3150253
  79.3811874  63.8542328  77.6189194  58.6230087  25.9364452  19.7961559
  59.2900810  25.4144001  20.2419300  58.6993523  26.8068829  20.1869812
  20.7609749  45.0803375  39.4664726  19.9220219  44.9397316  39.9053535
  20.8298874  44.3565102  38.8439331  49.6568680  71.6914139  39.4773636
  49.5306892  70.9131317  40.0201263  50.3572311  72.1766434  39.9135704
   7.8863449  51.3656693  27.3278809   7.7857008  50.4291649  27.4983597
   8.4775162  51.4101372  26.5763683  30.0676918  31.7850037  78.9762344
  31.0074463  31.6595097  79.1079254  29.9370804  32.7289085  79.0668716
  55.7496071  59.3692780  67.4770508  56.0666847  60.0273743  66.8584976
  56.5438614  58.9534035  67.8123703  57.9624214  58.9799767  69.3784027
  57.8722992  58.7287216  70.2976303  58.3146896  58.1997032  68.9502563
  69.3653946  12.6936264   2.2396882  69.4377365  11.7618313   2.0329158
  70.2452774  13.0406218   2.0926123  12.5307627  27.9803200  74.1302338
  11.8856010  27.8752632  74.8294907  12.5482206  28.9220924  73.9599686
  78.6606369  53.4631538  26.1186275  78.2546463  54.2706718  25.8034763
  79.5973587  53.6588478  26.1407795  55.7011909  61.8673592  83.6267776
  55.7446327  62.4688416  84.3701248  56.5151176  61.3660698  83.6764145
  50.9484978  20.2338791  18.6784878  50.7414322  21.1404018  18.9055824
  50.3510323  19.7106533  19.2128162  53.5588875  43.9721565  70.2209015
  52.9590836  44.5546684  69.7549133  54.4305038  44.2539024  69.9431610
  69.2947159   4.9257050  73.1950607  70.2293777   4.9347081  73.4013596
  69.0808029   3.9982696  73.0933990  27.2451572  67.5098724  67.6982040
  27.5310726  66.6405106  67.4176636  27.1585922  67.4383545  68.6487961
  58.6585274  26.2180901  67.9786530  57.7882919  26.6018829  67.8708420
  58.7747345  26.1504555  68.9263687  71.2324677  70.4262009  73.6401367
  71.6373291  71.2556076  73.8939133  71.9379883  69.9337463  73.2206573
  10.9370394  65.1887283  44.9415169  11.1223202  65.7395630  44.1809311
  10.7656813  64.3219070  44.5734253  35.0064621  12.0630827   0.4674389
  35.3989563  12.9114046   0.2612153  34.8525200  12.0935984   1.4116862
  32.0416412  66.9985123  79.5414658  31.5089378  67.7937851  79.5410080
  32.9053116  67.2889175  79.8346710  74.4023819  33.3588524  20.3501358
  74.9525146  34.0067253  20.7904205  73.5784454  33.3736839  20.8371048
  81.8339996  44.0138092  46.7122993  82.6986923  43.6738701  46.4821167
  81.2337799  43.5642319  46.1174545  54.9732094  49.0516090  29.8775578
  54.4131508  49.4287834  29.1990967  54.3658218  48.6113396  30.4720974
  63.0374794  26.2964115  24.5688896  62.2901840  25.6991978  24.5355072
  63.2060242  26.5205498  23.6536922  49.6879158  69.6258392  88.7556839
  50.1656075  69.6618423  87.9269791  49.0676651  68.9054642  88.6435089
  25.6405582  53.6233101  56.6099739  24.8040752  53.8442307  57.0195160
  25.8527451  54.3861160  56.0720787  14.4813957  25.6820660   1.5051028
  14.7556133  25.5072384   0.6048406  13.9921265  24.9006557   1.7624800
  86.4541473  14.6716814  53.5868721  86.0780029  15.5510492  53.5486832
  86.7116547  14.4819365  52.6846962  83.6054153  64.6777115  61.0247803
  83.7554779  65.4743805  60.5158310  83.4171982  64.0064011  60.3689232
  34.9949188   9.3771152  82.7835541  34.8382301  10.1318226  83.3510895
  35.7923965   8.9776564  83.1309738  55.5466537   4.8005495   0.6403621
  55.1305504   5.3938217   1.2657565  55.0256615   3.9989467   0.6875637
  10.5208492  31.6220837  79.5702896   9.8762846  30.9263439  79.6995773
  10.5381489  32.0906448  80.4047852  16.9216423  53.5418625  15.5759583
  16.7950077  53.0608521  14.7581415  16.2546329  53.1908951  16.1660023
  72.1894989  32.4537659   9.4057045  71.5418777  32.2428589   8.7331448
  71.6691742  32.7052345  10.1687603  58.4313240   2.8179536  61.1528206
  58.2448654   3.6528745  61.5822067  58.8175888   3.0621719  60.3117561
   7.1972041  34.9379349  35.5082092   6.4901595  35.5660324  35.6558914
   6.7525997  34.0964050  35.4062843  31.6249313  60.7238235  66.7146683
  32.5020332  60.3412323  66.7380295  31.0873775  60.1221390  67.2296906
  60.3802605  34.2474709  67.5722046  60.9676628  34.0153275  66.8529739
  59.5418396  33.8518753  67.3339081  42.6970787  54.1643829  53.8409615
  42.7943153  53.3065605  54.2543831  42.5779762  54.7705307  54.5721474
  40.3590889  67.2730713  60.0188217  40.2299042  68.0512161  60.5610733
  40.6208000  67.6170502  59.1647606   0.8419529   4.2957768  26.0179024
   0.9850978   3.6055410  26.6654491  -0.1101930   4.3682308  25.9515667
  19.4743538  57.9792404  69.5383606  18.7846565  58.5235100  69.1584702
  19.0072060  57.2476463  69.9418182  63.8257866  33.6155472  50.7481308
  63.6634293  33.5321426  51.6877670  62.9816437  33.8788872  50.3816605
  14.7187138   2.1377137  34.2439423  14.4513550   1.8519100  33.3704033
  14.0741358   2.8026161  34.4861336  60.3808479  62.0713387  22.4155216
  61.0304184  62.5454407  22.9346695  59.7676468  61.7206230  23.0614452
  85.1889343  25.1976719  22.7486839  84.6635666  25.9918213  22.8463745
  85.6986542  25.1467266  23.5572758   7.9882736  54.2883911  68.1498413
   7.8661628  53.3771362  68.4161758   8.1849556  54.7516060  68.9640732
  23.9955139   9.6601391  64.3850174  23.0674896   9.8932648  64.3594360
  24.0834217   8.9561501  63.7424469   3.3000519  52.7573509  73.1809692
   3.3805211  51.9854050  73.7412033   2.3719573  52.7891693  72.9488983
  10.1240845  58.4646454  39.3152542  10.5826406  57.6244316  39.3132210
  10.7781935  59.0937576  39.6195412  10.6964636  25.2807770  19.0075226
   9.8151712  25.6076469  18.8266582  11.2371092  26.0686111  19.0645428
  68.7407074   3.9864173   8.2787294  68.8226547   3.4787014   9.0860338
  68.1292725   3.4836233   7.7406049  64.7252045  58.8400269  17.4627838
  63.7922478  58.6297760  17.5030670  64.7557907  59.7251320  17.0996304
  25.2339382  15.5929499  73.7007217  24.3128052  15.5256348  73.9521408
  25.7033787  15.6753759  74.5308228  77.6522522  51.8009834  38.2933655
  78.0760880  52.3948097  37.6737213  76.7261200  51.8247223  38.0526276
  57.9434967  53.9993706  24.6382713  58.3608398  54.7330551  25.0896778
  57.0187378  54.0666389  24.8760281  42.2491035  28.2156544  40.7401543
  42.7847176  28.9840603  40.5429153  42.8020477  27.4710770  40.5033150
   3.2823935  59.3234291  44.1117783   3.6088600  58.5292282  44.5347404
   3.1873350  59.9534492  44.8261108  16.2240696  54.6764145  76.2083359
  16.6387367  55.0086327  77.0045166  15.3841467  55.1336403  76.1670456
  62.2393723  52.7395248  59.5359306  62.3797035  52.8291931  58.5933266
  61.2903748  52.6571693  59.6300354  76.2111435  65.3201141  75.3605194
  75.6060333  64.9950790  76.0271759  75.6729050  65.8800964  74.8010941
  84.9842987  53.1883087  72.1237259  84.8209991  53.7228661  71.3466644
  84.3910828  52.4428825  72.0306244  46.4423027  45.1476097  70.0839310
  45.8716393  45.8921623  70.2742233  45.8427658  44.4116821  69.9606476
  21.8060894  65.4403076  56.5358162  22.2240963  66.2711334  56.3094521
  21.9303570  64.8909683  55.7618561  69.2426910  47.4606895  73.8366547
  68.6732483  46.9026031  73.3070221  68.6464691  48.0791016  74.2589264
  36.1024666  70.1935425  76.3266373  36.7321014  70.9051666  76.4422989
  36.3879929  69.7484283  75.5287781  36.9856529  44.0123444  61.0495148
  36.2281227  44.2954559  60.5374260  36.7862434  43.1081810  61.2923241
  22.1556854  56.5405579  67.9236832  21.3822975  56.6705170  68.4725189
  22.7727013  57.2111549  68.2166443  10.9370184  13.7647457  67.7087708
  10.7486324  13.1912565  66.9659042  11.7382088  13.4064541  68.0908127
  59.8668060   6.4740672  18.3784084  58.9330788   6.5732360  18.5642891
  60.1769905   7.3668447  18.2268620  61.5262604  47.8117714  54.7583885
  62.2807961  47.2663345  54.5361214  60.9891548  47.2581253  55.3251572
  67.3411865  52.8715515   1.8294767  67.9471588  53.5791740   2.0492430
  67.1555710  52.9955902   0.8986735  85.7609482  45.5519791  12.2971153
  85.8853378  45.7326164  11.3653803  86.6349030  45.3270264  12.6162319
  73.1956253   1.3562400  52.6348343  73.9958267   1.4870394  53.1435585
  73.2204742   0.4332615  52.3823929  51.7002678  45.0101967  20.6483898
  52.1026764  45.8601990  20.8267059  52.1863670  44.6677017  19.8983002
  10.2400265  23.8895359  69.2936020  11.1252747  24.2399368  69.3925247
  10.0666952  23.9385700  68.3535004  82.9580841  36.4458275  61.0235672
  83.8642273  36.6309891  60.7768822  82.4624405  36.5513573  60.2115135
  63.8073082  39.7542496  79.8638535  64.3265610  39.6693230  80.6634750
  63.0729904  40.3151894  80.1135559  41.6375084  64.9735718  20.9013939
  41.7741089  65.0433197  21.8462257  40.9089088  64.3596420  20.8094044
  56.9412231  43.6674843  79.7299652  56.3266563  43.8434906  79.0175323
  56.3878746  43.5690880  80.5047913  52.5164604   2.0249875  39.3289948
  51.6811676   2.4796715  39.2204475  53.1087074   2.6917727  39.6766586
  69.9149246  20.3473568  28.4762020  70.7458878  20.8208866  28.4375057
  69.8560562  20.0404434  29.3809509  63.7137871  67.7713928  30.9523830
  63.9165344  68.6710663  31.2087250  64.2377014  67.6227875  30.1651993
  16.5065117  71.0902328  87.8770294  16.4084892  70.9551697  88.8195648
  15.6799040  70.7840271  87.5039444  84.3367615  33.8412628  49.3462524
  84.9916611  33.8730392  50.0436249  84.2458649  34.7505722  49.0614319
  18.9909210  50.4826889  65.3124619  19.5918598  49.8021126  65.0092773
  19.4665775  51.3015823  65.1732101   1.8528297  15.4175301  84.1896973
   2.3946767  14.7450132  83.7769547   0.9674692  15.0539942  84.1751938
  65.2349701   5.6345530   7.8250747  64.2964401   5.5667171   8.0005627
  65.5826187   6.1273408   8.5684013  55.4254951   5.7313900  58.7007866
  55.3030663   4.7880731  58.5940323  55.9908638   5.9836655  57.9707527
  21.5603790  53.8596268  42.1305580  22.0794849  53.0955620  41.8796310
  21.8901386  54.5660934  41.5752258  67.3217773  27.1817741  46.5381203
  68.2649689  27.3162498  46.6305962  67.2180481  26.8055515  45.6640892
  85.1477509  70.9691696  43.1979103  85.3313446  70.9662552  42.2584877
  85.1880264  70.0473862  43.4526939  52.7086487  17.3410683   0.2716328
  52.5007706  17.1184597   1.1790824  53.6134911  17.0513535   0.1551975
  13.0262136  46.9244080  20.2187157  12.2481117  47.2439499  19.7618999
  13.1358480  46.0264854  19.9057484  46.9011536  17.6069260   6.2236123
  47.2429695  18.4000168   5.8108144  46.9709167  17.7767525   7.1630402
  72.7823563   3.0827653  88.7248611  72.2112656   3.7121551  88.2844543
  72.9417114   3.4664941  89.5871811  44.8732986   0.7960078   6.9802728
  44.6989708   1.5798398   6.4592652  45.5964699   1.0464915   7.5551744
  51.7864799   6.6359310  70.2468948  51.9995956   6.2040248  71.0741043
  51.3621750   5.9557247  69.7239075  80.9077835  36.3162117  74.0272675
  81.7895966  36.3244133  73.6550140  80.7109222  37.2374229  74.1970978
  24.8639488  64.8947906  73.0560837  24.2824821  65.5216980  73.4863358
  25.7203350  65.0499420  73.4545364  83.5541763  61.2228508  75.9916763
  84.2466507  60.5652924  76.0575104  83.9337234  61.9172935  75.4532318
  66.8218765  47.5246468  30.2261181  67.0784149  48.3229523  29.7644634
  67.5545502  46.9237366  30.0907459  47.9334679  66.9184952  26.9256344
  47.0923882  66.5329895  26.6802711  47.7322540  67.8364792  27.1074371
  33.9616776  57.6714935   1.1359411  34.7115974  57.9134712   0.5925264
  33.3401337  58.3901711   1.0201166  46.0244904  24.5333500  69.2592239
  46.2176552  23.6866703  69.6617813  45.3870544  24.3328476  68.5738754
  61.1006279  57.7293396  53.9403877  61.4730721  58.3864937  53.3524551
  61.0467224  56.9352684  53.4086227   3.0568349   9.3890619  14.0656681
   3.2286847   8.4474411  14.0586443   2.4644556   9.5188999  14.8062496
   7.8304234  35.6239815  82.0539093   8.2613544  36.0368538  82.8022842
   6.9494238  35.4197502  82.3675385  43.5863228  56.8754463   2.7333879
  42.8830490  56.2262955   2.7177947  43.1336288  57.7184258   2.7596118
  62.5535469  13.3162909  33.9017525  61.6140404  13.1702805  34.0123711
  62.8777275  13.4725027  34.7887344  82.0200653  60.1044464  14.1926641
  81.2802811  60.4903221  14.6617594  82.2012558  60.7205582  13.4828653
  30.1549091   1.2488546  34.7255783  30.6174412   1.9540212  34.2727661
  30.1539631   1.5148065  35.6450882  12.7486334  30.8845673  85.5170898
  12.9227457  30.6936455  86.4387512  12.1466742  31.6285515  85.5361710
  36.8363113  12.6351490  13.3453074  37.1248894  12.1595364  12.5663691
  37.2361755  12.1633196  14.0758677  76.2215271  61.3194275  61.4512482
  75.7701874  61.6081924  62.2444344  76.1865845  60.3636627  61.4902802
  67.2557449  35.1428604  18.0114193  67.7763824  35.7176781  18.5724468
  67.0165024  35.6905022  17.2636986   4.9988589  17.3119946   6.2733221
   5.3174725  16.5875969   5.7348394   5.0622153  18.0792084   5.7044621
  68.4354324  55.1084900  81.1547394  68.5905457  54.7942963  82.0455017
  68.1440125  54.3333321  80.6746979  68.1090393   6.4943562  62.9573517
  67.9988098   5.9891381  62.1518478  68.9505844   6.2038679  63.3089981
  31.7108917  17.8362904  15.5842409  31.8350067  17.5008507  14.6963739
  32.2689247  18.6128197  15.6270895  79.8361816  66.4816360  48.7705193
  80.7594528  66.6286163  48.9759445  79.5044250  67.3459015  48.5271797
  69.6051865  67.3339996  46.3956337  69.6087494  67.5099945  47.3365097
  68.8278275  66.7931976  46.2560692  44.6149673  40.6938591  16.1846561
  44.9290390  40.6866302  15.2804775  45.0639038  39.9575500  16.6000385
  68.1788101  66.3274612  40.5277405  68.8214417  66.4246063  41.2304649
  68.0129089  65.3857956  40.4833908  22.6633663  13.7719126  22.2262211
  22.2497540  14.6182785  22.3959923  21.9962463  13.1275568  22.4628391
  70.8798523  27.8790054  77.7564240  71.3483047  28.6349125  78.1105347
  71.5707474  27.2847061  77.4636612  83.8140106  43.2244530  49.4234390
  83.6281586  42.3034592  49.6063538  83.9167480  43.2638016  48.4725838
  81.9579697  50.4936905  46.2527122  82.2863846  50.7605820  45.3941383
  82.0962830  51.2591248  46.8105774   8.4547091  63.4103088  21.6054993
   9.0032816  64.0684433  22.0323009   8.9217157  62.5856209  21.7397671
  16.1644821  18.9584122  87.4782562  16.0718403  18.6332836  88.3737717
  15.3610916  19.4538231  87.3190002   7.5266557  22.5578365  77.9309387
   8.3489361  22.0948315  77.7705841   6.8575473  21.8738594  77.9044418
  55.0556374  42.3800697  74.5637894  54.5302925  42.5735893  73.7873917
  55.9157028  42.7528687  74.3700409  12.0936441  22.2384205   9.0646448
  11.1889420  22.4163456   8.8075657  12.4060287  21.6049080   8.4186506
  84.9764099  34.2431831  77.5420380  84.6074142  34.5326767  76.7076111
  84.4630585  33.4697380  77.7754669  51.4668007  13.0637522  43.7430840
  51.1161232  12.1733561  43.7217941  51.2127228  13.4414310  42.9010391
  59.2527008  62.5126686  36.4229050  58.4351845  62.3119850  36.8785591
  59.1200180  62.1800652  35.5352097  73.2483826  22.6673050   0.4724328
  72.3860016  22.9896584   0.7343861  73.6759415  23.4247189   0.0727474
  68.9039917  49.5528069  35.9004402  68.5647812  48.7097092  36.2010345
  69.1134338  50.0273018  36.7049408  77.3635178  66.8026581  41.3151169
  77.2153702  66.5684967  42.2313309  77.8979034  66.0880661  40.9686661
  44.4583626  31.2579651  70.1234741  43.5069809  31.2927723  70.0239944
  44.5975266  30.7387066  70.9154587   0.0115787   7.5261860  85.9948959
   0.4573496   7.1304383  86.7438278  -0.3286399   6.7820954  85.4980927
  20.7080898  26.3565636  11.1945562  20.7079811  27.2878933  10.9735203
  21.5331936  26.2210732  11.6604729  53.7305946  69.9785004  46.4229736
  54.5274963  69.5463181  46.1157227  54.0361366  70.6080246  47.0760994
  23.7528267  56.8571815  30.7486153  24.2779922  57.6334381  30.9431839
  24.1472855  56.1627312  31.2762280   2.8603532  29.5456333  59.2648277
   3.2313504  28.6821232  59.0833282   3.5847094  30.0423603  59.6453552
  71.4329453  48.4205894  17.6231308  70.9815826  48.9893036  18.2468853
  72.3428497  48.7170258  17.6437321  24.4171829  10.6840887  22.4063702
  24.2767105  10.7869902  23.3475971  25.2161312  10.1612101  22.3391972
  28.6434898  28.8957996  87.9447861  29.3096256  28.8314571  88.6291504
  28.7255898  28.0786781  87.4530487   7.2000685  -0.0434267  54.0914955
   7.2057076   0.9132336  54.0598526   7.2442770  -0.2524736  55.0245438
  50.8730202  32.4712677  17.7547493  50.4227715  31.8816280  18.3595886
  50.1744308  33.0046310  17.3756294  62.1909676  14.8106279  22.6221371
  62.0637054  14.3658915  23.4601383  63.1410065  14.8860998  22.5328903
   8.0518923  33.6445770  17.7661591   8.0767183  34.5984955  17.8413467
   7.3720212  33.4732971  17.1144905  53.9051247  48.2655106   1.9067841
  53.8150940  49.2053299   1.7491026  54.0201378  48.1915359   2.8541656
  64.1789932   0.7594149  83.5814438  65.0236282   1.1920129  83.7066727
  64.1175308   0.1391660  84.3079071  29.6001396  59.4546165  61.3754921
  29.2315979  60.0196648  60.6964302  28.8470535  58.9790459  61.7261009
  12.7690811   7.6449661   7.6614809  12.6636667   7.8884931   8.5811625
  12.1148348   6.9610868   7.5182953  54.2540321  21.8886929  37.5195389
  54.3607407  22.7320766  37.9594803  53.4414444  21.5323486  37.8786392
  45.5623055  71.3334579  54.2330933  45.1419106  71.4947433  55.0777779
  46.4939194  71.4794388  54.3974648  56.1385612  66.5872345   8.8794355
  55.4746399  67.2476730   9.0775757  56.0003281  65.9042587   9.5356874
  18.7762527  37.1242485  80.1503143  18.3192310  36.7987938  80.9258423
  19.2919483  36.3777428  79.8453217  18.7284107  69.4778442  20.1782646
  19.3571224  70.1484146  20.4452610  18.4499760  69.0704346  20.9984627
  62.6355553  51.9688644  36.9588814  62.4592743  51.6596870  36.0703087
  61.9992294  52.6700325  37.0991631  42.9970665  42.2355385  73.8150330
  43.9363899  42.0679131  73.7388153  42.6898956  42.2933121  72.9103012
  51.0792236  25.0219250  26.4690571  51.8213501  25.6264496  26.4742794
  50.3082657  25.5889759  26.4868279  76.3938141  65.6540985  80.1698685
  76.5691833  65.0158768  79.4783783  76.8289719  65.2950668  80.9431534
  74.7857971  34.5751076  15.4915962  74.0419388  34.0410385  15.7703209
  75.4937363  33.9459724  15.3529024  10.8449717  19.8715744  86.7919922
  11.2979078  20.2368526  87.5520325   9.9545326  19.7048645  87.1011200
  35.3178558  42.8044472  86.5584946  35.0931244  41.9283829  86.8719254
  34.6023026  43.0381584  85.9672318  56.3228073  17.4028206  78.6182861
  55.8947601  17.6795197  79.4284973  56.3740921  16.4495392  78.6879730
  14.8961849  46.9998360  45.4306946  15.5051031  46.2733002  45.2980385
  14.6072750  46.9074821  46.3385696  42.7580109  22.8828773   7.3581328
  42.8112564  21.9455757   7.1714101  41.8225555  23.0520325   7.4700937
  70.6263351  22.4066849  38.7796059  71.5237274  22.5469723  39.0816689
  70.7228317  22.0857086  37.8830032  57.0486374  35.7009659  60.7496796
  57.1066170  36.2854156  61.5055161  57.3377609  36.2359734  60.0104866
  50.5560188   6.0942869  65.8263245  50.7845383   6.9105573  65.3816757
  49.8066292   5.7561722  65.3360901   6.0307198  15.2265005  78.2919922
   5.2743101  14.7521801  78.6370926   6.7405710  15.0202904  78.9001160
  22.9186497   1.7269665  38.7869759  22.3278561   2.3237886  39.2463188
  23.4510651   2.2969375  38.2320900   7.8594246  45.6624870  10.6720181
   8.6648321  45.5387459  11.1742525   7.9936366  46.4861870  10.2032566
  47.8933067  49.2669678  14.5372381  47.4200630  49.8826866  13.9776287
  47.3055115  49.1155205  15.2773666  31.1946526  48.4790802  29.3067036
  30.3476429  48.3776360  29.7408867  31.4873981  47.5830460  29.1404114
  53.5685806  49.9680252  19.4425678  54.4668770  49.7179489  19.2263393
  53.6626244  50.6321373  20.1254616  78.6633835   9.9026155  19.3529987
  79.0481415   9.0316553  19.2549076  79.2631912  10.4835224  18.8850136
  64.2645950  34.6789169  29.0782814  64.0612640  35.4522858  29.6043873
  64.7081375  34.0862617  29.6851292  68.3801422  36.6829834  19.8241367
  68.9970093  36.8872871  20.5269623  67.5542068  37.0738564  20.1092339
  68.9616699   7.1590309   2.4370537  69.7789154   7.4820704   2.8165071
  68.7753983   6.3536663   2.9196754  46.1892700  47.7962875  38.7987442
  46.2530403  47.6503754  39.7426033  46.9271049  48.3709602  38.5948372
  47.4277000  68.1802521   5.0713625  47.2552986  67.4002304   4.5440269
  48.2886810  68.4806366   4.7803121  86.4621048  58.4855843  74.2182312
  86.2721481  57.7869911  73.5920410  87.3272095  58.2676086  74.5651016
  43.9434433  42.7772789  23.8768387  44.2764549  43.3223457  24.5897465
  43.5647812  43.3998375  23.2561417  60.4334221  22.8733139   4.8691435
  60.1355934  22.8984432   5.7784839  60.4772224  21.9409161   4.6571379
  16.6437664   5.9536710  51.7591896  16.0746708   5.6631474  51.0464783
  16.6052551   6.9093742  51.7220383  18.9239922  10.5582829  65.3564682
  18.2736149   9.9906826  64.9428635  18.9904861  10.2320509  66.2538986
  71.8646774  68.8656082  47.5020981  71.2561646  68.1909409  47.2008133
  71.8683472  68.7765121  48.4551353  77.1368790  68.1949387  79.5880280
  76.7705078  67.3168411  79.6926498  78.0155640  68.0477142  79.2380676
   3.0827911  60.8832245  50.5659943   3.3211048  61.7943192  50.7372971
   2.1722407  60.8157349  50.8533516  72.3249283  36.2784615  68.9022980
  72.7108765  35.5738754  69.4227142  71.5431213  35.8874969  68.5122375
  84.6287842  53.4828911  59.7180138  85.4616547  53.8269234  60.0408058
  84.5731201  53.7977562  58.8157997  28.3265057  40.7640343  77.8833542
  27.6069889  41.0987625  77.3481140  28.5692730  39.9365883  77.4678726
  38.8148041  56.0119781  66.5814667  39.0352936  56.2039833  65.6700134
  39.6481323  56.0758972  67.0480652  84.1750412  23.3730907  44.9184608
  84.1649857  22.4797344  45.2620354  83.8769531  23.9142494  45.6495705
  29.6178246  48.7484016  43.5237083  28.8221951  48.3709717  43.8988800
  29.5027828  49.6937981  43.6197357  73.7476807  45.9189568  37.2585411
  73.1297684  46.5674477  37.5960007  73.2037811  45.3019371  36.7689629
  62.5724983  40.9627495  57.2003021  62.3105812  41.5845299  56.5213203
  62.8461342  41.5117302  57.9351311  20.6646099  70.8409729  43.6074867
  20.9557304  71.6464844  43.1801224  19.8179054  70.6486130  43.2045937
  31.4214745  69.6757660  73.4265671  31.8392220  68.9949493  72.8991165
  32.1246185  70.0147629  73.9805527  67.1868286  29.5338821  15.2386236
  66.2362747  29.5741253  15.1334610  67.3186569  29.4054356  16.1779613
  71.1566315  30.3762817  12.2970400  71.4716339  30.0347824  11.4601488
  71.8731842  30.2085514  12.9091282  33.9806786  44.2393532  31.7172470
  33.7904701  43.5285721  32.3294907  34.8432426  44.5590172  31.9818764
  14.6429043  13.5208149  73.1263580  15.4275904  13.7953329  72.6518707
  14.6609707  14.0322208  73.9352951  10.9104204  64.9378433  53.1980515
  10.8142128  65.6371918  53.8444939  10.7706022  64.1316452  53.6947708
  82.8566360  67.6172562  43.2034225  82.3639374  68.1617126  42.5893784
  82.2210541  67.3842316  43.8801498  78.6811066  18.4448528  14.8162670
  78.7597046  17.8348408  14.0828247  79.5830612  18.6928520  15.0192461
   8.6641684   6.9524407  67.8291550   8.7442713   7.6056538  68.5242310
   8.5346222   7.4658585  67.0317535  56.1459045  66.1733322  48.1615562
  56.9679375  66.2227325  48.6494637  55.7460480  67.0351715  48.2780991
  11.0827599  17.0373154  -0.0563314  10.8730135  16.4238300   0.6478515
  10.2760572  17.0997829  -0.5677620  81.4602814   3.9446242  43.1730118
  80.8515625   4.6135373  43.4864655  82.2375336   4.0523090  43.7211990
  80.0620499  41.6958961   1.8915726  79.9868622  40.7797546   2.1585248
  80.8518906  41.7239723   1.3515761  31.7029457  68.0191193  50.9746666
  31.8392181  68.9496841  51.1527290  30.9826813  67.7676086  51.5527611
  14.3596859   6.7690072  31.3982449  15.2574978   6.4374294  31.3833389
  14.3501320   7.4022994  32.1159363  41.1374588  29.7426491   4.0420141
  40.3221855  29.7825222   3.5420420  41.1774063  30.5809784   4.5022731
  24.9399376  27.5349770  13.4499865  25.7187805  26.9813194  13.3942986
  24.7247639  27.5525723  14.3825226  13.4904346  32.3526497  73.0135498
  13.0606213  33.0141792  73.5556488  13.3859682  31.5368881  73.5032959
  10.1098528  26.9398365  53.1665001  10.2233658  27.7936401  52.7489319
  10.8673611  26.8536739  53.7452850  41.9367332  50.9282150  73.4092407
  42.1888161  51.8065262  73.6942902  41.1612244  51.0662689  72.8654022
  52.6510658  12.9691820  60.0565414  52.1839523  13.7461843  60.3636322
  52.0248489  12.5229626  59.4864769  51.6650085  55.6854019  29.1713848
  52.3445053  55.3901520  29.7774734  50.8456192  55.3881454  29.5669479
  10.9939613  60.5683174  35.5901909  10.7133198  59.8336830  35.0444908
  10.2860861  60.6793633  36.2248650   9.1377792  21.2053280  84.6865005
   9.0546045  22.0629311  84.2695694   9.8829165  21.2988091  85.2800140
  39.6398544  41.0894241  76.9408188  39.6012726  41.2588921  75.9995346
  40.3299370  41.6705284  77.2607117  85.9940186  20.3615837  63.2931671
  85.7321930  19.4649982  63.5024796  85.4556808  20.9081402  63.8656120
  13.4701262  51.0021286  26.8622837  14.3485708  50.6344910  26.9592915
  12.8918772  50.2395248  26.8451443  45.2055435  66.6964493  25.8477688
  45.0873146  66.1851959  26.6483173  44.9203415  66.1115723  25.1457577
  82.6057205  47.6920013  66.6137848  83.0137024  47.6296272  67.4774323
  82.1032944  48.5061607  66.6444702   4.7338428  66.2958832   0.8408235
   5.2219901  65.4906693   1.0127927   5.3485656  66.8507385   0.3607330
  18.1297359  45.2689323  20.8325119  17.8342876  44.4539642  21.2384319
  17.9683056  45.1430359  19.8974609   0.7000173   1.0178759  76.6081848
   0.4489232   0.1581395  76.2704926   0.3719954   1.6366384  75.9556732
  64.4474030  56.1553078  76.6592484  64.3554764  56.1198921  75.7071381
  64.5988007  57.0808029  76.8510056  34.6569405  65.1014786  22.3487186
  35.2679596  64.6029739  22.8912868  34.8626595  64.8374786  21.4519386
  79.1672363   6.4415894  84.8561325  78.4199677   6.2406173  85.4195480
  79.5771027   5.5926795  84.6900330  71.5241928  46.5836792  87.5805588
  70.9029846  45.8581390  87.5179214  71.1926804  47.1214256  88.2996902
  28.1131039  55.7544746   4.7115431  29.0486698  55.5577354   4.6641955
  28.0222206  56.2994881   5.4931664  79.3308334  31.8465614  88.1035843
  79.0155411  31.9652081  88.9995422  78.5774612  31.4950581  87.6291351
  84.9628296  37.5852814  76.4514847  84.6027679  36.7376328  76.1905670
  85.8451920  37.3848305  76.7637329   5.7324615  68.0595093  65.5227432
   5.3731585  67.8290329  64.6660004   6.6772828  68.1142044  65.3793869
  57.4161339  61.7312965  69.0457077  57.5407524  60.7908325  68.9183121
  56.4726677  61.8627701  68.9518280  33.2223587  71.2216873  74.6584854
  33.4190941  70.7914505  75.4906006  33.5183029  72.1239166  74.7794952
  77.3328094  35.3543549   6.8068061  77.0260696  35.3533974   5.9000850
  77.3191147  36.2764473   7.0633116   9.1961689  53.7908745  41.5623779
   9.3253756  54.7387695  41.5301971   8.6594572  53.6486435  42.3420868
  30.4459190   3.4030204  26.5223446  29.9805164   3.7725534  25.7719612
  29.8648090   3.5614166  27.2662888  52.8109512  31.5331821  80.0055008
  53.0161095  30.6968555  80.4234772  52.4551773  32.0728607  80.7114792
  58.6090469  27.5305557  45.9684792  58.5566292  28.2137718  45.3001251
  58.0300751  27.8344288  46.6675415  78.1877518  53.1550255  53.2364464
  77.7012939  53.3920364  52.4468803  77.7217560  52.3954506  53.5859070
  50.6026611   1.7011338  32.6325951  49.6950302   1.9918925  32.5437469
  51.1008110   2.2965653  32.0726509  56.4138069  34.3684769  52.3173752
  55.6223450  34.6738052  52.7607651  56.0906372  33.8518295  51.5792198
  51.4811211  39.7428207  26.8141785  50.7768135  39.7997551  27.4598904
  52.2838783  39.7344551  27.3354664  68.9544067  71.0946274  18.5998154
  68.4659271  70.4251556  19.0787926  69.8735199  70.8687439  18.7427883
  61.2472153  64.3750153  60.2321167  60.8050003  65.1706467  60.5281677
  61.9180031  64.2128754  60.8954315  14.8012428  50.8688469   1.3428534
  15.6707029  51.1673050   1.6096781  14.8258553  50.8843498   0.3860955
  63.1516953  25.4967194  55.3985367  63.2885628  26.2562981  55.9646988
  63.0516090  25.8666954  54.5214233  59.4528427  40.5221405  22.2789001
  59.7810326  41.2799225  22.7629356  58.5102768  40.6730728  22.2080460
  64.1194458  47.7368622  58.5882416  63.4119759  48.3705177  58.4691010
  64.3096008  47.7636795  59.5259819  12.9291563  40.5393829  25.7394161
  13.4580555  41.3065796  25.9582863  13.5684853  39.8667259  25.5048504
  42.7515450  49.2810211  61.8623161  42.0573311  49.3119888  62.5206032
  42.2910423  49.3433189  61.0254860  24.7844639  60.2066231  48.9922829
  24.4087467  59.3475685  48.7996979  24.7044525  60.2955933  49.9419746
  67.7300339  35.7654877  62.1463699  66.9541092  35.8128014  61.5878601
  68.4557037  35.6294594  61.5371704  32.8327904  40.4246292  64.5680313
  32.7747345  39.7882042  63.8554115  32.9759865  41.2631683  64.1291962
  64.0807037   7.5973225  14.0394821  63.7092934   8.2217951  13.4163284
  64.5621185   8.1398287  14.6641073   3.4373133  71.4022903   6.8895764
   3.6123757  71.3216858   7.8271732   3.9469097  70.6977692   6.4893413
  70.6848373   5.8621154  76.4683990  69.9224854   5.3301144  76.6965103
  71.2075577   5.8876491  77.2698593  16.3777599  30.5526066  56.4233627
  16.9983635  30.5212021  57.1514435  15.5854349  30.1390247  56.7660065
  68.8949966  69.9441223  70.7866669  68.8688278  70.1029434  71.7302322
  69.8135376  69.7479172  70.6021881  82.0419617  10.7947340  60.5533867
  82.6340408  10.9759512  59.8234367  81.2119751  11.1944952  60.2934875
  64.9115753  26.0280323  70.2772369  64.6997833  25.4395771  71.0018692
  65.8589630  25.9439125  70.1694412  46.5574341  36.9386101  61.3948402
  45.8657684  36.2905045  61.5282173  47.3593063  36.4212341  61.3202820
  38.6970787  57.7685623   2.4556134  38.8413239  58.6981392   2.6325741
  39.5300484  57.3509712   2.6747251  53.5940132  50.7594986  15.6324387
  52.8311348  50.2444572  15.8950806  53.7323112  51.3693428  16.3571434
  85.6727066  49.1341095  33.4988518  84.9334488  49.6772499  33.2254906
  86.0025330  48.7516747  32.6857147  83.8961487  10.0562954  11.2166996
  83.6399155   9.1429558  11.3447084  83.7288132  10.2242785  10.2893305
  24.6356945  59.4418755   4.8229141  24.4360561  58.6640244   5.3438025
  25.0153522  59.0977554   4.0144129   3.7782059  45.7217102  48.4371758
   3.8300657  44.9220886  48.9607697   4.6480060  45.8095818  48.0473557
  83.6700897  35.0221786  17.4237328  84.1797638  34.3452644  16.9784813
  83.7936859  34.8410530  18.3554783  50.0445366   9.0126562  60.5442543
  50.2228775   8.5712233  59.7138557  50.8849831   9.3940201  60.7981110
  56.1983681  68.9643326  46.3511200  57.0256653  69.3718948  46.6074562
  56.3217278  68.7299347  45.4312973  51.0224533  66.1701965  24.4284878
  50.4196167  65.7245026  23.8333607  50.8246117  65.8022156  25.2896996
  54.0039787  13.5976648  43.4905128  53.0544853  13.4769993  43.5023041
  54.2218933  13.6922760  42.5632629  17.8000908  10.0850830  60.8430099
  18.3591442   9.3087215  60.8739014  18.2253304  10.6613274  60.2079163
  66.0771713  64.7392883  58.9907265  66.9485321  65.1300735  58.9255371
  65.9486313  64.2990875  58.1505318  40.4338760  62.8604393  45.3419724
  40.7636871  62.2611313  46.0115128  41.2062187  63.0914307  44.8258705
   6.4211307  67.7330093   5.5905304   6.9578495  68.2942657   6.1501312
   5.6260471  68.2421188   5.4327974  28.3677330  14.3577976  78.7441940
  29.2888393  14.3972225  79.0015717  28.0986576  15.2738714  78.6760864
  69.3653793  59.6686630  14.8934326  68.6998367  59.1749687  14.4143162
  69.3644867  60.5331268  14.4824228  65.7538681  52.0344543  51.9964027
  64.8823395  52.1555367  52.3732529  65.5969162  51.9332390  51.0575981
  42.0509529  34.2152557  70.2220688  42.8233681  33.9501877  70.7214203
  42.2410355  33.9428749  69.3243408  55.7798462  67.4505234  32.6754646
  55.9499512  66.9568787  33.4777184  56.2159653  68.2911758  32.8144951
  13.0812445  29.6032925   1.6329515  12.9470758  30.5302067   1.8305848
  12.9196224  29.5331631   0.6921049  83.1678619  50.0870857  23.7355652
  83.9033890  50.2815361  24.3164520  82.4155121  50.5063744  24.1531696
  83.4019699  19.4376030  83.2844009  83.9731522  20.2056389  83.2943573
  83.1153870  19.3404560  84.1925125  80.4833298   9.5168600  43.4567070
  79.6372681   9.8706312  43.1823883  80.3759689   9.3361683  44.3905487
  65.7891541  42.2357521  13.9429035  64.9774323  42.3199577  14.4431562
  65.8810730  43.0753174  13.4924479  56.6593857   7.4939175  76.4887314
  56.7169800   6.8719029  77.2139969  55.7242203   7.6813006  76.4076004
  80.1207886  34.1783676  31.0954990  81.0000458  34.2897301  31.4570789
  79.6271820  34.9265709  31.4313202  42.8078690  17.2512722  79.7004623
  43.0805473  16.9024658  80.5491104  42.2127571  17.9691582  79.9165878
  82.7764359  16.2328796   1.0280796  83.3402328  15.4852934   1.2267702
  82.8129120  16.7762680   1.8152460  64.2873306  38.0903244  24.4661369
  63.4333992  37.9877663  24.8862820  64.8476868  37.4487724  24.9027634
  40.0804558  51.1741371  38.6824455  39.7270432  50.2858047  38.6356468
  40.4709091  51.3222580  37.8211441  80.2830429  -0.0431924  63.6974258
  79.6992569   0.5813456  64.1279831  80.8866119  -0.3210865  64.3864212
   5.1915588  21.3995838  65.1262589   6.0833478  21.7458687  65.1583633
   4.6500616  22.1536674  64.8930817  48.1606941  37.4948273  66.4106064
  47.7773666  36.6290131  66.2703934  47.9787598  37.9713364  65.6006241
  51.2182274  59.3246078   2.5823488  50.5116615  59.6799049   3.1215718
  50.8039017  59.1318855   1.7412629  86.0300903   6.8464069  10.1978455
  85.0798492   6.9610581  10.2089634  86.3784332   7.7139297  10.4035015
  13.8242292   1.9568611  88.2018051  13.0500154   2.2215900  88.6985397
  13.6815510   1.0295641  88.0120773  20.0809078  32.9128494  11.6409817
  20.9717312  33.1710167  11.8776541  19.7099819  33.6892128  11.2215710
  44.2597733  56.1243057  34.2199554  44.7652016  56.5134354  34.9336472
  43.7927399  55.3947639  34.6272392  35.0126724   6.0128818  84.0723343
  35.4166832   5.5468407  83.3403397  34.2299461   5.5020366  84.2787628
  10.5570211  68.3817520  44.8691750  10.4298182  67.8566971  45.6593437
  10.0316038  69.1680908  45.0169563   5.7699342   5.8498840  19.1653595
   5.7494254   5.6826839  20.1076202   6.6931319   5.7651753  18.9271126
  52.7914009  21.2710381  34.9703941  53.1918068  20.4063587  34.8796577
  53.0434456  21.5608902  35.8471451  33.6282692  11.8201628  64.2208862
  33.2542000  11.1239319  63.6809196  33.3920441  12.6288128  63.7664490
  52.0160866   3.3746772  31.1411915  52.9443893   3.5725760  31.2649784
  51.9921074   2.8135166  30.3661079  55.0484543  14.8238668  66.8555756
  55.7735291  15.1551933  66.3257446  55.4329987  14.1150637  67.3712845
  48.1546021  36.9508934  76.3509598  48.3755455  36.0215607  76.4122543
  47.6128006  37.0169106  75.5646210  86.5913696  43.2824249  49.5245628
  85.6755829  43.0576859  49.6890755  86.6207886  44.2363586  49.5978889
  36.7640495  44.1164589  29.9524269  37.1536407  44.9875832  29.8776531
  36.6887894  43.9678459  30.8950195  78.9317627  68.1989288  37.4818344
  79.0669785  68.4199905  36.5603790  79.0990448  67.2576599  37.5293694
  32.2436867  63.5835533  22.5611839  32.8372993  64.3338776  22.5316429
  32.8203011  62.8256111  22.6575089   6.3373513   8.7478113   5.4758048
   6.0912743   7.8930850   5.8295288   6.0186052   9.3760090   6.1238794
  70.9032669  65.3841019  14.6563225  71.1774445  66.2271423  15.0173540
  70.3025131  65.0273514  15.3105803  27.8257103  57.3006592  45.6888618
  27.0974541  56.6902504  45.8040771  28.2488880  57.3333092  46.5468178
  84.7731476  54.2585449  74.6480713  84.6786041  54.0186119  73.7262650
  84.1918869  53.6567345  75.1130371   9.9010048  45.3788033  76.4171600
  10.4565372  46.1138000  76.1575546  10.2802935  44.6222458  75.9699554
   6.7293062  28.9333878  87.5541840   5.8994904  28.9631920  87.0779953
   7.3632770  29.3283310  86.9555740  39.0722389  40.5546913  83.2434540
  38.7012863  39.6730270  83.2074432  40.0173454  40.4146919  83.3018417
  29.7119980   7.3151765  13.5961475  29.0881424   6.6055408  13.7492867
  30.2027836   7.0396996  12.8218899  13.5438232  53.5816765  15.0915604
  12.6519432  53.3544235  14.8286180  13.9551401  52.7415047  15.2944450
  29.4926224  30.3417358  68.3137665  29.3892269  31.2895699  68.2291946
  28.8766479  29.9760151  67.6789017  55.4504585  42.4515419  63.4176559
  56.0304832  41.9537659  63.9938698  55.9913254  42.6608543  62.6561584
  72.1185989  43.7058830  67.5156784  72.3854904  44.4759636  68.0176544
  72.9155655  43.1811142  67.4402695  62.4778328  56.0037079  85.6368103
  62.5090904  55.0967751  85.3322906  62.0870438  56.4873734  84.9090805
  86.6558228  60.3264198  12.4577351  86.2905884  60.5015297  13.3250132
  86.6528397  59.3720055  12.3848352  44.1986313  62.2977371  31.5857792
  44.9063721  61.6578445  31.5091362  43.4125404  61.7698097  31.7257309
  85.5707397  19.9447556  51.9792137  85.8618622  19.1807365  52.4769592
  86.3554230  20.4855995  51.8898315  73.8031998  71.2300873   2.2600436
  74.0034027  70.3894958   2.6718078  72.9830704  71.5074844   2.6683078
  65.8122101  52.3240013  24.4421558  65.1119995  52.9697495  24.5367489
  66.3231888  52.4050751  25.2474880  75.4976196   7.9935818  29.8795147
  75.8433762   8.5811281  29.2075958  76.2252274   7.4049869  30.0804443
  75.9417191  61.8421822   9.7927580  75.6739655  61.9127960   8.8764868
  76.6020050  62.5264015   9.9027500  33.7671242  65.4435577  86.4826813
  33.4300346  64.5856552  86.2246094  34.5691528  65.5495605  85.9710693
  23.1252651  26.8806057  74.2280884  22.8170605  26.1654072  73.6715469
  23.7575283  26.4698257  74.8177795  81.7710114  38.0303040  22.7852802
  81.8515091  38.9633560  22.9831848  81.8728561  37.5961571  23.6322613
  64.3710632  16.5797386  34.7345009  64.9421082  16.2050228  35.4051208
  63.5830650  16.0369511  34.7603455  46.9426422  11.1887331  64.7329330
  46.3472443  10.8581057  64.0603104  47.2720184  12.0138359  64.3766327
  41.5126038  31.4361534  15.1307144  40.6771507  31.6359749  15.5529928
  42.1228104  32.0799789  15.4903955  76.1347885  57.2378502  11.0651941
  76.1766968  56.4933929  10.4649792  75.2219391  57.2631187  11.3520813
  54.8963547   7.8438721  83.7736511  54.8903236   6.8942413  83.6536636
  55.0062943   8.1961870  82.8904648  76.8808594  33.8938713  49.6255150
  76.1394577  33.3701859  49.3217087  76.5284653  34.4099236  50.3505936
  85.1318054  55.6314278  33.3410263  85.1255569  56.4280624  32.8103981
  85.7555695  55.8162270  34.0431709  22.2248230  60.6908379  24.8159180
  22.0952263  61.5748100  24.4723587  23.1652279  60.6352921  24.9855747
  73.4234390  41.7336617  56.1376266  74.1295853  41.8802872  55.5082626
  73.8190536  41.9198036  56.9891396  40.5507660  26.9046688  78.9636154
  39.6284142  27.1289101  78.8402557  40.5402527  25.9850597  79.2290192
  59.7193985  27.7937565  61.0893745  59.2438965  26.9751606  60.9478416
  59.1950455  28.2666702  61.7356262  13.7532835   4.7249017  37.3775215
  13.0705748   4.4734044  36.7555161  14.5075569   4.9429913  36.8300362
  60.5546570  23.3407974  32.9015274  60.1018295  24.1163788  32.5703850
  59.9556999  22.6170864  32.7178802  18.5468636  67.8046417  47.8154030
  19.4771519  67.6736603  47.6319923  18.2490520  66.9615097  48.1569672
  42.5023842  37.9549828  62.4023285  41.9194756  38.5989113  62.8045769
  42.5189514  37.2263336  63.0228348  53.9114571   3.5135820  51.9113083
  53.0767136   3.6840534  52.3476295  53.7503166   3.7301602  50.9929619
  21.2007561  43.7549744  86.5173111  20.2616196  43.6399193  86.3723450
  21.4783001  42.9443779  86.9440918  62.3860435  52.5930252  26.4796486
  62.2585831  51.9793892  25.7561588  62.8113594  52.0737305  27.1620464
  78.7042847  14.2458286  61.2126770  77.8373337  13.8948917  61.4163246
  78.5669632  14.7873049  60.4353905  55.8591080  60.9029350  42.9833984
  56.3664589  60.1289902  42.7387772  56.2944031  61.2365494  43.7679062
  39.1964264  60.2506027   3.1211727  38.4521141  60.8437309   3.0190291
  39.9270020  60.8217278   3.3584633  83.8657913  18.2966385  77.2852936
  83.3614807  18.0133076  78.0479355  83.4024200  17.9186783  76.5378571
  60.2356300  30.0552750  66.2865448  59.3336563  30.3461723  66.1521683
  60.6832314  30.2779427  65.4702682  68.2509460  48.0331688  65.2553940
  69.0155640  48.3819389  65.7136002  68.4038162  48.2492104  64.3355026
  30.9159641  65.2799149  17.5534496  30.3247852  65.8704147  17.0864887
  31.1090069  65.7336884  18.3738480  83.7679214  53.5739403  23.1451187
  83.9007492  52.7373199  23.5908260  84.1381683  54.2245560  23.7416496
  49.2498932  17.3563156  15.5549002  48.7888603  16.5182705  15.5179892
  49.5187149  17.5217953  14.6512499  41.0631485  54.2524681  63.9529152
  41.2165565  54.6938820  63.1175385  41.7905197  54.5321770  64.5087280
  58.3625984   5.3174443   1.5093081  57.5567169   5.2410736   0.9984716
  59.0113602   4.8228636   1.0085769  78.3753662  16.6210842   7.8566875
  78.3536835  17.1269169   7.0443473  77.4542847  16.4856873   8.0791874
  22.4877415  70.5635834  16.9449921  21.7151470  70.1763306  17.3565331
  23.2210369  70.0458755  17.2773952  59.1492615  60.5298958  53.1184349
  58.4377441  60.6399155  53.7492027  58.7073936  60.3904343  52.2808609
  10.8752375   2.9372942  27.6498623  10.8221121   3.8912125  27.5911312
  11.1095772   2.6555648  26.7655869  78.4532776  53.9725075  36.5747643
  79.2519531  54.1994972  36.0985107  78.1664276  54.7967377  36.9679413
  79.7226257  68.6040039  21.6099892  79.1709061  68.5749817  22.3916512
  79.3517303  69.3103790  21.0811253   0.7015213   9.6276255  58.1216927
   0.2288272  10.4196358  58.3776436   1.5735372   9.9375916  57.8772736
  68.3443222  69.1815338   4.8033013  67.6617813  69.8328476   4.6415348
  68.7489548  69.4578018   5.6256027  40.7757530  14.2795124  71.8873291
  40.4889603  13.6441736  72.5433273  40.2049675  14.1215801  71.1353378
   3.4645603  16.8665104  44.0440865   3.3717494  16.2750454  44.7909393
   2.5854073  16.9185867  43.6691093  73.1242447  64.4372101  21.0004654
  72.8303833  64.5498123  21.9044552  72.4557648  63.8822899  20.5986767
   9.5992041   5.3759556  44.2348900   9.7178736   6.0535879  43.5693359
   9.2317743   5.8405128  44.9868317  81.1735992  36.8041306  86.1774139
  80.4508896  36.2123871  86.3866043  81.4061813  37.2037849  87.0155106
  30.5510578  24.8454647  85.6988144  30.5630016  23.8956604  85.8169708
  30.2913342  24.9700222  84.7859879  42.1171532   5.1943650  80.9619217
  41.8464317   4.3578591  80.5835037  42.8512917   4.9718537  81.5344238
  64.5721588  47.7702675  71.3353882  65.1260757  48.1650581  70.6619339
  63.6833763  48.0381126  71.1018066   2.5396166  50.5000496  13.6634436
   2.1700401  50.7330894  12.8117762   2.0208058  49.7493134  13.9523458
  56.8010521  13.6282396   4.7128191  56.4181786  13.0501127   5.3726764
  57.7068062  13.7498770   4.9974995   4.8861165  36.3062096  21.7887325
   3.9715319  36.4368134  22.0391521   5.3173981  37.1290779  22.0192032
  61.6696854  67.9575119  69.9510422  62.1550827  67.5787201  70.6839371
  61.5403824  68.8734207  70.1972427  20.5673523  10.2778454  56.1674385
  19.7651234   9.9522028  55.7592506  21.2527828  10.1008978  55.5231552
  39.2384567   9.5584822  42.0050507  39.3267899   9.0796204  42.8291359
  40.0378075  10.0816288  41.9451599  53.5105782  48.8665123  39.8490601
  53.0151863  49.4303513  39.2550011  54.2257271  49.4195824  40.1635513
   7.0978780  18.1330986   0.5300981   7.0731554  17.1944160   0.7158342
   6.1852818  18.3681793   0.3623596   3.3393135  23.8322067  70.3233414
   4.1650848  23.3490486  70.2934570   2.9054601  23.6162586  69.4978867
   1.7299976  22.1171551  19.3773174   0.9596338  21.8835411  18.8594398
   1.4782227  21.9259319  20.2807961  45.5095863  68.6095123  44.4628944
  45.2253876  68.5543900  43.5505180  44.6963730  68.6048660  44.9677620
  76.3680725  16.1317444  34.6506004  77.2390213  16.4750862  34.4511108
  76.4140015  15.8840370  35.5740509  19.7501392  19.0795860   9.7000227
  19.4769650  19.8208542   9.1595345  20.4949093  18.7029877   9.2312765
  24.6274414  71.7275925  79.2590637  25.3235016  72.0175552  79.8486862
  24.6600609  70.7719040  79.3017197  31.8501949  21.6138325  84.1316376
  32.4302177  21.1885433  84.7632523  32.4352646  22.1367626  83.5834885
  62.7739372  69.3168259  73.7365952  62.6059532  70.2225571  73.4764938
  63.3393097  68.9703217  73.0462952   3.1145115  61.3061333  32.1793022
   2.4585896  60.9046516  31.6093788   3.6372600  60.5704269  32.4982071
  59.1316338  28.3803139  41.8352203  59.9177094  28.1966782  42.3496094
  58.7656898  27.5174789  41.6407166  77.6621704   9.7356501  42.2286224
  77.2122803   8.9674311  41.8769531  76.9857712  10.2080011  42.7140121
  48.0414886  30.9628525   4.1422644  48.0177383  31.0219040   5.0973458
  48.7804527  30.3835201   3.9564176  54.7572784  37.4166031   1.6366994
  54.1402321  36.7819672   2.0010054  55.6185799  37.0275879   1.7885470
  21.1356869  66.6553650  47.1183052  21.7503948  65.9305496  47.2323685
  21.1229248  66.8122635  46.1741371   3.5447772  58.6635895  89.1855087
   3.7293077  58.9439507  88.2890778   4.3934569  58.6983452  89.6268311
  25.6170254   6.6372089  13.0121088  26.2391243   6.2248840  13.6114521
  26.1482296   6.9042974  12.2619629  79.4257431  62.9994507  86.7440643
  79.2361374  63.3592186  87.6105728  79.3689880  62.0510941  86.8608170
  40.6520538  71.5596161   0.6556124  41.4208221  72.0885696   0.8687537
  40.9909019  70.6685867   0.5691075  42.4231186  58.5660172  42.2092934
  42.8242340  58.4751587  41.3449516  43.0144920  59.1469078  42.6879158
  46.7567978  25.4345112   9.6924858  46.1529770  24.6919403   9.6774445
  47.2411995  25.3660240   8.8697500  66.5795288  21.4253864   3.9219244
  67.5080109  21.5078316   4.1395221  66.5284805  20.6339073   3.3860259
   5.4200506   6.4163961  62.3511848   5.8242960   5.5530524  62.4375305
   5.0266104   6.4104543  61.4786034  25.5743790  56.4019165  20.7942562
  24.6341400  56.5283279  20.9215469  25.6554241  55.4982376  20.4892502
  26.2309856   0.1033485  22.3344154  25.2860260   0.2559034  22.3373032
  26.5062923   0.3227032  21.4442921  62.5443077  66.6687622  36.1567955
  62.4052353  66.6276474  35.2106476  62.0600052  65.9191513  36.5028648
  36.2856216  65.7383957   7.1151986  36.0695801  65.0724030   6.4625058
  36.2387466  66.5663452   6.6371436  28.8815403  47.4130440  53.9616432
  29.3265305  47.3203354  54.8040352  28.1717987  46.7715912  53.9938126
  -0.1706836  16.3139153  18.7002792   0.4791395  15.9085588  18.1261311
  -0.1229730  15.8074837  19.5111332  12.0883255  33.5257339  30.1778870
  11.6713886  33.5243111  31.0395088  11.8077726  32.7041779  29.7746906
  28.3148727  42.4527855   6.6269627  29.1973801  42.5355453   6.2656307
  27.8314743  43.1874771   6.2490921  58.0141449  13.2486076  48.1700439
  58.4291382  13.5576792  48.9753342  57.1963463  13.7432032  48.1169624
  37.3939400   8.9305201  11.1988592  37.4382133   9.1724892  10.2738066
  38.2915916   9.0304880  11.5158062  58.0905914   7.6315432  51.6556244
  58.6091766   7.4937882  50.8629532  58.6923523   8.0605116  52.2639847
  62.0702095  12.8348322  14.9388895  62.0175056  12.7532482  13.9866295
  61.1581993  12.8762007  15.2265739  66.2346497  40.2957077  23.0269260
  65.3274384  40.0394821  22.8609715  66.5465393  39.6655235  23.6764069
  83.5568542  23.3957329  87.9064102  82.8419342  24.0297508  87.9624329
  83.5284882  23.0820198  87.0025177  67.9354858  44.9500465  17.9226627
  68.0265121  45.6446114  18.5749893  66.9956589  44.7709618  17.8930359
  58.7627335  61.5768814  78.4915390  59.6534615  61.3721466  78.2070847
  58.6315193  61.0399933  79.2730560  75.1024551   4.9815044  77.9575882
  75.8144836   5.0032368  77.3182373  75.2422409   4.1691852  78.4442368
  78.8926163  22.2411575  46.5167389  79.6260529  22.8551769  46.5524750
  78.1136169  22.7959671  46.5565376  66.6193390  32.9920540  40.6516914
  67.0016556  32.2620430  40.1647110  67.3553391  33.3709641  41.1322784
  64.6737213  11.1611404  14.8273258  65.1326294  11.7725048  14.2512455
  63.7481155  11.3805447  14.7207928  35.6256676   9.8343201  64.5282135
  35.6485176   9.3285370  63.7158775  34.7748909  10.2727194  64.5135498
  60.4016724  27.8855019  30.7707615  59.5597153  28.2306080  30.4737053
  60.9989014  28.6315613  30.7165203  12.5076618  52.3837242  71.1018143
  12.1685276  51.7283478  71.7114944  11.7406540  52.9000511  70.8541565
  55.7186508   7.1107192  40.1737862  55.3486938   7.9184732  39.8175583
  55.4033508   7.0808454  41.0770721  48.6710129  63.0905495   4.5162225
  48.2308464  62.2408142   4.4952459  49.1216736  63.1477051   3.6736853
  29.4395542  68.8238983  44.7654076  30.0069962  69.0794830  45.4926758
  29.2719746  69.6400070  44.2941170  71.5165787  43.6646309  41.2950745
  72.2835770  43.1318512  41.0851059  71.8779373  44.4653168  41.6752777
  82.5733337  45.5578194  50.4026375  83.3431473  44.9953156  50.4874992
  82.7565460  46.1004181  49.6356621  86.6575317  11.8719330  44.3139954
  85.8418427  12.2067003  43.9414177  87.2834625  11.9072313  43.5906754
  74.0485764   3.7696731  65.3812561  74.1982117   4.7106147  65.2892227
  74.0720673   3.4346159  64.4849243  33.6276360  66.7619019  59.0488739
  33.0743713  67.4092407  58.6117439  33.3773499  66.8166199  59.9711494
  57.7546310  55.7443581  87.9883499  57.3558464  54.8799019  87.8887482
  57.1000023  56.2569008  88.4626923  40.5826416   1.6759020  83.4735413
  40.8948822   1.6061349  82.5713959  39.7465820   2.1365738  83.4026794
  75.9051208  36.3931885  14.0972157  75.6858063  37.2846375  14.3682327
  75.2525330  35.8435478  14.5311060  63.9475250  15.8104239  15.4711351
  63.4418068  16.1048717  14.7136517  64.0175781  16.5855675  16.0283394
  85.4032211  26.7114658   5.8042197  85.5589676  26.1457710   5.0479364
  84.8671188  27.4267693   5.4619174  72.8693390  29.2842903  79.6204681
  72.7655334  29.9146385  80.3332901  73.5126114  28.6558151  79.9482803
  79.6200790  27.8915958  70.4984207  80.5722580  27.9151058  70.4033356
  79.2870102  28.0885925  69.6229248  15.2275877  61.7924538  63.3194923
  15.3404961  61.0528946  62.7223854  15.1093416  62.5485764  62.7445793
  68.8929825  12.5393600  31.7322559  68.0441437  12.2687140  32.0821762
  68.6834793  13.2285767  31.1019230  52.2274055  36.5916443  72.7760010
  51.7877388  35.9088364  72.2693405  52.7706947  36.1130104  73.4020844
   4.2941370  46.6628036  42.8843307   4.3399935  47.5337334  43.2788048
   4.0443344  46.0858154  43.6060753   1.7588575  13.3325548  11.4981041
   2.4286048  12.7171803  11.1998005   1.0327159  12.7772236  11.7819300
  41.2382088  60.2869453  46.5407181  40.2860222  60.2999611  46.4437675
  41.3840904  60.3664398  47.4833908  48.5196266   0.3202542  78.1705093
  47.6236916   0.5663894  78.4006119  48.4488754  -0.0437174  77.2880402
  30.2644539  66.4970245   1.5236756  30.9428482  65.8604355   1.2983632
  29.4739876  65.9713516   1.6464005  32.3627472   9.9310350  69.9460144
  31.4952221   9.9701042  69.5433884  32.9172745   9.5229874  69.2810059
  12.5263309  69.8409424  32.7318039  13.2051086  70.4135742  33.0889969
  11.8073664  70.4320984  32.5085144  43.6594467  18.3829861  83.4090729
  44.1205521  18.4910851  84.2408981  43.8964653  17.5029755  83.1164398
  14.0369968  30.2913017  26.4060078  14.9920683  30.2301502  26.4241905
  13.8592815  31.1520767  26.0269108   1.2412436  22.0483685  51.1271286
   1.7362435  21.4624252  50.5545235   0.5738039  22.4318085  50.5581551
  41.2478409  34.9215660   8.2116318  41.9972496  34.6513557   7.6809707
  41.0441246  34.1544037   8.7466021  69.0330582  39.1463890  75.4268723
  69.9092636  38.7751541  75.5302505  68.5042114  38.6998672  76.0880661
  34.1552124  39.6257782   8.2832317  34.3837929  40.0652924   7.4642019
  34.9751015  39.5966873   8.7763557  23.7689571   6.5983071  66.2433090
  24.2637787   7.0145679  66.9490814  22.9330463   7.0644598  66.2296066
  72.8722534  38.3404694  74.2936172  72.7469711  38.0794907  75.2059860
  71.9923019  38.5523338  73.9821091  64.1480255  13.6129694  49.6596451
  63.2432365  13.3809719  49.8688431  64.0729446  14.2697563  48.9673805
  53.7612572  66.5774155  55.6916466  53.8717537  66.0537109  56.4852180
  54.5247955  66.3637009  55.1553955  46.5086441  67.4841766   7.6656623
  46.5917816  68.3200836   8.1245470  46.7753944  67.6768265   6.7667952
  18.5411243  38.0625420  88.8933334  18.7928696  38.9762650  89.0273743
  19.0654221  37.7769394  88.1451569  26.6300640  58.2511826  54.6493416
  27.1001892  58.1542053  53.8212051  26.4405766  57.3539314  54.9236832
   7.8899441  10.1048784  18.8030262   7.3473253  10.8918285  18.8530903
   8.7873707  10.4350672  18.7602310  85.3766403  63.1496887  56.9062691
  85.8910599  62.3593674  56.7419739  85.6541061  63.7620277  56.2248840
  63.0385513  43.9261360   1.8267583  63.3955574  44.3102570   2.6275268
  63.7497330  43.9959373   1.1899078  51.5343819  61.0072823  37.0559196
  51.6458206  61.9523468  37.1592026  51.0597267  60.7348404  37.8412285
   4.5108294  48.1586647  77.0400391   5.2285643  47.6421585  77.4065247
   4.3446589  47.7641563  76.1838989  84.5023804   1.6826375  54.6270943
  84.4910278   1.3606887  55.5284538  83.5790558   1.7377039  54.3807869
  63.3855515   5.2804613  45.9171867  63.7366066   4.4963531  45.4950905
  62.5928574   4.9790154  46.3610382  77.9971771   5.6126933  61.8335571
  77.7361832   6.1508451  61.0862274  78.8828812   5.9084630  62.0439911
  17.0619831  28.0167923  63.4350739  16.5621395  27.4001923  62.9001007
  16.6080742  28.8522739  63.3247604  18.4813499  30.6273422  78.1435547
  17.7252884  30.1180916  77.8515549  18.5660152  31.3246708  77.4933243
  21.0929050   9.6840172  63.6868935  20.9377232   8.7421646  63.7580566
  20.3342228  10.0845108  64.1114426  67.1891556  24.5472622  31.5254383
  67.5815125  25.2148800  30.9627838  66.8786392  23.8750954  30.9188080
  61.0769920  38.2336426  56.1627312  61.8069954  38.8084183  56.3928566
  60.3252869  38.6044044  56.6250114  15.3583031  10.2370243  59.8376465
  16.2064495  10.2005730  60.2798576  15.0939379  11.1547461  59.9018974
  23.6099396  50.0361786  39.0109558  24.2159176  50.1491203  38.2786522
  23.8197479  49.1716805  39.3643074  26.7922287  30.0068817  89.3167801
  27.3823910  29.7454205  88.6099701  26.9800816  30.9353008  89.4545517
  69.7372208  45.6969757  63.4406433  69.2078323  45.4123154  64.1855927
  70.6292496  45.7436829  63.7846451  24.6526585  45.9167900  85.5837097
  25.2105827  45.5979347  86.2931290  24.7266541  46.8699646  85.6307602
   3.3456147  70.4948730  52.2676468   3.7430491  71.3566437  52.3926811
   2.6855412  70.6318512  51.5881081  66.2334747  36.3956261  81.4077072
  66.7289810  35.5773544  81.3740082  65.3185577  36.1195450  81.4619217
  19.5576954  68.2499161  59.4879913  20.2661495  68.3352737  60.1259842
  18.7577419  68.3569489  60.0026283  57.6129150  64.0299454  46.1163025
  57.1848068  64.1898270  45.2752342  57.1177292  63.3082085  46.5037460
  24.4855862  43.9648628   5.9936681  25.2497883  43.8213921   5.4354177
  24.7415428  44.6853142   6.5695748  15.6250486  24.1393433  10.9417505
  15.7085333  24.0770931   9.9902325  16.4943428  24.4051762  11.2415724
  75.9330673  12.0077906  45.2379608  75.6967697  12.6374702  45.9190636
  76.2705536  11.2513866  45.7177429  66.7829132  65.5548248  48.9534912
  66.2806244  65.7546768  49.7434273  67.1524277  64.6872330  49.1177216
  28.0073586  43.6974449  72.2080154  28.0206795  44.2605057  71.4340591
  27.7103424  44.2697449  72.9154739  50.4624634  37.6126595   2.0747135
  50.7771683  37.5545235   1.1725972  50.4639587  38.5499382   2.2689691
  76.8473206  15.1408081  73.5247345  77.3169174  15.8601398  73.1025085
  75.9238281  15.3813696  73.4504471  65.8930893  54.8578758  61.1043396
  64.9365768  54.8215485  61.1040459  66.1553574  54.2688065  60.3969193
  16.1948795  71.2320862  65.6564865  15.9525518  71.5335312  66.5320663
  15.4032087  71.3559494  65.1328964  85.2899246  61.0981445  29.2521591
  85.9891663  61.7387733  29.1222420  84.5015717  61.5355530  28.9305897
  84.7217712   6.4740252  55.7767601  83.8719482   6.0968451  55.5492401
  84.5643997   6.9416575  56.5969963  86.5577927  65.4248276  61.9823685
  87.2920151  65.2389450  61.3970528  85.7907257  65.0893478  61.5183792
  18.4559193   1.7030582  28.0359764  18.7550793   2.6115301  28.0735817
  17.5205650   1.7667065  27.8428631  40.1006813   1.3915632  70.9981308
  41.0576363   1.3763388  70.9828186  39.8656654   2.1762757  70.5029297
  46.8190842   4.9039254  70.1604156  47.4086723   4.5654106  69.4865952
  46.6812286   5.8200693  69.9197693  72.7473145  49.5757942   3.2527976
  73.5879135  49.1474304   3.4144621  72.2278214  49.3864441   4.0341439
  68.5083771   1.3260701   1.1904578  68.4788742   1.1436900   2.1296592
  67.5894470   1.3792094   0.9278144  82.1056290  16.5058804  60.9705887
  82.8988495  16.8029556  60.5247383  81.5502319  16.1649437  60.2695007
  42.9149628  56.0933876  65.3125229  42.8531685  56.9215508  64.8365402
  43.8331718  56.0370789  65.5770035  45.3140755   0.4406655  78.6840363
  45.4697151   0.1479072  79.5819778  44.8106079   1.2491348  78.7795715
  53.7680435  54.1058617  37.8620644  54.6851196  54.3732758  37.9228363
  53.3399124  54.5505104  38.5936546   2.8089564  63.6858597  87.5330276
   2.5028632  64.3200455  86.8846817   3.3777378  63.0946846  87.0398407
  40.8526115  61.6679573  56.3461304  41.0322189  60.9936829  55.6908989
  40.3302917  62.3211975  55.8806267  60.1316376  25.6915665   9.1519794
  61.0558395  25.8164139   9.3676205  60.1394424  25.1082191   8.3931141
  70.9401474  51.7305412  80.5769806  70.7641525  52.4765549  80.0036392
  70.1920013  51.7052002  81.1735306  53.5647926  54.1226082  14.7743607
  54.0294456  54.5819130  15.4739094  53.7209091  53.1950722  14.9519348
   7.9166217  60.5675468  25.1249008   8.4317465  59.9732971  25.6705589
   8.5333195  60.8800507  24.4628906  79.7366867  61.3800850  79.2781830
  80.3398285  60.6421776  79.1890335  80.1139221  62.0657120  78.7269669
  63.1612244  13.0557165  86.3501816  62.6173019  13.8433571  86.3518906
  62.5790329  12.3632765  86.0374298  25.1679287  13.1251154  15.8361254
  25.0995998  12.9147205  14.9048376  25.1277199  12.2764349  16.2769833
  46.0775070  12.8884287  74.1717834  45.1611748  12.8298349  73.9013519
  46.0598259  12.7252617  75.1148071  18.0237045  57.8466797  77.0003967
  18.9064751  58.1660118  76.8133926  18.1563454  57.1151047  77.6032562
  40.2348480  64.7092133  17.6485538  39.9353638  65.3459854  18.2974472
  41.1692543  64.6053925  17.8283863  50.8113747  51.8545837  45.9249115
  50.6422501  52.0303917  44.9993172  50.0906296  52.2838860  46.3858414
  51.4065628  64.7842560  63.9155235  50.9860878  64.4868546  63.1086845
  51.1232071  64.1553345  64.5791550  28.8566246  46.4957657  85.0544586
  29.0325222  47.3848228  84.7464447  28.1882401  46.1626854  84.4556656
  40.3415833  53.3934669   9.7018633  39.6463547  53.8277435  10.1961241
  40.9154282  53.0217743  10.3717737  81.1782990  40.7232628  42.2359352
  81.8853073  41.3432007  42.4149590  81.5287857  40.1508102  41.5535202
   5.5929112  36.8907280  84.0180740   5.4517884  35.9442863  84.0418167
   5.7522354  37.1320915  84.9305420  26.9511318  46.0302277  82.8387299
  26.7356110  45.2656364  83.3727570  26.5885410  45.8296204  81.9758759
  26.5429668   0.5582049   7.1911039  26.4028797   0.1590486   6.3324528
  25.6643238   0.6462666   7.5605159  27.8619785   3.1408343   3.5607142
  28.5496521   3.6323857   3.1115892  27.6776695   3.6521761   4.3486171
  21.3757648  67.2213440  78.2283859  20.6560078  66.6553879  78.5074539
  21.0753059  68.1076584  78.4293900  29.0468197  48.1689339  74.3840637
  29.3202553  47.3170776  74.0437622  28.4607697  48.5181732  73.7126465
  63.5930672  70.9205322  86.4285202  63.3030548  71.7606812  86.7838669
  64.5416565  71.0127182  86.3395767  13.0304832  23.5501938   2.5292571
  13.6753712  22.8974266   2.8017409  12.3973360  23.5753822   3.2466986
  32.5662766  48.1808815  10.5437117  31.7528267  47.8574867  10.9309387
  33.0437927  47.3897552  10.2940569  33.6561203  38.9063759  73.3575134
  32.9435577  38.7476540  73.9766159  33.2294617  39.3023911  72.5976639
  84.6326218  32.4214096  45.8232422  84.6736069  32.2783470  44.8776817
  85.4104080  31.9811974  46.1660194  73.0346985  27.5830517  26.9933224
  73.0635071  28.5394630  27.0193615  73.0028763  27.3696918  26.0607471
  54.5935173   4.8497324  83.7645340  53.9404869   4.6822486  83.0850296
  54.4370766   4.1698031  84.4198608  71.0045624  11.0187483   6.9691668
  70.6670532  10.1870918   6.6365037  71.7779846  11.1948442   6.4334049
  47.9304466  50.0663033  87.1018524  47.3949699  50.7984886  87.4074783
  47.8310394  50.0778503  86.1499023  18.1613197  24.4411240  65.8510895
  17.7714634  25.2044926  66.2771301  18.6189175  24.7990665  65.0903549
  18.0540276  39.3258438  73.2311249  17.4164143  39.5881615  73.8951035
  17.9190712  39.9433403  72.5122910  12.4731846  26.5186939  54.9168053
  12.4202099  26.5650234  55.8714142  13.2661619  27.0076389  54.6969185
  25.3911438  49.6520538   3.4106648  25.5932617  48.7183838   3.3503261
  25.9965038  50.0683022   2.7970610   6.8985858  47.4354744  36.4258575
   6.4850001  46.7807274  36.9884262   6.6404004  47.1862564  35.5384674
  20.2610149  55.1115990  36.6618690  20.1514587  55.8957443  36.1239586
  21.0854015  54.7286491  36.3619232  59.5426445  38.7745018   9.2433119
  59.6207733  39.7284813   9.2362480  59.9101219  38.5103302  10.0867605
  58.1792603  10.4181843  68.2504349  58.5911369  10.7929459  67.4718857
  58.9098053  10.2222996  68.8370972  46.5096207  56.1519661  32.6680336
  47.0303001  55.5585632  33.2093277  45.7126808  56.3027229  33.1763573
  28.6874256  24.1759987  78.5976334  28.2870750  24.4407330  77.7694626
  29.6178417  24.3719196  78.4873123  62.9801140  26.2328148  43.4584389
  63.1389999  27.0275383  42.9491234  62.1439095  25.9015961  43.1308899
  51.1870537   0.6178035   5.7641768  51.0715179  -0.1461996   5.1992140
  51.2133369   1.3602468   5.1605887  15.4716349  61.8064499  45.0901031
  14.6851873  62.2809219  44.8206406  15.1623249  60.9221802  45.2866402
  11.2097349  11.6761913  65.6194763  10.9302940  10.9562464  65.0539474
  11.8118525  11.2707872  66.2434464  72.3940277  23.5939026  69.8716812
  71.8742065  23.4070320  69.0899582  72.3899384  24.5486927  69.9394379
  49.6249313  45.2806053  61.2141075  49.7828217  45.0386848  60.3015404
  48.8907776  44.7291183  61.4845085  48.4585953  25.0785522  29.6098232
  48.3522720  24.8968201  28.6760674  47.5782013  25.3014984  29.9122028
  42.9680481  40.6100311  79.4713364  43.8549576  40.8151321  79.7672424
  42.4684372  41.4088058  79.6403885  64.7480927  69.9210205  45.9486961
  65.5875092  69.9351044  46.4085045  64.6145935  69.0006790  45.7220154
  37.0781708  51.7876663  11.5999279  36.6790390  51.9723129  12.4501219
  37.4809341  52.6160164  11.3394499  35.0791016  52.9712372  67.4203644
  35.4382248  53.6173668  68.0284653  35.8186226  52.3996201  67.2139816
  65.2384338  52.5894547  56.9437103  64.5367355  53.1908607  57.1930428
  65.8012848  52.5445290  57.7166328  63.7184181  29.5341835  74.3393097
  64.5114594  29.0717335  74.6103287  63.5302429  29.1944981  73.4644165
  79.3874054  66.0697098   3.2505186  79.8047638  66.9114380   3.0674067
  79.5990295  65.8917694   4.1669159  34.7454758  21.1762161   7.0090113
  33.9253693  21.2730255   6.5249839  34.7819443  20.2467842   7.2349782
  66.1583099  38.7141342  50.3604431  66.3035202  39.2524605  51.1384811
  65.9129181  37.8556862  50.7055359  12.6676226  47.9090538  77.3820801
  12.0838041  47.7411957  76.6423416  13.4531612  47.3976593  77.1880798
   3.6265428  43.0251732  14.9008055   3.8147385  42.5140266  14.1136951
   4.3565421  42.8351021  15.4900465  72.7087021  49.0455208  45.0860405
  72.7590714  49.5541420  44.2767220  73.6122055  48.7812691  45.2594795
   4.5020351  18.1642494  77.1644592   4.5334787  17.2961864  77.5665894
   3.7299809  18.5787945  77.5495758  68.1386948  66.0971298  23.1819859
  68.7280807  66.7125702  23.6179790  67.2610168  66.4137573  23.3956699
  59.9171448  10.3253851  70.3238907  59.5628738  10.6690855  71.1440125
  60.4752312  11.0281572  69.9909058  20.8928909  60.8894386  14.0603037
  20.5391521  61.7788773  14.0591888  21.5897694  60.9080162  13.4043713
   6.0280914   6.8462763  70.7946777   5.4434180   6.6396542  71.5238495
   5.7985954   6.2111783  70.1162872  25.5253773  48.6537056  51.8520470
  25.4377918  49.6061935  51.8884964  25.6495419  48.4599876  50.9229126
   1.5182906   6.6614943  27.1678543   1.1986399   6.2912369  26.3450756
   1.5370873   7.6060810  27.0141220  13.4132872   6.7876744  41.5063057
  13.1188431   6.5844998  40.6184654  14.3610716   6.8946481  41.4257240
   4.5850515  47.4061165  87.2821960   3.7088096  47.3290062  87.6596756
   4.9754214  46.5406952  87.4042435  54.0117035  25.7019920  73.2153244
  54.9066238  26.0336838  73.2883148  54.0366859  25.1085701  72.4646912
  68.1319351   0.8805183   3.7698092  67.7163696   0.0950062   4.1254930
  67.4243240   1.5229869   3.7173731  12.4888411  56.2253761  68.2310181
  13.4221649  56.3302383  68.0462341  12.2607450  56.9930611  68.7552872
  85.8612366  47.1451721  61.2812347  84.9735260  46.7884064  61.2509003
  86.4285507  46.3744659  61.3014717  51.7164192  34.0490112  63.3073044
  52.2155609  33.2673645  63.0704117  52.0393295  34.7280426  62.7149582
  31.3390198  48.2943459  78.4670715  31.0658875  47.4269142  78.1684189
  31.8504772  48.6481285  77.7394104  56.3535652  30.2003517  79.4667358
  55.6516113  29.5571117  79.3680649  56.3253288  30.7116318  78.6580200
  82.7767868  13.4725780   2.9392364  81.9040298  13.1821947   3.2042191
  83.0371628  14.0972357   3.6161687  53.2681046  44.6252708  30.1142387
  53.2921638  45.2934113  29.4292259  52.4956627  44.8442726  30.6353951
   9.8556576  63.9797440  27.5303955   9.2460985  63.4639778  27.0025196
   9.2965641  64.5794373  28.0243740  42.5621300  65.0272827  81.0438995
  42.6311913  64.8494034  81.9818878  42.2645874  65.9356766  80.9936600
  53.5446167  58.6871338  20.5919437  52.6720505  58.7834511  20.2103901
  53.3822403  58.4917374  21.5148125  19.5564613  64.8971329  68.1530075
  19.6033783  65.3721237  68.9827194  20.2680588  64.2588043  68.2018890
  57.9983482  70.7555008  17.3042908  58.6744957  71.3095551  16.9143257
  57.8351974  70.0785522  16.6475124  19.8257580   1.1289959  24.9265823
  20.3760052   0.7029860  25.5838299  19.6374550   0.4403074  24.2890224
  30.6189766  53.7988968  30.0206356  30.0401821  53.0849571  30.2880688
  31.5016327  53.4622841  30.1750488  55.7464523   0.4715213  55.7094879
  54.9694786   0.0187862  55.3815041  55.4279366   1.3357251  55.9701233
  85.4916153  63.9655685   4.5889182  86.0042801  64.1811676   5.3679719
  86.0479736  63.3630829   4.0952535  30.1866951  64.4250183   7.1643758
  29.5470734  65.0526962   6.8280163  30.3049259  64.6717834   8.0816317
  17.5351257   5.0522685  61.6685791  18.2684994   4.8484998  62.2489853
  16.7804756   4.6298451  62.0788155   4.3536115   0.5149252  49.3068390
   5.2978673   0.6324398  49.2029037   4.1893482   0.7014783  50.2312050
  49.7823372  53.6804657  72.6754761  50.3104515  54.4737396  72.7651443
  48.8799438  53.9796143  72.7869644   3.4478424  24.9724941  18.2194653
   4.1033406  24.6478920  17.6020622   2.8039615  24.2666683  18.2782764
  63.1700859  46.1346016  50.1770477  64.1270447  46.1543732  50.1854019
  62.9102402  47.0364380  50.3652039  74.9843292  25.0090885  89.3552170
  74.7293854  25.8782730  89.0457687  75.4129105  24.6028366  88.6018829
  86.2253036   5.0055881  35.7712593  85.4392776   5.4802547  36.0416145
  86.8745041   5.2152009  36.4426994  27.9483414  66.1901093   6.6847482
  28.0700703  66.6584091   7.5106487  27.3205853  66.7234955   6.1972485
  68.3420181   2.3068788  61.4608765  67.4469299   1.9899048  61.5815887
  68.8915787   1.6262215  61.8493576  56.6382332  64.1909103  60.7415581
  57.4558105  64.0087891  61.2048454  56.6183968  65.1441116  60.6564217
  50.4744072  11.7209959  36.7894325  51.0755272  12.4637356  36.8462067
  50.1664009  11.7308769  35.8831978  77.4162445  21.1157055  14.4789619
  77.8360367  20.2555027  14.4863491  77.1886292  21.2790070  15.3942537
  13.4610901  55.8778763   2.0642407  13.2856846  55.0688324   1.5837114
  14.3298197  56.1490860   1.7676132  55.2728844  51.3123360  84.0176926
  55.2262878  52.2010651  84.3701401  56.1855240  51.0524216  84.1432648
  50.1739616  20.3655548  16.1146297  49.8575401  19.4876232  16.3275700
  50.4173622  20.7438946  16.9595242  76.7555542  53.9813576  78.7857056
  77.1317215  54.2913666  77.9619217  76.6950760  54.7654076  79.3314514
   1.7508860  66.0174942   4.1853204   1.3584011  65.7214355   5.0066223
   2.5966690  65.5707397   4.1493187  10.9357738   7.9112353  16.1343498
  11.8853083   7.9861445  16.2292461  10.7425194   8.3499460  15.3058472
  78.2296906  56.8553886  52.3399467  79.0750961  56.9856682  52.7695312
  77.7143097  56.3547096  52.9723511   7.7753453  11.2017450  85.2298737
   8.4095516  11.9079390  85.1061630   7.1762686  11.2851515  84.4879990
  40.3999672  16.1562023  77.0711441  39.9819183  16.5276566  76.2942963
  40.9769745  16.8510990  77.3880234  79.6680069  46.7644386  88.4979477
  79.6930618  45.8186150  88.6429214  80.5479507  46.9831123  88.1911621
  70.8013153   9.9877100  72.0505676  70.3491287  10.8279428  71.9746094
  70.4033966   9.4395695  71.3742294  67.8000107  29.0005360   0.3672612
  67.0598679  29.3995399  -0.0901319  67.3996124  28.4897327   1.0708185
  51.8528557  34.0123329  77.1468506  51.5320435  34.4045258  77.9589462
  52.4347267  33.3087120  77.4342194  86.5047379  30.9733906  56.0427170
  86.8005219  30.1139488  55.7425499  87.0974121  31.1930637  56.7615433
  80.0696487  33.4444962  66.1710739  79.7081604  33.3933601  67.0559158
  79.9072876  34.3473854  65.8978271  37.9236946  16.4962883  19.2254562
  38.2860718  15.8448048  19.8258591  38.0158730  16.1006870  18.3587189
  36.8790894  24.9996300  88.1338501  36.0142365  24.8069916  88.4960022
  36.8591042  25.9393692  87.9529495   9.1816750  37.3745995  84.5716553
   9.6648626  37.4020042  85.3974915   8.3292627  37.7569313  84.7800903
  35.9558372  46.9402657  25.3745441  36.2577515  46.2336273  25.9452839
  36.6060028  46.9758186  24.6729393  30.9221458  58.4636574  19.0483456
  31.7469177  58.0024872  18.8956909  30.2800579  57.7671089  19.1853542
  74.3421021  63.5408592  27.4561214  74.5180511  63.7691460  28.3688965
  74.5406570  64.3393250  26.9669819  10.7136278  58.0124207  79.5671844
   9.7728939  58.1172523  79.7095337  11.0401163  58.9054031  79.4566422
  69.0545197  16.7488289   9.6229506  68.4618912  16.1858959   9.1248207
  69.9220123  16.5590000   9.2656612  21.9119759  30.3362598  86.5369186
  21.8337879  29.8781567  85.7001038  22.3789101  29.7220840  87.1034851
  58.4466248  30.8577785  54.1161842  59.1157990  31.4861717  53.8449631
  57.6842384  31.0728855  53.5788498  27.9211864   4.5862851  61.2702675
  27.8406429   5.4939308  61.5633965  28.7793064   4.5461974  60.8480682
   7.8120422  50.2242203  11.9682560   7.0865273  50.7321053  12.3314543
   7.6212029  49.3205147  12.2195225  83.1360550  38.7996674  36.3576584
  83.3326797  38.9576836  35.4342957  82.1941910  38.9534225  36.4316902
  24.1284065  63.6635742  61.9213104  23.8359547  62.7571106  61.8263092
  24.1136036  64.0145874  61.0309181  34.3007431  44.7661171   1.3222355
  34.6066322  44.8851662   0.4230735  35.0979195  44.7899475   1.8515537
  75.9330902  31.4278526  67.2858658  76.3090134  31.0239811  66.5036850
  76.5392456  32.1355591  67.5048752   7.6440320  34.9636116  67.8679581
   6.9327726  34.5549469  67.3746719   7.9449663  34.2792778  68.4657516
  65.5158463   9.3556795  83.4347610  64.6315079   9.4620695  83.7852783
  66.0617371   9.9138775  83.9885254  48.5759621  11.4367132  81.4897232
  47.7579842  10.9729052  81.3107681  48.3330994  12.3625536  81.4813614
  73.1738434  21.5397720  23.6502094  73.5287094  21.0835819  22.8871918
  73.7817078  21.3295021  24.3590946  38.7793427  61.0584030  34.2509842
  37.8245583  61.0786400  34.1861267  38.9524765  60.7722092  35.1478386
   8.7777176  58.8783455  42.5510063   7.8627458  58.6357117  42.4089241
   8.8996058  58.8091164  43.4978867  55.2252579   7.7124686  33.0524673
  56.0174141   7.4065080  32.6107521  55.5381622   8.0760813  33.8807831
  22.3377628  32.7923851  83.6457214  22.3179722  31.9679127  83.1598358
  21.9349251  33.4284592  83.0546570  10.1053286   9.8682299  82.6245956
  10.6679678   9.2157574  83.0416641  10.3588457  10.6974106  83.0300827
   5.1221981  70.8535004  21.4974499   5.0678186  69.9428253  21.7871819
   5.2474995  71.3542328  22.3035526  31.5427799   1.5142648  73.6519852
  32.1665154   0.8085860  73.4811020  31.5626144   2.0488853  72.8582535
  17.6585922  64.2274628  20.9393272  17.0826988  64.9637756  21.1452961
  17.4315472  63.9900131  20.0402718  49.7612457  15.1982889  23.8448563
  50.3297997  15.0947266  24.6079102  49.1350212  14.4775906  23.9131947
  53.3447113  66.0808563  85.1277771  53.0154228  65.8128891  84.2698746
  54.2052994  66.4587631  84.9466553  25.0444183  42.6609306  66.0059357
  25.3310928  42.8228798  66.9047241  25.7962933  42.9064140  65.4668121
   3.9438453  31.7584076  44.2875404   4.0900354  32.7033272  44.2429237
   3.1550391  31.6630249  44.8213196  15.2069597  14.6954756  20.0893230
  15.6589966  15.4829502  19.7863731  15.6024017  13.9837313  19.5860558
  61.9752731  50.9606361  72.8602142  62.3548508  50.3874435  72.1941833
  61.3644142  51.5172691  72.3772659  74.9358749  22.8281422  65.2103882
  75.4530258  23.2306175  64.5126724  74.4319916  23.5517254  65.5828857
  25.2326260  15.0791693  28.8817616  25.7352524  14.5455370  29.4972572
  25.6140747  14.8814917  28.0263939  38.1022797  50.5489388  63.0373878
  37.6897049  50.8873520  62.2427216  38.7369919  49.9054298  62.7223167
  10.0784187   0.2588032  42.7743187   9.7876186   1.1644077  42.6668587
   9.5615215  -0.2357967  42.1383781  77.8361969   3.5886424  31.5481281
  76.9908600   3.5424120  31.1014709  78.4340134   3.1023881  30.9803219
  49.7246437  21.9689064  82.2631226  50.0800858  22.6783276  81.7277527
  50.4173737  21.3084621  82.2761078  55.9642601  20.7029724  63.0497704
  56.3880692  20.4957905  63.8826523  55.7838860  21.6416912  63.0998001
  22.6219044  54.4059944  65.7698669  22.5057831  55.2192001  66.2612305
  21.7676964  53.9761963  65.8127289  60.7024307  36.8854828  29.5644779
  59.8122330  36.9279518  29.2152233  61.0640182  37.7573471  29.4052944
  80.1874390  15.2905569  63.3891144  79.7688751  14.8239260  62.6657219
  81.0045013  15.6238861  63.0182610  27.6625690  46.5829315  14.4101362
  28.1885319  46.1309738  15.0699301  27.3924828  45.8923111  13.8048878
   1.1514109  52.8202438  70.3548355   1.3406197  51.9821167  69.9329605
   1.9951013  53.2716789  70.3798065  68.4454727  46.1631088  20.6927090
  68.9325104  46.9003410  20.3245811  68.1906204  46.4571838  21.5672379
  55.7882347  63.7987022   1.3825713  55.8967133  64.5700760   0.8262938
  56.5842094  63.2865829   1.2397834  23.6286697  42.1294327  63.4276848
  24.4219723  42.1922722  62.8957481  23.9247265  42.3047371  64.3209076
  53.2079659   5.9593248  63.5003738  53.6199913   6.5994334  62.9200897
  52.3159676   5.8709188  63.1645851  26.6780167   2.7514002   1.0407388
  25.9305992   2.6439209   1.6289970  27.4044514   2.9883165   1.6172760
  84.6170731  68.2905884  32.4934769  85.3442001  68.0438538  31.9219475
  84.9301910  69.0668030  32.9578781  12.0546970  20.9567642   6.4963450
  12.8810816  20.6857548   6.0965028  11.4652901  20.2162075   6.3534899
  18.7169895  64.7697754  82.9842834  17.9506378  64.8339386  83.5542145
  18.6167240  63.9267693  82.5421066  36.5170784  48.0813522  43.2759056
  35.6256905  47.8376236  43.0263939  36.4099617  48.8712654  43.8058052
  82.2818451  26.9568501  67.2146454  81.9413452  27.4552975  66.4717865
  83.2219620  27.1368732  67.2131348  31.5542946  26.5754433  70.4822693
  30.8203831  26.2020283  69.9942474  32.2949066  26.5233936  69.8781052
  21.3218422  58.9901047  51.3953857  21.4226151  58.8495941  52.3368378
  20.6984367  58.3186378  51.1183815  26.0222759  27.5757904  66.7156525
  25.3972759  28.0804634  66.1951599  25.4809399  26.9581432  67.2072830
  54.8966522  38.9105835  26.6520119  55.0621910  37.9756966  26.5302792
  54.4350777  38.9651222  27.4887962   3.3126490  18.0947628   4.0898995
   3.0877936  18.9411831   4.4762216   4.2683129  18.0591335   4.1307554
  77.5600891  51.7800255  40.9724541  77.6743011  51.6802368  40.0273476
  78.0825653  52.5500183  41.1968689  11.9598274   6.5764170  51.9396667
  12.4472885   5.9817066  52.5096970  12.2242498   6.3292913  51.0535278
  53.5847015  17.8041401  84.7405930  52.7561760  17.3374958  84.8502350
  54.0769920  17.2740974  84.1137466  75.4717941   1.5325589   3.1165168
  76.1811447   1.0872122   3.5799010  74.9636383   0.8250681   2.7197008
  53.2141113  47.7735748  49.4368744  52.7064476  47.5060692  50.2030029
  54.1007156  47.9074936  49.7718811   2.6122329  26.2867699  61.1337891
   2.9022036  25.8700371  61.9452591   1.6881520  26.4862041  61.2838936
  10.1581879  66.4810715  55.3780746   9.7136574  65.9740448  56.0574455
  10.6537590  67.1436386  55.8593674  63.0589218  61.8926926  64.3017044
  62.8446579  60.9717369  64.4505692  63.8362961  62.0475121  64.8383179
  81.0460968  63.9432793  51.4144440  80.7074966  64.5979614  52.0251541
  80.2853088  63.6849403  50.8941612  47.7654114  25.7295876  72.4835968
  48.6039085  25.2704811  72.5323563  47.1087189  25.0396233  72.5781250
  55.5109024  51.5791626  77.1121216  55.6000862  51.7472229  76.1740189
  56.3654709  51.2387009  77.3767548  10.2659121  -0.0161650   5.7695894
  10.4362783   0.3486716   6.6379795  10.2855425   0.7405975   5.1837931
  21.2489414  59.9757729  68.4080048  20.6786003  59.2262993  68.2370224
  21.4212780  60.3478394  67.5430756  68.3118896  47.1851234  37.0616951
  68.2803802  46.5531082  37.7798843  67.6278458  46.8958092  36.4578629
   5.5776405  17.4181576  22.1055775   5.8989053  18.0257111  22.7718353
   5.4563427  17.9599895  21.3258724  80.6277542  12.5826988  45.6595802
  81.1666565  12.0181398  45.1054230  79.9398041  12.9041348  45.0768051
  49.1891975  57.8185005   6.5719399  48.5129929  58.1330528   5.9719100
  49.5080338  58.6082954   7.0087438  65.5690613  48.7071762  55.6492996
  66.3285828  48.7735596  55.0705528  65.2669678  47.8048477  55.5454826
  45.2581367  37.0623856  85.4212265  44.8791389  36.7489395  84.6000443
  46.1629715  36.7507286  85.4017639  70.8047943  21.1891994  20.0723476
  70.3626633  21.8528004  19.5428314  70.1002731  20.7656231  20.5627251
  42.2593460  27.6026764  85.5303879  42.7810249  28.2933102  85.9391708
  42.6027718  26.7906761  85.9031372  60.6119270  23.7350903  18.0555668
  59.7130966  23.8885365  18.3467484  60.7396927  24.3538647  17.3365231
  80.5208664  54.6724167   4.7569370  79.8697357  54.8320312   4.0737181
  80.5026321  53.7244644   4.8884125  62.6244087  15.0434446  76.5141983
  63.4746094  15.0796404  76.9524612  62.5329056  15.9004679  76.0978165
   4.1460633  55.8579178  86.0604324   4.6992550  56.2321777  86.7461014
   4.1264510  56.5273209  85.3765182  70.5017700  67.8939056  78.2632980
  69.6157455  67.6911240  78.5634232  70.7396164  68.6896286  78.7392044
  85.5881119  26.6898804   1.0587023  85.7794724  26.1827278   1.8476312
  84.6437683  26.5937595   0.9353691  11.0183048  42.6913681  82.3073502
  10.9605751  43.3077621  81.5773087  11.1456919  43.2443428  83.0782089
  80.3309402  31.5355339  71.0367508  79.4807129  31.7218609  71.4350357
  80.1598358  31.5374451  70.0949707  65.3172455  34.6701126  35.1076393
  64.7521591  34.4539680  34.3658867  65.2527542  35.6217041  35.1885567
  38.6619453  58.7290001  55.4959145  38.8966904  59.2127457  56.2878227
  38.1882896  57.9611931  55.8158379  75.2908478  49.9207077  27.1545067
  75.2825928  48.9886971  27.3725033  74.6338120  50.0110741  26.4643116
  58.7316208  64.5162048  63.0626755  58.6113777  65.2562485  62.4676018
  58.3794861  64.8215027  63.8987541  34.5373077  63.0334549  51.8697586
  34.5467911  63.5719757  51.0784683  34.3720665  63.6538429  52.5797195
  63.3905334  25.4494438  79.1644211  63.1152229  25.7316017  80.0366745
  64.2558365  25.8417187  79.0478058  49.3311806  11.4965963  88.6101303
  48.9884682  12.2849684  88.1891251  49.5822411  10.9267254  87.8831863
  43.8506584   3.5888877  20.0564575  44.8008575   3.6591756  20.1481781
  43.5319977   3.4678471  20.9509048  44.7625999  70.8773651  22.9263706
  45.0531960  70.0690460  23.3487511  45.0387268  70.7838440  22.0146484
  10.0603533  50.1384010  36.3277054   9.3780031  50.3026466  35.6768188
  10.8430576  50.5521355  35.9637947  33.8888969   5.2525496  69.1979065
  33.8740501   5.6473708  70.0697632  34.7399521   5.5008903  68.8369827
  25.9012985   7.2677498  21.5603180  26.4614029   6.9585648  22.2723007
  26.2502174   6.8402524  20.7781830  29.6788635  62.3901825  11.3594837
  30.4395027  62.9443665  11.1847248  29.1153736  62.5087852  10.5948629
  12.4422503  69.4201508  13.2993946  12.6802769  68.5499802  13.6193619
  13.2628832  69.9127274  13.3120070  66.9998627  34.1338272  37.3628769
  66.9705582  33.2299271  37.6764641  66.3949127  34.1497841  36.6212502
  47.1631050  12.6040659  52.0795784  46.9264908  12.8851061  52.9634666
  47.8028183  11.9047928  52.2137871  37.3179245  35.5865326  63.3181419
  37.4598351  35.1755409  62.4653969  36.8014030  34.9474373  63.8090553
  62.6051407  59.2347336  81.8164673  62.6733360  58.5772324  81.1241684
  63.4692688  59.6456261  81.8425064  72.2685394  66.8977661  30.6877460
  71.7952881  66.1480789  31.0486279  72.1983871  67.5727921  31.3627625
   1.9551318  46.8141136  76.8192520   2.6658583  47.3271332  77.2038422
   1.2815366  46.7908897  77.4989319  58.2196770  17.3265781  32.3666687
  58.7794876  16.9234848  33.0302658  57.8379974  16.5869560  31.8938980
  64.3731461  57.3553581  58.3890419  65.1230850  56.7775536  58.2477570
  64.7156982  58.2352104  58.2317238  16.4398174  43.9813118  76.7567520
  17.0200081  43.9567108  75.9958267  16.3765144  43.0689507  77.0392761
   8.5766096  12.9699755  27.0839863   7.9612856  12.3229990  27.4289932
   9.4151630  12.5095301  27.0515900  78.3790588  59.0652885  78.0198212
  78.8238373  59.7559052  78.5112000  78.3371658  59.3981552  77.1233444
  51.2845612  28.5217781  78.3645477  50.6186829  28.1762943  77.7700043
  50.8045921  29.1137218  78.9437408  73.8093567   6.5155907  14.5411463
  73.0244598   7.0297627  14.7303267  73.8534622   5.8756380  15.2516022
  80.6817703  56.9903679  80.0435562  80.3637772  56.1986885  80.4775543
  80.6582718  56.7779083  79.1105270  26.4543133  30.9159927  73.6471939
  27.2548943  31.4154453  73.4864197  26.2122383  30.5686455  72.7887192
  18.9372349  67.9298401  83.9323196  19.7183800  68.1032562  84.4576492
  18.6147747  68.7976074  83.6889343  43.3567696  48.8964729  84.5168457
  43.0797424  48.6461258  85.3982162  43.9946747  48.2278595  84.2673111
  85.9901657  69.2345657  35.3434448  86.8356628  68.8959656  35.6379128
  86.0294724  70.1724854  35.5305290  18.9341793  13.9663486  74.7661133
  18.2019234  13.6582193  74.2321777  18.6456642  14.8152666  75.1012650
   6.7076216   7.1320882  55.7676811   6.0922260   6.9920650  56.4873466
   7.1776514   6.3019114  55.6895218  46.8945198  25.4446125  75.1502380
  46.0034370  25.2752228  74.8444366  47.3535957  25.7762165  74.3785400
  22.8572350   0.9207116   1.4473718  22.1536255   0.2718499   1.4354162
  22.4178944   1.7536132   1.2756543  11.5159588   7.5997658  83.4541397
  12.3657503   7.5445170  83.8912125  11.3493147   6.7106428  83.1412125
  20.6641140  17.3722706  75.6446381  20.9392986  17.7840843  74.8255463
  19.9291286  17.9062729  75.9460831   1.8956839  31.8944054  37.5011902
   1.9050714  31.2359543  38.1958771   2.6989291  31.7321453  37.0065193
   7.5318904  56.6871758  12.9915476   7.2122059  57.3531570  12.3828583
   6.9940476  56.8009377  13.7751389  49.4464111  39.6832962  87.3621674
  49.4509468  39.5583687  86.4131699  49.3538094  38.8001633  87.7195587
   5.4537768  59.3208923  49.8755798   4.6141686  59.7774620  49.9288216
   5.6319294  59.0416451  50.7736397  34.7107658  67.0228729  24.4290428
  35.3508072  66.6141434  25.0117245  34.7355232  66.4897614  23.6344299
   1.1044093  65.6503906  47.1718140   1.9765525  65.2559433  47.1686897
   0.7318701  65.4146347  46.3221855  39.7503548  47.9281197  73.2836914
  39.5538597  48.7425766  73.7465973  40.5912933  47.6453133  73.6429596
  72.3447571  29.1256676  53.8389854  71.4804535  29.0431366  54.2419815
  72.8427811  28.3858757  54.1867027  71.6950989  18.8111725  32.1815491
  71.5572586  19.5696983  32.7488861  72.6287994  18.6170731  32.2638092
   0.6487154  64.4819183  18.4109650   0.4246345  64.0092545  17.6093349
   1.4972087  64.1233521  18.6711979  60.3861542  22.5371113  87.2610626
  59.5624123  22.5907211  87.7456360  60.7684212  21.7018394  87.5301819
  67.2010193  37.6923103  76.7127609  66.5326080  38.1277924  76.1837769
  67.0671387  38.0341644  77.5967484  65.7259979  36.1180191  48.6305351
  65.5081863  36.9458427  48.2021675  65.1611938  36.0921516  49.4029083
  67.9971542  11.8270578  75.3643341  68.6300507  11.3204775  75.8732986
  68.0624008  12.7147951  75.7163239  18.7440929   7.5695591   6.0517349
  19.6471443   7.5407948   5.7356615  18.2820988   8.1068430   5.4082155
  41.0623207  25.0147934   3.0511775  40.4761086  25.7599373   3.1828866
  41.8594398  25.3987789   2.6859536   8.6421156   1.3725880  74.5896301
   7.8542457   1.4437060  75.1285477   9.2529163   2.0012770  74.9742126
  61.4751434  42.0700035  74.7335129  61.1010933  41.9415550  73.8618317
  61.5967255  41.1840553  75.0749054  18.3390408   1.5607677  86.8850479
  18.8710308   1.3424253  86.1198425  18.2175293   0.7264498  87.3382416
  40.3724060  70.9752884  63.8098183  40.3953514  70.4278259  64.5946655
  41.0106087  71.6675949  63.9819641  23.0131626  45.3177414  10.7448874
  22.5221844  46.1394272  10.7435627  22.4648571  44.7119064  11.2434425
  74.3374557  11.7330465  66.3461685  74.3503799  11.9417400  67.2802505
  75.2546005  11.7833490  66.0768051  14.0102968   6.5880222  17.4836826
  14.9042358   6.2525711  17.4160271  13.4633255   5.8842072  17.1348267
  73.7915726  58.7778511  24.0378838  72.9360962  58.8311081  24.4639778
  73.9381256  57.8404503  23.9112339  22.8030739   6.5360460  44.0139809
  23.7199860   6.3708963  44.2335892  22.5996075   5.8922987  43.3354340
  43.0501518  45.3482094  25.4633675  42.4862404  45.6670799  26.1680393
  42.4662590  45.2619514  24.7098007  19.3206673  15.1556330  12.3178988
  18.3980045  14.9009266  12.3251133  19.6048012  15.0521975  13.2260838
  43.0223808  14.0584927  64.3322678  43.4635315  14.2235413  65.1655579
  42.2711678  13.5120153  64.5630722  49.9080391  27.0839806  54.1077538
  49.9181175  27.9872684  53.7912102  49.8101234  26.5540409  53.3166733
  82.2131195  17.8520241  34.2323341  82.1087189  16.9344444  33.9805870
  81.4419098  18.0431767  34.7661247  77.8777618  22.6023216  27.6460915
  78.2661972  22.2864304  26.8302689  78.4965210  23.2579479  27.9678497
   2.9741800  19.2663326  72.6144257   2.2461982  19.1935310  71.9971924
   3.2592380  20.1772442  72.5422134  12.6187849  25.5291519  67.1497803
  13.3809290  25.7524834  66.6154709  12.9777021  25.0252857  67.8802109
  61.4828949  60.4650421  84.1200867  61.5549431  60.2169151  83.1984177
  61.8949966  59.7435265  84.5952911  43.4079742   1.6587038  61.5177841
  44.3206406   1.3763707  61.4581070  43.0733032   1.2231789  62.3017120
  85.9629517  59.9594002  84.8218002  86.4469528  59.2077789  84.4796982
  85.0563965  59.6566963  84.8744202  78.5544128  47.8424149  43.6042519
  77.8912506  48.3702736  43.1594925  79.3817673  48.2817383  43.4074898
  75.8540039  33.4896202  55.1841354  76.1875610  33.3874626  56.0755043
  75.6806717  34.4271584  55.0992432  55.4666214  21.0949326   3.2588229
  54.7648659  20.4439697   3.2627470  55.2020760  21.7362823   3.9183075
  43.0073586  61.9045753  79.5788345  43.2253761  61.7781906  78.6553955
  42.1357536  62.3000450  79.5671921  26.1806698  68.8627701  47.0811081
  26.7900219  69.5085449  47.4387245  25.4465408  69.3821030  46.7531204
  26.1903610  68.6916962  10.1266346  25.9860821  69.6231537  10.0435934
  26.0056992  68.4867859  11.0432281  67.4361191  39.0338593  70.8109131
  68.2451324  38.6053963  70.5313644  67.1931458  38.5826797  71.6193848
  53.1304398  49.8403625  32.5325699  53.7536926  49.4285469  33.1310654
  52.7471428  49.1103554  32.0463562  22.3892288  30.4615879  55.8497963
  21.5994015  30.9991016  55.9088440  23.0309277  31.0254326  55.4179001
  74.9832153  37.1358185  70.6574249  74.8028183  36.3670807  70.1163712
  75.5757523  37.6684074  70.1268692  56.6287994   6.8961992  72.5454102
  56.2277679   6.7630391  71.6865311  57.4324722   7.3825970  72.3616714
  81.2412567  44.4505234  88.8814697  81.7687302  43.7377472  89.2419586
  80.4280472  44.0294609  88.6028519  57.6530724  22.7513618   3.2721255
  56.8146935  22.2907352   3.2378287  57.9268723  22.6826382   4.1867523
  44.5159492  69.1897125  81.9164734  45.0036201  68.5053864  81.4580994
  45.0269012  69.9860229  81.7714005  67.0908356   1.2853714  72.8667297
  67.9659729   1.5664842  73.1338272  67.0172882   0.3885799  73.1932068
  76.9376984  68.7165146  39.4073677  77.2635269  68.3294830  40.2199402
  77.3730698  68.2202301  38.7142715  16.6466255  27.8151798  86.0185089
  16.8380280  28.1098709  85.1281433  17.3909111  27.2606182  86.2524490
  55.7181587  10.5944872  74.3010559  55.5659218  10.7457323  73.3682251
  56.6646843  10.4710302  74.3723373  35.2773132  46.1324310  59.8175545
  34.8416023  46.9044647  60.1786041  35.4836960  46.3741913  58.9146767
  74.9139709   9.4994726   2.0601633  75.0208282   9.1281700   1.1844075
  74.3173828  10.2376757   1.9361737  70.8946304  22.5201588   9.1144876
  70.4601517  22.5489712   8.2620630  71.0515289  23.4384212   9.3345051
  83.1733551  68.3509903  39.3294830  82.4399796  67.7869568  39.5749512
  83.9491348  67.8835297  39.6391258  19.7830124  63.5473862  52.7829285
  19.9008751  62.9870377  52.0158844  20.5511150  64.1185684  52.7825775
  27.4341679  16.9892921   7.1897268  27.0976601  16.2235641   6.7242661
  27.9424591  16.6248550   7.9143357  27.2993679  64.8488693  74.3084259
  27.4040146  65.1503754  75.2108612  27.9959412  65.2932281  73.8251495
  84.7155991  44.0211830  15.9064159  85.2505264  44.6859512  15.4726343
  84.0591354  43.7784615  15.2534370  78.1428452   5.1609006   8.6503172
  77.7271194   4.5297322   9.2377081  78.3158340   4.6652870   7.8498964
  82.1499481  55.0783157  16.2242374  82.7974014  54.4073372  16.0078564
  81.5732269  54.6578140  16.8620529  27.0983582   5.0406189  55.3046837
  27.5320339   5.3854718  56.0852165  26.1641350   5.1524453  55.4806213
  42.6552277  17.8865185   2.9911849  42.4658165  16.9872532   2.7234554
  43.0563507  18.2866650   2.2196822  40.1047020  45.0453110  69.7179337
  40.3499794  44.9124184  68.8022842  39.3600273  44.4594650  69.8538666
  83.9938049  25.4644451  76.6005783  84.5845032  25.1381607  75.9217224
  83.1316452  25.4712982  76.1847992  78.2160187  14.4434338  16.0674477
  77.7237930  15.2629013  16.0182781  78.4002762  14.3302927  16.9999065
   4.3744378  16.8140106  60.3682899   4.7963905  16.0274696  60.0225410
   3.4397759  16.6076813  60.3600883  45.1954422   4.7056980   0.1123655
  46.0963783   4.9222841  -0.1277029  45.2323570   3.7864075   0.3765140
  46.3773308  54.2624168  78.1048965  46.8205986  53.4221802  77.9876633
  45.7500877  54.1058807  78.8107910  39.1215248  54.3305626   0.6596374
  39.6864281  53.8589439   0.0475185  39.6387444  55.0907364   0.9258068
   9.6626396   4.2272882  47.6351929   9.4588909   4.8988509  48.2861328
  10.4181986   4.5746245  47.1611481  54.8442307  25.8044186  89.3625031
  55.0130653  25.0636024  88.7803345  53.9094772  25.9824429  89.2586746
  29.9286270   8.4677572  67.5320206  30.4417534   7.9079719  68.1147537
  29.0302162   8.1509275  67.6253433  67.6660309  25.3697510  70.3716812
  68.2565384  25.8578377  70.9455338  67.9259109  24.4552078  70.4826126
   0.2248216  32.6800117  72.8747559   0.7750477  31.9708443  72.5422440
  -0.2717457  32.2826118  73.5901108  75.0694122  58.6557655  64.7125092
  75.3882751  58.8633194  65.5908508  74.5931015  57.8323479  64.8189850
  21.2930584   3.9289188  76.1645355  21.3851891   3.8457451  77.1136551
  20.7713490   4.7222123  76.0431442  15.5764341  31.1986065  78.4595184
  15.7687178  30.9922600  77.5448151  14.7199354  30.8023167  78.6195068
  30.1000881   6.6017408  33.5138092  29.9885445   7.0798316  34.3355255
  29.3007450   6.7845039  33.0199661  53.9309273   4.9434352  69.1910019
  54.7570267   4.6571093  68.8013763  53.2660294   4.7046747  68.5451431
  66.9182053  35.0641823  44.2587433  66.9085770  35.4658394  43.3899422
  67.4973907  35.6245232  44.7752609  32.4168053  24.7316742  66.5176620
  32.5487862  23.8607559  66.8922501  32.8980560  24.7120647  65.6904755
  45.8835030   3.9057276  46.4260063  44.9899750   4.0332747  46.1073036
  46.0513954   4.6681972  46.9797974  49.6244011  42.0961075   6.4133468
  49.5418739  42.0055962   5.4640160  49.9377441  42.9913368   6.5422506
  76.5523987  16.4299259  62.6560402  76.6504517  17.3817654  62.6809616
  77.0293579  16.1197777  63.4258156  41.0652428  26.4989719  71.7549210
  41.9868164  26.6406651  71.5384674  41.0819588  26.1038227  72.6265945
  35.2518616  52.9123154  75.1556244  34.4837303  52.9473534  74.5855560
  34.9440193  53.2572136  75.9937820  51.3585930  15.5787067  82.2352295
  50.4179344  15.4739313  82.0923615  51.5516396  16.4620438  81.9210968
  43.3295441  34.0901260   6.5778260  43.8870811  33.8339729   7.3125167
  43.7381821  34.8838005   6.2323866  72.5999222  24.1085873  14.6259966
  73.0118332  24.6451740  15.3032246  71.8089294  24.5912991  14.3861065
  36.4296570  68.2358780  22.5022240  37.2529755  68.2216339  22.9902592
  35.7520485  68.1526794  23.1731625  84.1401672   6.9486990  69.8705521
  84.5368042   6.6669421  69.0462189  83.8916245   7.8603067  69.7174911
  82.0299225  51.9131393  68.8673630  82.9325485  51.9171410  68.5487976
  81.5889816  51.2555504  68.3294220  84.0619507  60.3064804  55.2957993
  84.3875885  59.4369164  55.0633125  84.8355331  60.7766876  55.6067657
  70.6167984  52.9546318  52.9083557  69.7225876  53.1331863  53.1994324
  70.5269928  52.2301445  52.2892570   9.8405571  29.4447021  52.0176468
  10.2116699  30.2309361  52.4180756   9.3862801  29.7645187  51.2381744
  19.3675518  40.5883293  66.1145859  19.0518990  40.5323448  65.2126617
  20.2579517  40.2388382  66.0788498  17.7825241  46.2487259  62.2937202
  17.9411926  45.4318504  62.7667656  18.1734180  46.1061134  61.4316902
  40.1692772  57.5957260  78.3899841  40.4934692  57.9165878  77.5484543
  39.5112534  58.2387543  78.6540909  30.6381874   5.9818377  53.6295395
  31.4921818   5.7354946  53.2742424  30.1754456   5.1510468  53.7385788
  51.4182777  17.6037102  72.9905167  51.0258293  17.3791904  72.1468277
  51.7707443  16.7763958  73.3184586  22.3340836   6.0039749   2.9534440
  22.7019539   5.9968219   2.0697851  21.4082642   6.2108474   2.8257930
   0.9877319  22.9181004  34.8352242   0.3888122  22.3155193  35.2761612
   1.1361103  23.6171093  35.4720955  50.5496483  58.8824577  33.0007019
  50.3921547  59.4043922  33.7874756  50.4573441  57.9755020  33.2924919
  60.7256622  43.2778549  67.9987030  60.0256691  43.5450897  68.5943832
  60.6850891  42.3215218  67.9951859   2.7454610  29.3820915  47.1916809
   3.5196929  29.4015331  46.6291695   2.1483653  30.0191536  46.7994308
  60.6696320  70.9344482  20.2924633  61.2651291  71.1063156  21.0219002
  60.7787781  71.6874237  19.7116470  54.3361969  46.4703789  60.7318840
  53.4809456  46.5129967  61.1596222  54.3679199  45.5947342  60.3465691
  78.9344482  12.3412962  86.5679550  78.9255142  13.1572304  87.0683594
  79.7967529  11.9635696  86.7411118  61.1295700  32.1052933  85.2671051
  60.2028351  32.3401604  85.2198792  61.4432449  32.5276527  86.0667648
  13.1750097   4.5204134   4.0089335  13.2519693   4.8972387   4.8854675
  13.5511074   3.6440411   4.0911145  21.2357063  34.4245796  81.7311172
  20.3491764  34.4357643  81.3703232  21.8068676  34.4755745  80.9646912
  62.5247650  11.1644564   2.0323884  63.0497360  11.9239969   2.2848482
  62.3381195  10.7172461   2.8578565  82.3947525  38.3571663  47.4388580
  82.9468613  38.9591522  46.9398422  81.6950378  38.9084511  47.7891617
  31.0167446   0.5486816  14.3616257  31.4548168   0.9012659  15.1362276
  30.7582169   1.3218043  13.8599520  70.0927963  49.3875809  66.6231689
  69.8554916  49.2132759  67.5339584  71.0466003  49.3090630  66.6049423
  59.4689865  22.8445969  60.8387680  59.2184372  22.2314358  60.1477623
  59.5133400  22.3082771  61.6303635  77.7460709  27.8882923  78.3954086
  77.2511520  27.3132553  78.9790344  78.3362579  27.3004456  77.9238815
  30.1378746  26.5476837  11.0416374  30.0035458  25.6386948  11.3098297
  30.6923447  26.4884148  10.2636385  40.8075027  21.5773125  68.5479584
  40.6963921  21.0063553  67.7877655  39.9283791  21.6571274  68.9180908
  58.5069199  34.7015572  33.5086098  58.8635063  35.5877037  33.4467659
  59.2271004  34.1775093  33.8592415   7.9974847  60.2290421  29.8123150
   7.6684132  59.7447891  30.5695744   8.9299650  60.3494682  29.9917870
  16.4625072  40.4070587  42.7410393  16.4873390  40.9844398  41.9779854
  17.0482292  40.8218193  43.3743896   1.3167356  15.1691608  42.8882446
   2.1668894  15.1838560  42.4486351   0.8616016  14.4196005  42.5045166
  61.8564034  45.2351723  39.6171989  61.6045341  46.0787621  39.2414970
  62.5138321  45.4538345  40.2776566  11.5806551  26.9506741  69.7919312
  11.5883589  26.6721077  68.8761978  12.3028107  26.4687195  70.1949768
  38.1805267  70.1027527  34.5420723  38.9179230  69.6033478  34.1912575
  37.4596939  69.9210739  33.9390564  51.7443314  49.9391823  58.4782639
  51.0261955  49.3725624  58.7601395  51.4758644  50.2547951  57.6153908
  80.5514374  57.8139687  36.0766373  79.8232117  58.0199165  36.6627235
  80.3450012  58.2786636  35.2656670  65.4698029  17.6382675  32.6501999
  64.9557037  17.3383484  33.3998528  66.3724136  17.4092808  32.8717575
  72.6872711  17.9716911  62.4922256  72.9968109  17.2397633  61.9586525
  72.3784714  17.5643539  63.3015175  62.4751701  20.7770729  87.2090912
  62.4449921  19.9572792  87.7023010  62.6879082  20.5107670  86.3146286
  41.1879349  48.6061211  45.4666710  40.4194183  48.2511902  45.0198669
  41.1294174  48.2584877  46.3565903  67.1970825  13.9299765  68.3989487
  67.8333740  13.9871035  69.1117630  66.9042358  14.8315992  68.2664719
  40.1553574  35.7728424  42.6766052  39.8253021  35.2889061  43.4336395
  41.0891075  35.5642662  42.6475372  16.4909782  49.4295311  14.3150082
  17.3295555  49.8769608  14.4282503  16.4514618  49.2278061  13.3801394
  77.1110229  25.5379028  34.4483910  77.4610367  26.4179535  34.3097038
  76.1625443  25.6428204  34.3734970  22.2206383  43.2683144  14.3825903
  22.9073353  43.3094368  13.7170181  22.6854877  43.0640869  15.1940327
  32.5041351  44.1047173  76.2557602  33.3696289  44.0393639  75.8521805
  32.6831131  44.2199631  77.1889954  26.3541374  21.2833729  14.8752127
  26.7078991  21.6938705  14.0861778  27.1131344  21.1707211  15.4474583
  70.0096207  40.0573616  44.8942299  69.1063995  39.8354111  44.6680450
  70.2887802  40.6582451  44.2034035  13.0321312  65.0491409  85.8490448
  12.4923420  64.9924088  86.6374817  13.5128860  65.8710938  85.9465485
  66.3870239  42.0003357  82.8107605  67.2099228  42.0420761  83.2979279
  66.3620682  41.1106415  82.4585495  70.3727341   7.5739393   6.0440640
  69.8041687   7.7706666   6.7885518  71.0180359   6.9582925   6.3916206
  76.5788879  42.8054314  42.5117531  77.3506165  42.2501526  42.4006767
  76.4496460  42.8491592  43.4591789  11.2205858  55.3950729  88.6276703
  11.1045198  54.4452515  88.6521759  11.3529301  55.5963669  87.7012787
  83.9167557   5.8097310  84.3577347  83.5750198   5.5947094  85.2256088
  84.5107956   5.0888124  84.1488724   3.8679276  63.6497421  29.1710873
   4.4246426  62.8908806  28.9966450   4.1577797  63.9679642  30.0260468
  65.8865280  46.4310989   2.2376685  66.7752533  46.3506165   2.5839653
  65.8017120  45.7016144   1.6237561  73.0303726  64.0469894  52.1764755
  72.4836121  64.8285828  52.2564392  72.4194946  63.3511505  51.9338455
  77.7460632  65.7378387  27.7597733  77.8221664  66.6495972  28.0410919
  77.4189758  65.2755814  28.5315018  84.4604416   8.1147337   3.6865511
  85.1090851   8.7836733   3.4674397  84.2541885   8.2737150   4.6076460
  39.0623550   3.4335253  69.7598953  38.8838768   4.2385435  70.2460251
  38.2414513   3.2401104  69.3071976  78.6410599  41.7595749  85.8790817
  78.0379639  41.4838600  86.5693588  79.3864441  41.1645927  85.9605408
  17.6524906  15.7244196  76.4360352  17.7258377  16.6213684  76.7621155
  17.8750057  15.1768885  77.1889801  30.3591900   8.9509382   9.1610031
  30.5679932   9.6606255   9.7684374  30.9757137   9.0654936   8.4378109
  56.8484230  16.8237991  35.5715103  57.7357025  16.4660015  35.5407104
  56.8870888  17.6076145  35.0234489  80.6235504   1.7383630   7.3763919
  79.9871902   2.3525922   7.7424536  80.3770828   1.6589595   6.4548817
  69.9356766  28.8400612   2.5553122  69.1600876  28.3492737   2.8270290
  69.8485718  28.9189072   1.6053501  45.3183594  25.2533550  84.7714844
  45.3546104  26.1595078  84.4652023  44.9880638  24.7598248  84.0207748
  63.3064499   1.6882092  37.7195587  63.8954849   2.4326885  37.8421135
  63.1759872   1.3383917  38.6009407  39.3732681  40.6042404  70.7022018
  39.6676445  39.7571602  70.3674927  38.4793015  40.4446411  71.0048294
  83.8750687  19.2863102  16.2409916  83.6398926  20.2072697  16.3539562
  83.3248672  18.8197117  16.8701172  74.5794296  56.2976723  43.7516747
  75.4929810  56.4838219  43.5348930  74.4465714  55.3920288  43.4716873
  56.6902161  60.0819473  62.2016678  55.9866409  60.5062103  61.7105331
  57.2401199  59.6770401  61.5309296   6.6387448  27.8510990  63.0489426
   7.1692824  27.5638618  63.7920837   6.5497570  28.7965107  63.1693916
  50.8826637   5.6176128  41.3629875  50.4215012   6.4541397  41.4245224
  50.3649139   5.1037159  40.7432442  27.7281628  36.1182671  82.2780685
  27.3001003  35.2805481  82.4547729  27.5508156  36.2873802  81.3527679
   6.1297064  54.5568466  62.6550026   5.4188881  54.5903435  62.0148087
   6.7676558  53.9539299  62.2732391  47.5368080  62.8344078  75.2650452
  46.9316826  62.5656586  74.5737915  46.9701653  63.1166382  75.9830246
  37.6279678  22.9853897   9.9479218  37.6157761  23.8000736  10.4502878
  37.0831261  23.1678944   9.1823692  34.9479675  44.5808411  65.9194870
  34.2548790  43.9335136  66.0492020  35.1191139  44.9272423  66.7952499
  62.1649361  37.5311623  51.6877823  61.7033806  38.3535347  51.5237617
  62.5680275  37.6501427  52.5477753   6.0469217  53.8598709   4.4880724
   5.1926661  53.8889732   4.9189229   6.5932612  53.3366127   5.0745411
  68.0202332  50.8375969  33.8210068  68.4894562  50.3717957  34.5131721
  67.4129105  50.1890106  33.4650192  61.2137604  66.7492752   7.4357357
  61.3872414  65.9946518   7.9984822  61.5188293  67.5015030   7.9430008
   5.7917967  55.9716187  30.4115601   6.6680374  55.7306747  30.1109257
   5.6188717  55.3802452  31.1440926  70.1673660  15.0637350  25.0148449
  70.4514542  15.8111877  24.4886894  69.2648315  14.9052801  24.7381668
   1.6169908  24.2598686  59.8888969   1.9398230  25.0941353  60.2294998
   1.3578229  23.7673931  60.6676979  13.1517057  65.6879272  58.7926369
  13.6438866  65.8817749  59.5903893  12.4068785  66.2885742  58.8188286
  19.8397980  62.1751289   1.4240793  18.9088726  62.0847054   1.2205228
  19.9350338  63.0831985   1.7114308   6.9766603  42.2661858   3.1752610
   7.4660459  42.2090645   2.3546083   6.4022202  43.0230331   3.0593846
  36.0323410  42.8519287  71.7083588  36.3856354  42.3802528  72.4626389
  35.1860313  42.4370689  71.5413818  54.4062958  50.5656281  62.0429726
  54.3976326  50.0097694  61.2637558  54.0281677  51.3947220  61.7499580
  49.2676811  10.8584576  19.7719746  49.9829102  11.1275215  20.3484192
  49.6917152  10.6754436  18.9335632  74.9695435   0.1067583  81.5538254
  75.4896393   0.8777952  81.3274689  75.5849915  -0.6237749  81.4923401
  74.6390610  59.0251312  21.0992050  73.9805374  58.4652443  20.6879921
  74.4938812  58.9151917  22.0389214  11.1662531  47.7469826  16.6371613
  10.6334953  48.0985718  15.9238701  11.0882578  46.7970810  16.5486126
  68.1727295  67.5902634  73.2018738  67.8858643  67.3971405  72.3093262
  68.2874908  68.5404510  73.2162552  60.9459000  24.6172657  56.3586540
  61.8137207  24.8991241  56.0693893  60.6125069  25.3548012  56.8696556
  59.9399300  16.1512661  44.5103798  59.4553986  16.1703472  43.6850929
  59.4648819  16.7553349  45.0810471  46.1711960   1.0181942  61.6212158
  46.7234154   1.3894951  62.3092728  46.0427208   0.1065236  61.8830948
   6.0782933  46.6555786  30.0594387   5.8066511  45.7885742  29.7582054
   5.2784686  47.0496254  30.4076366  85.7710953  66.6030426  16.2944374
  85.3048325  66.1026535  16.9640923  86.1016541  67.3728333  16.7574577
  62.8604851   2.4058714   1.2531798  62.7774124   3.2744277   1.6468048
  62.6856956   2.5468867   0.3226986  86.4766312   7.8186870  25.2209072
  85.8746262   7.1007304  25.4167633  86.0445633   8.3096323  24.5219650
  70.0737228  53.1612244  63.6063385  70.0804443  53.3753319  64.5392609
  69.7046127  53.9374695  63.1851082  68.3699188  50.6365623  62.5000076
  69.0432892  51.1140518  62.9845810  68.6819534  49.7317734  62.4848480
  72.8206482   6.8960557  30.4437656  73.6853027   7.3061423  30.4643593
  72.2758560   7.4580011  30.9948139  33.4883804  34.4312592  63.3963203
  32.7994423  35.0461922  63.1444244  33.0214043  33.6247826  63.6148643
  84.5781784  38.2442818  82.0144653  84.0908127  37.7067795  81.3901291
  83.9164047  38.5506973  82.6344604  81.4089432  59.4422150  78.7693863
  81.5638046  58.6163864  79.2279282  81.3752670  59.1997032  77.8440323
   5.3491549  17.1308422  26.3591614   5.8082819  16.4377270  26.8335285
   5.5567117  17.9302444  26.8430099  60.6904030  53.5984726  45.6258011
  59.8517227  53.1720276  45.8018417  60.4538269  54.4436035  45.2436752
  15.2727823  62.4863777  76.3511581  15.3958206  63.1615791  75.6839294
  16.1584034  62.2824059  76.6516571  81.4467239  14.1280394  80.7530594
  80.9300613  14.4142523  79.9998169  82.1834564  13.6511688  80.3708954
   5.7861381  17.7591362  56.4442368   5.0083756  18.0884991  56.8946114
   6.0893931  18.4988899  55.9179001  42.1209831  43.4754677   8.8536568
  42.8222542  43.9469795   9.3032465  42.5370102  42.6745491   8.5347815
  15.2742453  21.4353333   8.0952950  15.6682777  21.0043335   8.8537207
  15.4703627  22.3640385   8.2188864  62.5655594  61.9076424  15.6031799
  61.6618385  62.0608215  15.8789606  63.0209999  61.6531105  16.4056911
  50.8717918  35.0317993  70.8635406  50.0390167  35.0205307  70.3917465
  51.5100517  34.7025299  70.2307358  76.8047714  38.5181274   7.2975249
  75.8722839  38.5450020   7.0830941  76.8856812  39.0596008   8.0826960
  64.9818268  50.6517334  16.2557144  64.5693588  51.3209991  16.8017769
  64.4323044  50.6090279  15.4731331  36.0587234  61.6939926  62.4553680
  35.1342735  61.7479706  62.2130547  36.0667610  61.8345528  63.4021568
  32.5694046  51.7995644  16.4952259  32.3625870  52.6414108  16.0893269
  33.5233574  51.7995644  16.5739822   2.7388954  36.9366074  79.3461761
   2.1835523  36.2438889  78.9884491   2.3022439  37.1991653  80.1565094
  16.4793720   7.8690844  34.1496086  16.6279850   7.9567432  35.0911293
  15.6363001   8.2967386  33.9993668  39.3251228  71.0222015  83.6985855
  39.9420929  71.6365128  83.3008423  38.4990501  71.1834869  83.2427139
  41.6351471  58.2611275  36.2859306  41.5778961  58.1592445  35.3358917
  42.5669670  58.3985863  36.4563522  59.9402847  65.1958542  46.1342735
  59.0975761  64.7480850  46.2089500  60.1175613  65.5214005  47.0167847
  37.9564018   7.9450917  83.3183441  37.5459824   7.4444566  84.0234299
  38.1237831   7.2992020  82.6320190  31.4532413   3.3707130  11.2167549
  32.2999153   3.3906062  11.6628256  31.6650867   3.1461091  10.3107157
  70.2908020  10.6648798  64.9182129  70.4350204  11.0949726  65.7610931
  69.8406067   9.8495932  65.1392517  74.2773743  20.3562584  28.8575077
  73.5692062  20.9843197  28.7151184  73.8653259  19.5001926  28.7408829
  85.7899246  68.3424225  61.9087906  86.1115112  67.4408569  61.9089355
  86.5554504  68.8697433  61.6804619  81.5668640  24.4395485  67.4605789
  81.8409348  25.3281879  67.2337875  81.2487946  24.5093746  68.3606873
  57.3787422  12.3173771  23.9947491  57.2021790  11.3791800  24.0643425
  58.3043442  12.3698750  23.7565422  51.6631432  59.9924088  71.7257996
  52.2997437  60.3867645  72.3220062  51.8909988  60.3442345  70.8652573
   8.2787580  62.5798721  89.0811539   8.0936689  61.6962700  89.3993073
   8.1377554  62.5284805  88.1357880   8.8238926  62.9257851  12.7520761
   9.6301546  62.7745628  12.2588158   8.3610392  62.0886688  12.7169409
  53.6571007  57.5793457   1.2331580  53.5747452  57.7931633   0.3037860
  52.9881172  58.1130753   1.6619133  74.8771820  63.2308197  47.1419868
  74.3506088  63.8480225  47.6499329  74.3447342  63.0407791  46.3695793
  15.9409113  61.4734993  36.0528526  15.1902504  60.9899712  36.3977318
  16.3717060  61.8322334  36.8287125  85.3686676  26.1268978  14.2362928
  85.4795380  26.6183319  15.0501928  84.7522278  26.6493111  13.7231503
   6.5749698  64.6725540  19.1812344   6.1630850  63.9979095  19.7210846
   5.8879170  64.9451828  18.5730724  10.3276644  13.7907705  79.0548782
  10.5568514  12.8791933  78.8739548  11.1656895  14.2533102  79.0531311
  50.5727005  19.6166210  64.1680527  50.5755272  19.8670349  63.2441940
  51.4932976  19.4564629  64.3756180  32.9306679  31.9003716  70.0273285
  32.6459808  31.9076500  69.1134720  33.5406075  32.6350517  70.0940475
  38.3410187  16.4290581  87.9947281  39.0983887  16.6329517  88.5434113
  38.5790367  16.7556000  87.1269989  10.9446945   9.4142761  28.2750263
  11.1864166   8.5368195  28.5714607  10.8222237   9.9144154  29.0819302
  19.7375107  46.3336868  65.3508530  19.7122440  45.4631081  64.9537506
  18.8622971  46.4544296  65.7191620  38.0768814  17.9111423  15.9942875
  37.4293060  18.1767960  15.3413649  37.8418579  17.0090160  16.2114677
  51.9558830  64.8535995  29.1135445  52.1093674  64.7029724  30.0462761
  51.1336288  64.3993683  28.9296989  43.5053177  42.4412651  86.0890884
  43.5994797  41.9253502  86.8898315  44.0396881  43.2205505  86.2420273
  42.5062408  56.8759232  55.0592651  42.6560059  56.9957237  55.9970589
  43.3534393  57.0641441  54.6554565  86.9410629  70.2187805  15.7266712
  86.8947372  69.5624313  16.4218597  86.4583359  69.8297272  14.9973984
  53.1203651  22.7955132   1.9571286  53.2461281  22.0034447   1.4345927
  52.5171356  23.3299122   1.4406396   1.9457846  51.6885338  84.5748901
   1.3745221  51.9530029  85.2959595   2.7408478  52.2074928  84.6964798
  20.9596348  26.2200394  15.3793316  21.1968155  26.9488297  15.9527779
  21.6628571  26.1869087  14.7307854  13.3365459  66.8529282  13.8716354
  13.6437168  66.7659607  14.7740288  13.8626604  66.2239380  13.3778715
  61.9476585   8.4366198  31.0658569  61.3647079   9.1923656  30.9934120
  62.3232574   8.5071106  31.9434605   8.6316996  12.9765682  74.1022644
   9.5743885  12.9875317  73.9365845   8.5274496  13.4553375  74.9245453
  27.5875797   4.6356063  77.6268005  27.5446339   4.0966902  78.4167099
  27.7859821   4.0160437  76.9246521  76.9024582  33.8992729  17.6366596
  77.3881073  34.4494133  18.2512493  76.2683640  33.4333839  18.1817284
  60.2576447  21.3060894  35.2471733  60.8004646  21.9490967  34.7909698
  60.6219749  20.4592400  34.9896088  18.8391094  64.7468491  65.5155487
  18.2054329  64.0314713  65.5696335  19.0117016  64.9833374  66.4268723
  23.5188675  61.6174088  58.5889397  23.4694424  61.2504883  59.4716377
  23.3127956  60.8819695  58.0119667  83.9412613  47.2311516  55.0794983
  83.9578323  47.0293922  56.0150490  83.4313202  48.0388489  55.0176659
  69.8623199  47.1682968  34.3408089  69.0889816  46.6718826  34.6086693
  69.9054565  47.8970146  34.9599571  37.4336967  36.8796616   1.1162199
  38.1411552  36.4464874   1.5938108  37.6011848  36.6695480   0.1975082
  74.7833176  71.2692032  88.8520126  75.6705246  70.9609375  89.0365753
  74.3330002  71.2217941  89.6953354  41.1260033   7.0386591  74.6518784
  41.0482979   6.2912726  75.2448425  42.0691338   7.1650190  74.5481033
  84.5904999  57.8745041  83.1185532  84.5823059  58.0251274  82.1733170
  83.8984833  58.4423141  83.4575729   3.2995055   8.7896633  74.7551117
   3.2152650   9.0672388  73.8429184   2.9201951   7.9110312  74.7741013
   3.3921216  37.6426010   1.5847615   3.1722121  38.4847946   1.9829851
   3.0236168  36.9917221   2.1820827  24.6776466  48.8338013  57.0722618
  24.0391884  48.1598740  56.8389702  24.8085728  49.3297195  56.2640839
  85.1983032  11.5978231   4.2826743  84.4112854  12.1317720   4.1743255
  84.9745941  10.9799595   4.9786859  12.9094381  47.2345390  24.7137814
  13.3359022  46.3962288  24.8915443  13.6308708  47.8591919  24.6391068
  31.0685406   4.5855956  57.2497292  30.7815990   4.9027739  58.1060562
  31.8696499   5.0770974  57.0683937  45.5203629  62.6883888  35.0458984
  46.2391052  62.3192215  34.5327148  44.8624268  61.9936066  35.0709610
  37.8769531  43.3540382  69.7795181  38.1819839  42.4494667  69.7092590
  37.4454269  43.3956871  70.6329117  68.4817963  57.5290756  17.6793537
  69.3197708  57.0760269  17.7730713  68.7199936  58.4397316  17.5055561
  52.4982872  60.7225571  45.0743942  52.6818695  61.2990532  44.3326492
  51.9379883  61.2434769  45.6496696  21.3426991  62.7587547  39.9015961
  20.4579067  63.0519905  39.6839142  21.7194023  63.4837646  40.4002838
  41.5006714  52.3260460  57.3927307  40.6292686  52.6914406  57.2398415
  41.9206085  52.3402328  56.5326805  45.5981827  56.2607155  88.1284790
  45.6353455  57.1168823  88.5548935  46.0550346  55.6732750  88.7305069
  46.4054375  51.7778587  65.0836792  46.0325470  51.9592819  65.9463959
  46.4229774  50.8225327  65.0264206  81.9678955   8.8002338  88.8818512
  81.2892761   8.3294764  88.3980103  82.7412262   8.7498856  88.3200226
  52.3136711  70.2172089  21.6253300  52.2828369  70.1422272  20.6715698
  52.3135910  71.1598587  21.7916031   1.8394208  43.8707123  87.7630157
   2.3209381  43.9771576  88.5834045   1.4066617  44.7137833  87.6281738
  66.4714966  58.6779823  76.6890259  65.9622650  58.5361710  77.4870300
  67.1751862  59.2694588  76.9558868  65.5442886   6.4949174  55.7289162
  65.4995499   7.4127083  55.9970398  65.8744354   6.5235581  54.8309097
  68.2370377  38.8391571  25.2560062  68.7130508  38.3591385  24.5783482
  68.7604294  39.6267929  25.4040546  62.6828842  57.6536598   8.8599157
  61.7752228  57.5872879   9.1565275  63.1341171  58.1102333   9.5699606
  68.5656052  67.9211731  43.4697189  68.1082535  68.5090790  44.0709038
  69.4891510  68.1551590  43.5621338  75.3462601  71.0186005   8.6729507
  76.1242752  70.8859863   8.1313410  75.1792831  70.1619949   9.0661173
  30.5648365  70.2264252  65.9145432  30.4090042  69.3056641  65.7044220
  29.9585342  70.4145355  66.6309586   8.8667822  53.4604187  35.0594482
   8.6918039  53.4618950  36.0005188   8.4587889  52.6551170  34.7412338
  81.7295761  11.6925936  32.9460831  81.6231232  10.8662786  32.4748039
  82.5419998  11.5834770  33.4403496  15.6406097  62.5687790  72.8769150
  14.9213743  62.4395752  72.2586594  16.0331993  61.7010269  72.9723663
  16.4813747   8.6752329  52.5241547  15.5702162   8.6461306  52.8159981
  16.9424839   9.1372271  53.2242737  22.0759144  64.8974838  30.9594135
  21.6148415  64.0928345  30.7223797  22.8017578  64.9496613  30.3375950
   6.5529857  59.6809082  72.3942642   6.2716899  58.8451996  72.7666855
   7.3253121  59.9230042  72.9052811  43.0231361  66.3835754  43.4445419
  43.8711205  66.4883118  43.0130463  43.0344048  67.0260925  44.1539650
  68.7860718   9.1296644  25.2364826  69.4782639   9.7836151  25.1392727
  67.9817963   9.6423769  25.3170948  31.1946678  53.4494514   0.3953078
  31.8357887  52.8519745   0.7802994  31.3211002  54.2727394   0.8669462
  71.1261520  49.2761688  21.1364346  70.4162827  48.9003487  21.6570873
  70.7660217  50.0952225  20.7963028   2.3578708  53.3980713   1.3822559
   2.7788427  53.8554230   0.6543538   2.1105542  54.0938263   1.9913425
  85.5538635  37.7927437   8.8698530  85.3518906  37.4650383   9.7462358
  86.3391037  38.3270111   8.9890032  33.2451477  68.8578644  65.9977951
  32.4235229  69.3489380  65.9949646  33.6404037  69.0474014  65.1468658
  61.4401474  34.8892441  50.4191895  60.4949112  34.8456612  50.5636177
  61.7064972  35.7146873  50.8240814  44.1166000  59.7003593  86.8943634
  43.6542854  60.4221764  87.3203659  44.7069016  59.3631363  87.5681992
   7.0756989  48.9495811   3.7989273   7.4111056  48.7926140   2.9162636
   6.1318374  48.8084946   3.7250941  69.4549179  56.3870583   9.2603397
  69.0088043  56.6577721   8.4578848  70.0967789  57.0784073   9.4224367
  47.4515076  41.4303818  53.7991028  47.0610542  40.5613136  53.8912544
  48.3902817  41.2848511  53.9164009  77.5282440  37.0259018  38.4116898
  77.2177734  36.7335281  39.2686348  77.9242249  36.2465668  38.0217285
  16.0393372  47.7903061  34.1742973  15.3269005  47.4681778  33.6221237
  16.8285084  47.3993225  33.7993698  57.0861549  26.1992912  14.9268646
  56.4517593  25.9587002  14.2516670  57.5809364  26.9234753  14.5434828
  63.8308754  47.4981041   0.4824511  64.4984055  46.8469849   0.6984895
  63.1700935  47.4002419   1.1680348  76.2575684  28.9641171   3.2083352
  76.4507751  28.8385658   2.2792816  77.0006561  29.4670544   3.5416689
  26.1033630  43.4094582  15.3899918  26.8545723  43.6380043  15.9374237
  26.3861866  43.6124573  14.4983454  75.8319931   7.2070246  83.8923111
  75.0544357   7.0948720  83.3454590  76.4775467   6.6085434  83.5163956
   6.4595714  19.6531715  28.5459175   7.3794641  19.7580490  28.7888794
   6.0836587  19.1278915  29.2523193   3.2586246  42.3160095  62.8147850
   2.3941658  41.9424362  62.6433563   3.8564267  41.7902451  62.2833366
  11.1201696  59.8673592  72.3193359  11.1777868  60.3524475  73.1425018
  10.2276030  59.5218124  72.3069305  42.6834450  61.3742905  63.1304321
  42.3436775  60.6825485  62.5627289  43.5165367  61.6244125  62.7308960
  24.7776337   6.2709842  75.7850418  24.1206188   6.8536487  75.4041672
  24.4698830   5.3903332  75.5706253  80.9735031  56.1740341  53.0157051
  81.1350098  55.2645073  52.7648888  81.3721924  56.6901169  52.3150330
  49.5653648   7.3430161  47.1422958  49.1653099   6.9293361  47.9071846
  50.4193764   6.9186611  47.0597267  15.7546358  53.1240082  81.9899063
  16.3955593  53.8114548  81.8086319  15.0146751  53.3297539  81.4186249
  80.2979736  50.9311333  72.8148346  79.4646759  50.9548569  72.3444214
  80.7458191  50.1586685  72.4699249  59.3446884  47.7273254  62.4194221
  58.9420700  46.8632507  62.5060234  58.7240677  48.3237915  62.8380928
   2.7487845   5.8596549  85.1838150   1.8924137   5.7941270  84.7612457
   2.6965368   6.6586413  85.7083359  12.2564459  20.9525509  28.1028061
  12.4943886  21.5223465  27.3714046  11.8494234  21.5388660  28.7406120
  79.3036804  64.7479630  41.3341637  78.5735092  64.1621323  41.5338745
  79.5624771  65.1061935  42.1832352  19.2835884  16.4071541  21.7098751
  18.4729996  15.9876175  21.9982605  19.9275894  16.1673641  22.3762035
  42.4573364  43.9368210  58.1920815  42.3735352  44.4227295  59.0125084
  43.0270996  43.1986122  58.4080505  66.0107574  49.0428619   8.5383415
  66.4924011  49.3218727   7.7596216  66.3855438  49.5613632   9.2503290
  72.9526138  11.1845627   4.8021560  72.9720001  11.1502914   3.8457663
  73.3822327  10.3754282   5.0795741   5.9908390  53.4557037  27.1704292
   6.6548805  52.8045769  26.9439011   5.2478285  53.2470512  26.6041870
  63.2391472  63.5156555  22.3347836  62.5908127  64.1051407  22.7200050
  64.0819778  63.8627357  22.6270237   0.3079592  67.7544403  13.8955898
  -0.2524623  67.2858658  14.5141354   0.3915398  67.1597748  13.1501904
  49.1192703  20.9359093  10.8046789  48.7729874  21.1462841  11.6718950
  48.3782158  21.0657978  10.2129011   8.1367588  54.9113846  24.7769165
   8.6183805  54.6040192  24.0089340   7.6158538  55.6468353  24.4544220
   5.1753116  19.6177731  33.0527191   5.4972148  18.9873238  32.4084053
   4.2786241  19.3369789  33.2353058   0.0325609  47.0952682   5.0924716
   0.1752453  47.3019753   4.1688128   0.4534403  46.2443810   5.2152762
  84.4523010  43.5453453  46.1379433  84.8007355  44.3238602  45.7035027
  85.1779633  42.9211960  46.1292000  47.7971420   7.3681059  87.8506927
  47.7513847   7.0552669  86.9472122  47.2835007   8.1758213  87.8507767
  57.0488205  35.3423805  36.1244316  57.7698593  34.7442932  35.9278870
  57.4755173  36.1269073  36.4689331  66.9364243  50.4199829  14.2166948
  67.4584503  51.2142715  14.3299723  66.3453064  50.4124756  14.9695244
  78.4284592   9.1055412  63.8850250  79.2028885   9.0253515  63.3281937
  78.7432480   9.5538454  64.6699829   6.4956617  40.7134552   5.5736032
   6.3568969  41.3499260   4.8722587   5.7588992  40.1073074   5.4961824
  12.1470270  40.5716553  61.6779633  11.4027758  40.7108841  62.2635727
  12.0933752  41.2899094  61.0475197  61.4909744  60.0712051  72.7556458
  61.8486824  59.3491554  73.2722931  60.5586624  60.0818291  72.9722519
  20.7879314  20.2005692  77.4825897  21.7319221  20.3304329  77.3917618
  20.7014408  19.3210201  77.8502121  55.9678383   4.2285333  67.3964462
  56.8012657   4.6901522  67.3040314  55.6149063   4.1911230  66.5074692
  85.3979263  50.7524872   3.7491810  86.3511276  50.6658020   3.7382658
  85.1100845  50.3342209   2.9377418   1.6332717  28.1527138  67.9171295
   1.8689308  27.5252399  67.2337723   1.5176841  27.6187229  68.7030792
  69.4037476   6.5723710  24.4615402  69.0964127   7.4711185  24.5799904
  68.6654053   6.0286078  24.7361355  82.6783981  46.3610420  47.8095245
  81.9886398  45.7285118  47.6086235  83.2203064  46.3830643  47.0207977
  58.9314346  48.6583710  69.5440750  57.9919052  48.5884666  69.7132797
  58.9934464  49.1997795  68.7571411  82.6972275  69.2306747  85.1414108
  82.4975433  70.0866089  85.5205383  82.0638046  68.6366806  85.5441208
  68.7191467  13.6647167  82.1979752  69.6026688  13.3164530  82.3177261
  68.1911163  12.9021406  81.9615707  20.1307812  36.3284912  75.2830963
  20.6356354  37.1060066  75.0447235  19.3300228  36.3940544  74.7627869
  17.5086021  17.5630035  23.6904335  18.2185516  17.2855930  24.2694378
  17.4868069  18.5159607  23.7777805  85.8637238  39.8903122  34.7827911
  86.1490936  40.5636597  35.4003677  86.4624481  39.1586609  34.9326286
  34.9996109  63.8187828  19.4924698  34.7336006  62.9631577  19.8291817
  35.7469139  63.6309166  18.9245968  10.8970442  42.3200760  35.2348175
  10.1569443  42.9098816  35.0912476  10.9582443  41.8113556  34.4263077
  32.9725647   7.1225262  20.1109905  33.0064964   6.1700292  20.1994801
  32.3717079   7.2740369  19.3814354   2.3978856  39.5616112  22.7347107
   2.0091989  40.2141838  23.3172112   2.1687696  39.8596039  21.8544064
  16.3439674  57.8950882   4.9352756  15.4142742  57.6835556   5.0198750
  16.3922977  58.4572334   4.1620426  67.1644440  47.0563278  23.2073078
  66.3309174  47.2670822  22.7865314  66.9352951  46.4262962  23.8905201
  80.8399353  28.7179203  59.7700310  80.9924240  29.3823490  59.0980835
  79.9359894  28.8629208  60.0494614  60.1445580   1.5650017  48.6162872
  59.2637367   1.8639688  48.3904457  60.1202354   1.4434844  49.5654297
  25.0308323  11.1842241  81.0910950  25.3952160  11.7284994  81.7891083
  25.2467060  11.6526203  80.2847214  39.0986328  14.2704134  40.2030220
  38.7559166  14.4239521  39.3225670  38.3853264  13.8290043  40.6640930
  12.7097406  14.3180885  70.8557816  13.5118341  14.2547016  71.3743057
  12.8553505  13.7280531  70.1162643  27.9478569  71.9895020  33.1721535
  27.6299267  71.1258926  32.9088516  28.7073097  71.8067093  33.7253761
  51.6117363  10.7933273  21.3979073  52.2309647  11.4816008  21.1548672
  52.1597176  10.0269375  21.5670128  32.1378860  36.2778931  74.5264893
  31.7151527  35.8748703  73.7681351  31.5004292  36.9173203  74.8443222
  16.2472229  17.4121895  10.4583969  17.0751896  17.7487698  10.8010550
  15.8120079  18.1796322  10.0871143  80.2552872  19.7207546  65.6987839
  80.6983643  20.4443130  66.1419373  80.5455246  18.9386787  66.1682053
  23.7829971  35.7493172   1.7521350  24.6147480  35.2820587   1.8301892
  23.7284946  35.9883881   0.8268743  71.2449951  23.0782394  22.2140007
  70.7142944  22.4546814  21.7182579  71.7941055  22.5316715  22.7761173
  78.8092346  55.8034668  49.8439865  78.2510452  56.0207062  50.5906181
  78.3388443  56.1481857  49.0849571  85.9149094  35.0636024  82.1359634
  85.3933258  35.3035164  81.3700485  86.5632935  35.7635307  82.2129974
  73.9157028  71.2206573  24.6121273  72.9600677  71.1856461  24.6542549
  74.1144638  72.1418610  24.4444790  33.3802414  17.4619789  18.1115246
  33.1238670  18.1015873  17.4471416  34.0596199  16.9366913  17.6887360
   2.9055755  58.3256569  56.4836540   3.6082971  57.7434578  56.1947632
   3.1430228  59.1822472  56.1285439  16.2148628  22.5685520  66.1935730
  16.8606129  23.2406101  65.9754562  15.4789810  22.7441769  65.6071701
  15.0067539  37.9077568  75.8731918  14.0819511  37.9844017  75.6384583
  15.0327520  38.1005211  76.8104172  44.2456474   6.1943293  28.2184105
  44.3657646   5.9745173  27.2945671  45.0533142   5.9023108  28.6410618
  30.4490299  34.4216156  15.5282736  30.2477875  35.1708412  14.9675665
  29.6907597  34.3453941  16.1074505  79.3873367  11.4052992  27.7287827
  79.9221802  11.7055235  28.4636517  79.9835739  11.4122858  26.9799976
  10.6606064  50.3461876  83.3052750  10.2797060  49.5027657  83.0607605
  11.4946194  50.3772392  82.8365631   5.6326156   9.2120876  78.8761139
   6.5081134   9.4611139  78.5799408   5.3121815   8.6144876  78.2005234
  68.6114044  40.7179947  64.9924927  68.4289627  40.7990799  65.9286346
  68.9827652  39.8410683  64.8959198  13.9302177  48.8118820  82.8326645
  13.7384291  48.1750603  82.1442490  14.0767155  49.6338387  82.3645172
   2.1117303  39.2530136  55.2696533   1.7131912  40.1225739  55.2341080
   1.3689841  38.6492844  55.2778854   9.0821095  60.6608810  50.5384254
   8.7259197  61.3642349  49.9956017   8.7864523  60.8691750  51.4246712
  66.5782166  33.3460007  63.4826469  67.1846542  33.0410805  64.1575470
  66.8948746  34.2196617  63.2531357  34.9445724  57.2278290  71.5414963
  35.6487656  57.5912285  71.0045776  35.3929482  56.6800079  72.1857681
  75.3078537  16.9467373  -0.2717471  74.5942612  17.5845528  -0.2572806
  75.6197281  16.9157028   0.6326882  31.0854931  53.8025589  79.5153961
  30.1433907  53.9052315  79.3807373  31.3516521  54.6036606  79.9666443
  11.1870375  61.8561859  59.7791405  11.0096369  61.0004463  59.3886681
  12.1375771  61.9532166  59.7217712  75.1466446  62.5817146  55.5084877
  75.9624481  62.9372177  55.8610802  75.2892075  62.5478592  54.5625687
  72.1942444  51.3528519  63.0048180  71.6287003  52.1012268  63.1954117
  71.8132935  50.9584274  62.2202568  50.4811325  43.1367378  80.4008865
  49.6251030  43.4193611  80.7227097  50.4094009  43.1932526  79.4480591
  29.5755615   3.3803389  53.6223106  29.8843517   2.9434724  54.4160538
  28.6221581   3.3856742  53.7073135   0.1379654  57.7038345  61.0460815
   0.4966532  57.9999390  60.2094841   0.4934529  58.3168983  61.6895218
  78.2377701  32.6751289  53.5805740  77.6443100  33.4011116  53.3882523
  77.7417755  31.8912926  53.3443031  18.4982147  11.7599144  18.7619247
  19.1395779  11.0508223  18.7164116  19.0217342  12.5471287  18.9117680
  75.4579849  32.3329849   6.7971764  75.1790314  32.1150665   5.9078341
  76.4134521  32.3627586   6.7479725  60.2637215  26.7795753  84.6834412
  61.0909996  27.1262932  85.0175476  60.2990646  26.9423237  83.7408371
  35.2222214   8.7399235  14.3478937  35.6863136   9.4527187  14.7869492
  34.9101639   8.1824236  15.0606670  38.0874405  28.6383781   7.1176300
  38.7099495  29.3607025   7.2010479  38.5262375  27.8950462   7.5313272
  74.6296387  24.6887989   2.8463054  74.7449722  24.8969097   1.9191484
  75.1384811  23.8887005   2.9772844   4.1261644  21.9099979  72.6990738
   4.8770909  21.6785870  73.2456970   4.5070820  22.1266079  71.8480682
  47.7887878  54.5519714  65.1349640  48.7366180  54.4312248  65.0777740
  47.4371948  53.6635361  65.1924133  47.5912132  63.0863457  54.1694069
  47.0204544  62.8164024  54.8888512  47.5059509  64.0393066  54.1406631
   0.7335339  32.0575638   7.2992887   0.8201585  32.9625778   6.9998302
  -0.1936711  31.9655209   7.5184941  47.3811989   8.5421600  17.4292793
  47.2178879   9.4083948  17.8023739  47.7223473   8.7193766  16.5526695
  54.0222206  16.3626251  70.8596878  54.5549965  17.1428299  70.7058640
  54.1388092  16.1726971  71.7905884  57.0118980  19.2117023   8.1418037
  56.1204147  19.0868149   7.8164001  56.9997559  18.8380966   9.0229979
  45.4626312  61.3461990  68.1258240  45.9249496  62.1325607  67.8357697
  44.9630089  61.0655823  67.3591003  72.1074829  33.1298943  42.8039742
  71.8442154  34.0492439  42.7625771  71.5371933  32.7472343  43.4707336
   9.1756048  47.9585762  48.2514496   8.7163200  48.2862167  47.4781837
   8.4895544  47.8525238  48.9104767  53.3672752  24.5364037  17.4045219
  53.2271843  25.1304970  18.1418533  53.0777702  23.6827106  17.7264328
  74.5137939  46.2176208   7.0063286  73.8483658  45.5311241   7.0527749
  75.3078842  45.8048248   7.3458233  18.3692989  70.8570862   4.4825644
  17.6073494  70.3017349   4.6476297  18.0302925  71.5768356   3.9503329
  26.9256649  25.9050140   3.2708273  27.0030365  25.2634792   3.9769993
  25.9840794  25.9762745   3.1140771  70.0228577  39.3053246  10.5004206
  70.0267105  39.1276741  11.4409828  69.2546234  39.8599434  10.3645773
  49.8807449  53.8470840   1.3843557  50.2729568  54.2023392   2.1819739
  50.2303581  54.3944397   0.6812185  11.1846399  41.3281822  16.9866905
  11.0106621  41.1637917  16.0599003  11.5570774  40.5076981  17.3096809
  76.7260513  30.8334484  44.3637695  76.9295197  31.2611847  43.5319824
  76.8907013  31.5054474  45.0252380  37.0825462  25.7531128  13.4126081
  37.7434845  25.4021454  14.0094433  37.4103432  26.6206512  13.1756296
   4.9789267  33.9707451  40.4210014   5.8637004  34.2879791  40.2399750
   5.1090775  33.2016029  40.9757156  76.5015717   3.4849739  81.1169891
  76.9343491   3.2715478  80.2903137  77.2174988   3.7112870  81.7106781
   5.3277354  21.6567383   2.8255455   5.5871119  21.7413673   1.9080527
   4.9030509  22.4893150   3.0321617  82.8198242  66.6033936  74.6069870
  83.5704727  66.1798401  75.0233383  83.1000595  67.5086441  74.4720078
  57.5528908  22.5655251  78.9167557  58.4708443  22.5175056  79.1837463
  57.4675789  23.4259644  78.5061417  84.8031998  54.0273056  43.0443153
  85.4048615  53.3286018  43.3013115  85.2917709  54.5389862  42.3995514
  21.4216671  66.9259186   3.7680838  21.5336246  66.6859970   4.6879396
  21.7530098  67.8222046   3.7122931   3.7033110  25.5193405  20.9685364
   3.7092476  25.2598610  20.0471973   2.8425193  25.2487869  21.2880211
  73.0379028  21.8332977  18.3972931  72.4401703  22.4519958  17.9775734
  72.4640350  21.2173367  18.8528080  53.7250366  16.4922886  27.3805676
  53.8429184  16.7931614  26.4795609  52.8599701  16.8171310  27.6303101
   5.5849652  47.8192139  59.8807449   5.1850872  47.8375664  60.7502251
   4.8432899  47.7828636  59.2767372  84.6964035  55.2533226  69.7789993
  84.3391953  55.6136856  68.9673538  85.6171875  55.5147362  69.7722931
  36.8882675  49.8929329  40.5878983  36.7834167  49.2068748  39.9286880
  36.8507957  49.4290962  41.4243698   1.3900398  44.9308052  68.0067062
   1.6185302  44.3268356  67.3001328   0.5748273  44.5811539  68.3664322
  35.9497528  30.4493847  73.3002777  35.5101318  30.0479164  72.5507507
  36.0009613  29.7493382  73.9510803  51.8957062   5.6734757  77.0796280
  51.8937988   5.5060892  76.1371765  51.0243073   6.0249882  77.2622223
  76.4756088   7.0385790  36.7108650  76.8129807   6.5805759  35.9410324
  76.5262985   7.9659295  36.4791679  41.0916405  15.2844257  14.8468809
  41.2398643  16.1474380  15.2334967  40.1490784  15.2541227  14.6828995
  83.2534790  62.3793526  52.3513947  82.7656174  61.8663521  52.9956398
  82.5888748  62.9161644  51.9197006  65.8513031  19.4752884  38.3897247
  66.7783661  19.3548164  38.1841202  65.4869080  19.8997478  37.6130104
  69.2844696  14.3003330  13.8349981  68.3536224  14.1583748  13.6629324
  69.5560379  14.9365120  13.1733665  52.7578964  23.5416431  79.0627518
  52.2616577  23.6777992  79.8698654  53.6493950  23.3565464  79.3580475
  16.2544899  56.8004036   0.4827584  15.4800653  57.2086906   0.0957210
  16.9492760  57.4489174   0.3690305  76.9634018  68.1031418   4.6693878
  77.8682938  67.8471832   4.8479772  76.4455490  67.3340836   4.9073324
  87.0783920  71.2790070  39.1171188  86.6163635  71.7636642  38.4331131
  86.3855896  70.9675522  39.6995773  57.8581276  26.1880245  70.8033981
  57.3417053  25.6010246  71.3556366  58.6649742  26.3335247  71.2974243
  54.2701721  13.9894352  57.8908310  53.7396545  13.9062271  58.6832085
  54.8064079  13.1966543  57.8772697   4.1669660  38.4463425  39.6559219
   4.8640728  38.8078918  39.1086044   4.4869580  37.5809364  39.9106941
  59.2426033  13.3527384  16.1833878  58.4428711  13.6548500  16.6139603
  58.9790955  13.1861868  15.2783689  78.6406555  22.7283173  51.8496246
  79.5586700  22.7497597  52.1198540  78.6432114  22.2305489  51.0320358
  69.5591431  68.1239090  49.1500053  68.6667099  68.4636841  49.0840530
  69.6881027  67.9695282  50.0858307  19.8178806  28.9431210  82.5651932
  19.2245598  29.6170864  82.8968201  19.8010025  29.0557404  81.6147919
  46.9996567  69.1825104  16.2089310  47.3223495  68.7997437  17.0247669
  47.7869339  69.3254471  15.6835823   3.9392550  20.7302551  41.8069801
   3.9145348  21.2002010  42.6405106   3.3982394  19.9543018  41.9533691
  43.6756477   5.7912412  24.8007393  44.2401199   6.5602179  24.8799763
  42.8085670   6.1028605  25.0601501  50.4464455  60.3820000  39.3002625
  50.5206490  59.7480659  40.0136032  50.0119362  61.1377068  39.6956558
  78.4158325  18.6614494  58.5640869  79.3166275  18.4783115  58.2971191
  78.2972336  19.5938587  58.3830376  82.0653305  15.1650229  67.0812302
  81.9276047  14.3617039  66.5792923  82.7241516  14.9293375  67.7344055
  73.5204620  31.4947834  71.3909988  72.8649063  30.8027287  71.4777908
  73.7138214  31.7558250  72.2913895  67.7325439   4.6574745  44.2805061
  67.1924820   4.5428996  43.4985619  68.6209793   4.7722516  43.9432678
   1.7590021  62.0964279   6.6272235   1.7253507  61.1705475   6.8677282
   0.9047993  62.4422951   6.8859601  54.2162437  23.0892868  67.7882462
  53.8382912  22.2791367  67.4461441  55.1359406  23.0542698  67.5252533
  29.7401752  71.2271881   1.1899881  30.3015728  71.8527985   0.7320869
  29.8389568  70.4120331   0.6980577  77.1601181  39.9121399   1.5082293
  76.9169083  38.9893951   1.5832249  78.0862808  39.9360390   1.7488083
  54.7022972  33.9914055  23.3265095  55.4321327  34.5815315  23.5144520
  54.2161865  33.9419708  24.1496048  77.2875214  41.3056488  77.7306519
  77.1928024  42.2567329  77.6786880  77.0786362  40.9956474  76.8494644
  57.0344429  38.0895958  20.0556679  57.7724075  38.6967087  20.0004272
  57.0298538  37.8005791  20.9681816  45.5221977  65.6463928   0.6627932
  45.9146004  64.9019699   0.2066369  44.5845757  65.4540405   0.6727169
  50.1870155  70.0769119  29.1436119  50.0414162  70.1533890  30.0865765
  50.6698570  69.2567444  29.0415516  28.6857185   5.6584978  25.4944725
  28.4846516   5.2814698  24.6379375  27.8366299   5.7279334  25.9308891
   8.5701942  11.7900524  10.1839180   9.2233820  11.3661098   9.6272764
   8.5826540  11.2836399  10.9960909  71.2769089   5.7346010  39.8352318
  72.2139053   5.5683503  39.9383278  70.9870605   5.0836635  39.1960907
   0.9527807  53.2981606  65.7886353   0.5784839  52.4171829  65.7845917
   1.7835519  53.2075691  65.3218918  66.2985001   5.4203491  70.1303177
  66.7222290   4.6312666  70.4680099  66.3580780   6.0502644  70.8485718
   5.8084178  20.4525471  87.4379349   6.5822654  19.9227428  87.6295013
   5.9156256  20.7108650  86.5224991  25.0786915  50.7755585  23.4116898
  24.7004490  50.6893120  24.2867489  24.3224678  50.8633080  22.8314686
  58.2191696  40.8530807  76.2521973  58.5639534  41.4445457  76.9211731
  57.7756004  40.1642342  76.7471390  50.2322540  42.6945839  34.0887375
  51.0415382  42.5993500  34.5909538  49.9343529  43.5837212  34.2808990
  20.5290375  46.6142540  56.8603210  20.1629009  46.7782898  55.9912567
  21.4767456  46.6576500  56.7330437  60.5154877   8.9675217  43.0004501
  60.0974960   9.7832155  42.7244797  59.9749565   8.6549263  43.7259445
  34.5090179  49.0232887   0.0038619  34.8954468  48.3784866   0.5964282
  35.2499695  49.5538979  -0.2888435  65.0200806  43.3399277  27.6548481
  64.9919586  44.2540741  27.3724003  65.5820312  42.9077110  27.0117111
  35.9407539   2.1821909  40.6449432  35.3997383   1.9798322  41.4082146
  35.4946175   2.9164796  40.2230263  41.1431923  15.3346653  42.1286240
  41.6780701  14.6229773  42.4802475  40.4707336  14.8945332  41.6087074
  74.6052322  12.1025562  69.4852371  75.1036453  12.8462086  69.1464233
  74.9057770  12.0044727  70.3887253  31.7022572  61.6412430  75.8992386
  30.7755909  61.5528107  76.1221771  32.1633110  61.4754562  76.7215424
  68.5289078  70.3705444  73.5128632  69.4425964  70.6462021  73.5865173
  68.0583725  70.9344635  74.1267242  85.4829178   3.3601851   2.6771977
  85.8749237   2.8924952   1.9397486  85.8533783   2.9384034   3.4524989
  27.7269325   5.3993049  14.5379457  28.0889511   4.5537124  14.2730923
  27.7545643   5.3826199  15.4946012  33.2770729  29.9624290  72.1178436
  33.2718430  30.5105000  71.3330917  33.2682991  29.0655117  71.7836304
   0.8020097  33.1113853  34.3711510   0.6042411  32.8122253  33.4836693
   0.2223238  32.5962944  34.9322853  28.3491764  67.8244705  37.9039268
  28.8696213  68.0407104  37.1302261  28.8887081  68.1073685  38.6422386
  20.3457870  26.4846287  87.4940338  21.0005074  25.7916870  87.4079971
  20.0144234  26.6127567  86.6052094  79.3813629   7.6696391  55.1433029
  79.2865906   7.7471037  54.1939621  78.5006409   7.4625235  55.4558182
  33.6806068  51.1930847  70.5550461  34.2029839  50.4274712  70.3159027
  32.7733994  50.8979645  70.4768600  31.5428276  64.7450485  30.3671703
  30.8248425  64.1190414  30.4612198  31.9193573  64.8112564  31.2447090
   1.9320275  35.4354897  35.1911926   1.6420528  35.2701759  36.0883102
   1.5335253  34.7330399  34.6773911  65.0349274  32.7816162  55.6613312
  65.8134079  32.8041458  56.2178268  64.3123016  32.6163979  56.2669296
  17.3443203  36.3958702  82.5228806  17.9528656  36.9486542  83.0131226
  16.5871525  36.3020439  83.1009216  71.7768326  49.9062233  53.3768463
  71.3819809  50.1880569  52.5516891  71.0482559  49.5402832  53.8783379
  33.6250801  58.1961899  34.7676659  34.5133743  58.5520973  34.7900391
  33.6638985  57.4961128  34.1160431  58.5989342  18.0679874   2.7504482
  58.0942917  18.3981419   3.4937968  58.1407356  17.2705517   2.4851487
  50.9052124  36.3212662  31.9738274  51.8337860  36.5502052  31.9341793
  50.4479561  37.1464767  31.8120251  75.5357285   8.5973749  88.8046036
  76.0669937   8.8498430  88.0494614  74.9309235   7.9389930  88.4625854
  21.4264374  52.1551208  13.3913193  21.7827415  51.7005997  12.6279783
  21.0057144  52.9355621  13.0305758  50.2652054  30.3170547  13.8715439
  49.7833519  29.4899845  13.8735313  50.6678581  30.3617477  14.7387838
  60.3406067   2.0830843  63.2203751  60.1026955   2.9612215  62.9228783
  59.5197754   1.5912904  63.1957855  12.4703960  29.9053173  55.0646591
  11.9477510  30.4837742  54.5092659  13.2684259  29.7460995  54.5606461
   8.3306084  55.5301285  29.8496399   9.0653811  55.2614822  30.4011555
   8.7151594  55.6537743  28.9818459  14.4352694  37.8815231  53.7537804
  13.9281693  37.6947174  54.5438309  15.3453131  37.7388840  54.0139847
  65.0181808  60.2991562  82.5820389  65.7890930  59.7650452  82.3906097
  65.3320236  60.9602318  83.1990585   4.5332189  13.7764120  63.0418129
   4.7663188  13.6230536  62.1261826   4.7332864  14.7009401  63.1882820
  61.1909447  53.7996597  48.3586426  60.4559097  53.4241829  48.8433800
  61.0694885  53.4895020  47.4612694  12.9155464  30.6455441  14.1978855
  13.4652004  29.9151611  14.4818821  13.3013287  30.9272232  13.3683920
  19.5296535  54.0251350  54.9726677  18.8170300  54.6640205  54.9577026
  19.4593296  53.5682182  54.1345100  42.3353462  53.8139000  39.2871895
  42.4156113  53.6498489  38.3475761  42.5360451  52.9716797  39.6953773
  77.7614441  43.8458023   1.3725708  78.6051941  43.4093857   1.4903045
  77.1498718  43.3306885   1.8987553  45.9375916   7.8486390  72.6623917
  45.8519821   8.7981281  72.5765228  46.8663483   7.6768694  72.5070267
  32.0735054  68.6846008  57.9656219  31.7494869  68.5083542  57.0823402
  32.8155022  69.2750702  57.8351669  39.5147209  32.1995735  62.9946480
  40.1918831  31.7373848  62.5006218  39.8452950  33.0942955  63.0747757
  75.7332840  15.7573729   8.5472107  74.9893112  16.2071590   8.1466713
  75.5524445  15.7852345   9.4867611  24.7824001  54.4405785  11.7949009
  25.2417831  54.2828560  12.6197176  24.2022533  55.1787834  11.9812193
  51.7915955  32.2707443  52.8252563  51.0105324  32.5450630  53.3057938
  52.0091591  33.0217438  52.2730751  12.0921040  58.0727463  74.4787064
  11.6004066  58.0750580  75.2999649  12.7088652  58.7994385  74.5667648
  13.0726185  51.2858925  40.3458061  12.5953999  52.0953217  40.5283356
  12.5811310  50.8730049  39.6357384  38.6258469   4.7692056  79.2933884
  37.7839432   5.2158751  79.2043915  38.8585815   4.8783121  80.2154312
  59.2577896  23.5600815  67.5035858  59.6900558  23.3802414  66.6687012
  59.4458466  24.4824924  67.6768646  51.0580978  41.9600639  21.0301723
  51.7790756  42.0587959  20.4083424  51.2579460  41.1516953  21.5022221
  24.1399879  43.7361908  81.4989548  24.1730652  44.4734955  82.1084824
  24.9924145  43.3106651  81.5913010  26.0534306  41.7459183  81.7130203
  25.3527946  41.1233902  81.9074402  26.8233395  41.1989746  81.5570526
  58.8317566  20.1838589  28.3306217  58.6379471  20.0325623  29.2557049
  59.6304131  20.7114449  28.3364029  82.0493469  62.5304031  78.1348953
  82.2861938  61.9271698  77.4304504  82.5600281  63.3199654  77.9559250
  77.1944809  70.9953079   6.9799790  77.3495789  70.9752884   6.0356412
  77.3819809  71.8988342   7.2343884  75.5130157  49.3597565  80.9520416
  75.9285278  49.1698380  81.7931824  76.1686249  49.8630714  80.4692612
  82.5354385  62.7483711   7.3269515  81.5809937  62.7291870   7.2569923
  82.7767944  63.6375389   7.0674071  48.0263634  54.1857262  33.9578133
  48.4684753  53.9394379  34.7702866  47.2949371  53.5722733  33.8876915
  56.8226013  63.7761574  78.6908951  57.4132118  63.0230446  78.7061234
  56.6835594  63.9527206  77.7604523  80.0485916  12.6701555   3.0132802
  80.1341705  11.8622265   3.5194006  79.1719131  12.9922972   3.2227883
   3.6750510  33.7049370  77.9588547   2.7664430  33.4253578  78.0706558
   4.0649729  33.0337677  77.3987503  84.9540558  33.3847122  19.4124489
  84.7575607  33.8576241  20.2211361  85.8687439  33.1188278  19.5066891
  24.1568069   3.4916735  76.1884308  23.2097454   3.5053325  76.0501633
  24.2886486   3.9931810  76.9930038  79.3170624   6.8814955  12.3941755
  79.4479904   5.9516501  12.5798540  79.1426086   6.9156737  11.4536266
  37.5270271  53.0324211  78.7724686  38.4401703  52.8944397  79.0241928
  37.5270844  53.8788261  78.3254471  83.7410507  59.8329849  16.0710888
  83.1262970  59.8458710  15.3375063  83.5946426  58.9855652  16.4914169
  37.8751030  35.0669518  72.5242691  38.1050987  34.9633179  71.6009064
  38.5672302  34.6045074  72.9968567  67.3325500  35.9512215  12.9478807
  67.5978546  36.4294319  12.1622820  66.6151886  35.3890877  12.6552687
  57.1302910  11.6786098  87.7284241  57.3247070  12.1219206  88.5541992
  57.5340309  10.8154736  87.8191071  77.2649384  59.0200806  24.9276428
  76.5509186  59.5979309  25.1968746  77.5304642  59.3511696  24.0696754
  12.5838909  24.9823380  28.3732281  12.3996401  24.9041462  27.4371891
  11.9744415  25.6527023  28.6821213  24.9968777  10.0153427  67.2753220
  24.0864849   9.7207117  67.2999954  25.2127724  10.0483294  66.3433685
  57.2268906  17.5681896  39.8105278  56.6917381  16.7864475  39.6736908
  58.1264725  17.2686195  39.6792297  65.2857666  70.5863724  40.4598007
  65.9099350  69.9545212  40.8167496  65.8226547  71.3383789  40.2098694
  17.9141865  26.8958378  88.6139755  17.8882122  27.7132435  89.1113663
  18.7935867  26.8729038  88.2366638  47.8216248  43.1217766  57.3059120
  46.9047432  42.8719482  57.1912613  48.1395569  42.5514221  58.0057983
  40.5711670   3.7732487  18.0520420  41.4381218   3.8289592  17.6501484
  40.6371498   4.3131704  18.8396740  13.7330217  11.7505503   4.9828315
  13.2050228  12.4135103   5.4277282  13.0992126  11.0943413   4.6931667
  21.4390640   3.2732935   0.9777308  20.5657368   3.3971784   0.6059994
  21.5928955   4.0630374   1.4962599   6.1940660  46.6281624  70.4711838
   5.5716205  46.3925896  69.7832108   6.9904952  46.8729820  70.0000153
  32.7708626   5.3015409   7.0764661  33.2944527   5.2556543   6.2764773
  32.0241966   4.7269931   6.9073105  84.5532837  24.9220390  57.8082352
  84.9504318  24.9999046  56.9407997  84.3082962  25.8176670  58.0407639
  78.1926193  54.8483353  71.7836609  79.0120316  54.4717941  72.1046295
  78.4598465  55.4369774  71.0777435  37.2384109  39.3339996  85.4527893
  37.9685707  38.7150764  85.4467392  37.0709076  39.5158463  84.5280685
   7.6504507  17.2133312  67.7105942   7.3532929  16.9051991  68.5667343
   7.6008101  18.1674595  67.7689743  22.7963409  30.0805492  18.7078362
  23.6233635  30.3818150  18.3316689  22.9835968  29.9693451  19.6399307
   4.9644613  70.4885406  56.3987579   5.0211525  69.5637283  56.1584473
   4.0381417  70.6286469  56.5950546  75.3850937  23.0961456  87.3207932
  74.8119431  22.3559952  87.1210251  76.2333069  22.8483543  86.9528809
   7.9274068  45.5227318  72.9851685   7.6711488  46.1612053  73.6506882
   7.4936090  45.8223228  72.1862335   8.7927999  63.0331535  56.5989494
   8.1880398  62.3622551  56.2821045   9.5010414  63.0405350  55.9550781
  67.1259995  57.4982758  60.7892036  66.7791824  56.6477356  61.0585289
  68.0701752  57.4272995  60.9296455   2.0344117  70.4801788  54.8054161
   2.6317620  70.5018082  54.0577965   1.1942648  70.2123718  54.4330444
  64.2926178  62.9965324  82.7841873  63.8036499  63.2683754  82.0074997
  63.9907646  62.1048203  82.9572983  76.0401306  18.8055325  19.3324928
  76.5651932  18.8900528  18.5366344  75.6072235  17.9563370  19.2447681
   8.2207956   5.0556569   6.9901419   8.4601688   4.4894209   7.7238374
   7.7286587   4.4861979   6.3987455  58.8403740  51.6326141  24.4444904
  58.6814423  52.5732536  24.5230217  57.9700394  51.2515411  24.3281746
  58.6132011  60.9849205  84.5356216  58.3356705  60.4242935  85.2601242
  59.5610313  60.8608093  84.4862213  37.6316872  66.6899414  17.9392033
  38.4684563  67.0877762  17.6988411  37.0312157  66.9559174  17.2428360
  60.6011505  48.0249329   4.6025381  60.0352974  47.5932541   5.2426128
  61.3583260  47.4448357   4.5225077  67.2927094  18.1190128  73.3269272
  66.4036484  18.2212448  72.9872742  67.3271408  17.2150059  73.6396790
  45.1565895  47.3592300  44.9760780  45.5094604  48.1329727  44.5367241
  45.8645782  47.0656395  45.5494804  78.1205063  41.3209229  82.9147491
  78.4622803  40.4675407  83.1815033  78.5861053  41.5223160  82.1030273
  46.5132408  29.7161808  83.9840546  45.6925774  29.2355003  83.8759384
  46.4259911  30.4725666  83.4039688  58.0376167  70.8706970  83.7109909
  57.7695045  70.1553802  83.1342087  58.9115906  71.1114197  83.4036713
  20.2918606  25.4584293  68.1161575  20.2056808  26.1168175  67.4267197
  19.3951035  25.1690540  68.2844391  80.1473160  49.9254799  60.0663338
  80.0942154  50.1321335  59.1332169  79.5769043  49.1646652  60.1759949
  62.8369331  36.6224480  20.3124199  61.9968872  36.4419365  20.7342815
  62.6839981  36.4383011  19.3856335  80.3833466  56.4642448  87.0188446
  81.2909775  56.3280602  87.2906570  80.4084625  57.2627792  86.4916382
  56.4641037  65.9863968  55.2971191  57.0916023  65.7101669  55.9650803
  56.2064896  65.1746216  54.8602028  12.6794138  67.1914978  65.8049164
  13.4555788  67.0109787  66.3352051  11.9642448  67.2480774  66.4386063
   2.7043099   2.8870335   4.4146814   2.6255565   3.7523043   4.0130148
   3.4466116   2.4815991   3.9665263  76.1292801   5.3955498  45.6776314
  76.9355240   4.8945894  45.5542145  76.3982010   6.3093114  45.5830269
  22.3411083  61.8836250  70.6221085  22.0229645  60.9839783  70.5469284
  22.0871906  62.2972031  69.7970581  74.8077393   5.4623771  87.0340195
  73.9359512   5.8186288  86.8628464  74.7182541   4.5229177  86.8738937
   1.9690555  27.3781013  83.8596725   1.9409273  26.6372013  84.4650726
   1.1814225  27.8829269  84.0622025  17.0861855  31.0456486  60.2325020
  17.7335663  30.9514732  59.5337448  16.3611603  30.4808331  59.9650040
  12.2767849  38.9828377  79.1162872  12.7588596  39.3722534  79.8458023
  12.5456514  38.0641747  79.1147385   4.0733485   5.7893076   6.2097831
   4.2862248   6.5645843   6.7292652   3.7491701   5.1545134   6.8486700
  37.1962204  58.3720589  82.0334015  37.7034836  59.1363869  82.3067474
  37.8458595  57.6758728  81.9357834  86.4035263  24.1693058  52.2994766
  87.2993317  24.4674854  52.1418304  86.1488266  23.7351665  51.4852982
   7.0605359  20.4544067  21.4833393   6.6619992  20.3174229  22.3427773
   6.4712739  21.0651913  21.0406837  77.1291504   4.9841065  50.2889938
  77.8334198   4.8762932  50.9282188  76.8473358   5.8928208  50.3941002
  71.6401443  18.1369247  13.4336510  72.3444519  18.7016754  13.1154509
  72.0888290  17.3619747  13.7718391  75.8519974  57.1991577  69.4035568
  75.9445572  57.6488609  70.2434616  76.7259369  56.8554192  69.2183304
  63.5908165  55.8881989   3.6711273  62.6590004  55.9000473   3.8897831
  63.6958618  55.1184120   3.1119978  53.2357826  49.7353172  83.3965607
  52.5650482  49.8079910  84.0755768  53.9345894  50.3217201  83.6864471
  39.8657722  68.1436768  17.5944996  40.5525970  67.6631012  17.1323795
  40.2559929  68.9971542  17.7830105   4.8662887  18.6178570  19.8684063
   4.5835562  19.2781448  19.2357025   5.4566841  18.0495014  19.3737984
  61.1693344  71.0474548  62.4458504  60.7952194  71.8372803  62.8362885
  60.8526268  71.0536804  61.5425873  39.8996620  35.7631760  22.2615166
  40.6723671  35.3782005  22.6749802  39.1970253  35.1374321  22.4375267
  26.2787819  55.4937897  54.6036987  27.0506344  55.3094597  54.0684433
  25.5443916  55.1616058  54.0874062  78.2103424  21.0644913  64.4301147
  78.7575760  20.3453560  64.7457275  78.0467224  21.5996094  65.2067184
  53.2598534  -0.1868594  40.8248062  52.8328667  -0.0404484  41.6688919
  53.0650635   0.6014096  40.3179321  29.8514919  -0.0257549  27.5316677
  30.3940716  -0.2728023  26.7827969  30.4162598   0.5370095  28.0613499
  12.9247198  13.6629076  28.3838730  13.7473803  13.4107809  27.9644756
  12.4800396  12.8331537  28.5570793  43.5853119  44.9279823  60.7832298
  43.0899811  45.7372932  60.6571541  43.4208412  44.6860161  61.6946220
  80.9378357   0.7133133  75.2527618  81.7772141   0.8633849  74.8178406
  80.4457474   1.5216774  75.1091232  17.7316818  51.6051064  32.6675987
  17.1073093  51.0464630  33.1305351  17.9638786  52.2824173  33.3028641
  59.3547020  65.8916702   5.4820256  58.9202728  65.2346802   6.0259566
  60.0211220  66.2731171   6.0535297  71.8652802  40.6546974  77.0304794
  72.1938248  40.7278786  76.1344147  71.6825638  39.7218781  77.1431580
  84.1036072  20.9636917   8.5203419  84.3408585  20.0475597   8.6640329
  84.8988800  21.3649273   8.1699324  42.6834564  71.6510696  17.9246960
  43.0341721  70.7604980  17.9353561  42.1051292  71.6716232  17.1622353
  14.6127234  31.2663651   9.9906082  15.2602034  31.3006153   9.2864571
  13.8443232  30.8599205   9.5898647  80.7948914  25.8617649  40.9118614
  80.3110809  26.4890251  40.3745461  81.6826172  25.8744888  40.5540733
  53.7959404   4.6894145  44.0206337  53.6216011   5.5754919  43.7032928
  54.7506332   4.6327910  44.0604858  62.5382462  60.7006760   2.2086563
  61.6864166  60.7448425   2.6430109  62.4774475  61.3377266   1.4968257
  62.7632790  33.6957970  22.2541313  62.0294533  34.2189751  22.5766449
  63.5035286  34.3025475  22.2433186  55.9827805  27.3702698  73.4621887
  55.5616570  28.0839024  72.9830017  55.9674377  27.6537647  74.3763123
  29.0656872  51.7884026  31.1646557  28.4659939  51.0717468  30.9572697
  28.5918045  52.5792847  30.9074211  13.8023481  71.3768692  71.0201416
  13.4785872  71.0316238  71.8521347  13.4341869  70.7914047  70.3583832
   1.6926596  10.8062115  78.4780426   2.0453355   9.9175053  78.5233536
   2.1304982  11.1994486  77.7231293   4.8760624  31.4807358  29.0309696
   4.9294558  32.4350166  28.9787312   4.0290751  31.3104420  29.4430904
   7.6854367  49.7915039  56.7545013   6.8749595  49.9184227  57.2477036
   7.5854969  48.9312592  56.3467979  59.4496269  15.7925396  35.1585121
  59.9803886  15.8643141  34.3651810  59.8736458  15.1025438  35.6687508
  15.4758558  60.4147568  18.4008846  15.2882624  59.5384598  18.0645103
  16.2026157  60.2867813  19.0105343   0.5844775   1.0732597  56.0153770
   1.0358233   0.2431085  55.8625107  -0.1880128   1.0332532  55.4515610
  24.2529583  64.6239548  29.3966770  25.1011105  64.4731369  29.8139572
  24.4435406  65.2263031  28.6775932  69.2673111  27.1755886  80.0534821
  69.8395615  27.3523827  79.3068237  68.5315018  27.7770138  79.9389954
  22.4035511  18.4326630  84.3670959  22.9420319  17.6796131  84.1238174
  22.7230835  19.1446552  83.8128433  36.6830559   1.5780554  32.8382225
  37.3264694   1.3384386  32.1712646  36.9971771   2.4131052  33.1849937
  45.5248642  55.2406883  20.5675316  44.6878662  54.8173752  20.7584953
  45.3230019  55.8683739  19.8736343  17.3364887  18.3521461  20.6427612
  17.3375340  19.3041439  20.7424088  18.1554203  18.0679340  21.0487251
   3.6952167  25.1623650  72.7133560   3.0808380  24.8138008  73.3593292
   3.7112222  24.5042000  72.0185242   2.3232710  25.8549442  29.4457664
   1.9831766  25.6893463  30.3250523   2.4422531  26.8040390  29.4097977
  23.2727985  34.0888596   5.0293856  23.7891312  34.0774422   5.8353033
  23.4680023  34.9374542   4.6318722  37.0824318  56.5715523  37.8992996
  36.6731453  57.3657646  38.2427292  38.0222473  56.7470779  37.9458504
  71.6341400  30.6487160  30.8825092  71.7422409  29.7102222  31.0367012
  72.4528427  31.0378227  31.1900101  83.1570663  59.6190071  33.6662102
  82.5116425  60.2047539  34.0618820  83.9962158  59.9126320  34.0209389
  75.2098236  70.1256409  16.1059074  74.5918503  69.5365753  16.5387402
  74.8772659  70.2069016  15.2120190  59.2797890  22.9508114   0.7756347
  60.1308632  22.6922512   1.1292644  58.6909447  22.9310303   1.5300237
  30.9278088  13.5729055  20.0838318  30.8601437  14.1891193  19.3544941
  31.7587700  13.7914333  20.5057106  25.3319530  68.1448212   2.0281758
  25.6642685  69.0405045   1.9686285  25.3466873  67.9456329   2.9643047
   1.3125664  35.3077316   1.5005819   1.6172783  34.7157936   0.8128386
   1.9415888  35.1915092   2.2126601  46.3397026  47.5826454  41.7856064
  47.1004829  47.0031319  41.7455139  45.5982475  46.9948616  41.9304428
   3.3586667  42.8237114  67.1300964   3.4258173  43.4842949  66.4406433
   3.4635434  41.9891472  66.6732254   8.9539194  62.7493744  79.2647324
   8.4803543  63.5804214  79.3011780   9.8737173  62.9930840  79.3686981
  82.5764084   4.7574625  40.3010178  82.6932297   5.6964707  40.1566315
  82.3375473   4.6851211  41.2251091  83.9187317  64.5255051  34.8166504
  84.6747055  64.3950119  34.2441902  83.3661194  65.1489105  34.3452568
  47.0703964  38.4072762  13.2226372  47.8600426  38.1855392  13.7161226
  47.3965492  38.7626114  12.3958397  43.5377045  44.6076050  21.0960274
  43.6705971  45.4371490  20.6373005  42.8124313  44.1903534  20.6311531
  21.8236790   7.1696010  55.9581528  21.7220268   8.0188417  55.5283966
  20.9279137   6.8584647  56.0886612  69.9482803  42.2483864  78.6202393
  70.2899780  41.7422867  77.8831177  69.0764618  41.8853760  78.7763672
  -0.3369700  38.3962555  22.1465721   0.0010950  37.6821938  21.6061478
   0.4102612  38.9830704  22.2628708  22.3944588  38.1851921  69.8746033
  21.6914597  37.6941376  69.4492950  22.0281506  38.4441071  70.7201843
  32.4917145  40.6036911   3.7234576  31.9136467  40.1678276   4.3496304
  32.8648148  39.8905296   3.2053514  59.7276192  11.5831175  42.4346275
  60.0234222  11.2566462  41.5848351  60.1004372  12.4625673  42.4963226
  68.8390427  30.6091118  17.3152695  68.5012360  31.4676399  17.5703049
  69.2422028  30.7549381  16.4594479  34.1389503  54.1399918  11.5096207
  34.5366211  54.8991318  11.0832415  33.2998848  54.0267410  11.0631084
   4.7317362  40.3935585   9.8968859   5.5705152  40.2194710   9.4698315
   4.3190379  39.5333290   9.9738111  80.0496216  58.7498169  57.7896690
  79.1856079  58.5058861  57.4576759  79.9457092  58.7627754  58.7411270
  47.7790070  63.2849541  87.4806824  48.3129387  63.9553871  87.9069061
  47.2939644  63.7587967  86.8050766  62.4811020  69.9334869  58.4247665
  62.8614616  69.0851440  58.1970024  63.1083145  70.5746765  58.0905418
  19.9624462  35.4699631  70.7378387  20.2131596  35.9012985  69.9209442
  19.9335728  34.5388069  70.5179672  63.5286751  47.0062408  43.9711952
  63.1913338  47.8755264  43.7549248  62.7692223  46.5319977  44.3096581
  27.5498142   9.8439713  65.1764297  27.3996449  10.7802649  65.0459061
  28.4720402   9.7160501  64.9542465  27.1249542   7.3087082  10.8896942
  27.8104248   6.6852117  10.6496649  26.5384197   7.3227358  10.1333799
  14.4103765   8.6205721  67.3849640  13.9268970   9.4417477  67.4752426
  14.6511173   8.3846350  68.2808533  42.4204674   9.1151123  63.4083748
  42.3515892   9.7300930  62.6781120  41.5133591   8.9164457  63.6405716
  68.4813766  22.4251137  68.3550339  68.5573578  21.6760807  68.9461441
  68.0286560  22.0785084  67.5861740   7.8332820  25.5164089  27.3791752
   8.5207348  24.9509239  27.0272274   8.2786837  26.0575523  28.0311050
  65.4493027  25.8703194  25.6396542  65.9102173  26.5490952  25.1466484
  64.5730209  25.8482952  25.2551117  25.4803429  18.7337780   1.9470655
  25.3215656  17.7903557   1.9783168  24.7898045  19.1110611   2.4920835
  40.8231659  31.5467510  79.0777359  41.1475410  31.1274776  78.2807312
  39.8956680  31.7069550  78.9036331  14.5481081  46.0549507  76.4497833
  14.6916857  46.7243652  75.7808304  15.3512802  45.5342674  76.4438400
  34.8726540  37.5096207  79.9038239  35.7081070  37.7861748  80.2803497
  35.1137733  37.0365639  79.1073914  86.3022766  21.4850349  36.7254753
  86.7435455  21.1292381  37.4967880  85.4590302  21.0326862  36.7019997
  54.3288803  24.1283207  51.3003845  54.7309036  24.3670006  50.4651375
  54.6033440  23.2233334  51.4483681  60.4818153  36.4968300  80.3935623
  59.8033066  35.8336868  80.5204697  60.2824745  36.8833199  79.5408478
  58.1760712   9.4487085  75.2726974  58.9147339   8.8986387  75.5335236
  57.4052048   8.9014225  75.4226151  13.2475834  48.1305504  65.8835831
  13.0721092  47.4720154  65.2114410  13.3556089  47.6266251  66.6901932
  62.3914375  13.0690489  73.8716583  61.8468475  13.4575043  73.1869965
  62.3164673  13.6742029  74.6094894  10.8097744  62.3851662  68.3751678
  10.8601408  61.4346581  68.2740250   9.8785753  62.5867996  68.2832718
  11.6422510  16.5244045  10.2668161  12.1880121  17.2798748  10.4850864
  10.8184614  16.9042969   9.9613905  78.0062943  48.8859406  88.5644684
  78.4338760  48.0331421  88.6428299  77.7521820  48.9427299  87.6433716
  51.1509361  47.5851517   9.4855051  52.0397415  47.7325401   9.1621904
  51.2124023  46.7773476   9.9953136  24.6064148  36.6114044  85.9540329
  24.4678288  37.4539337  85.5213928  24.6435757  35.9775772  85.2377090
  76.7741928  24.9616547  40.6364861  76.2998657  24.1775360  40.9128952
  77.4431686  24.6369057  40.0337906  85.4345703  61.8840485  10.2393398
  85.5581207  61.1671066   9.6172762  85.9730835  61.6427078  10.9929924
   9.8247652  15.8084154  65.6838379   9.8736725  16.2711163  66.5203476
   9.2983017  15.0310984  65.8705063  46.8135910  10.4999275  43.6824570
  47.3675041  11.1464624  43.2449570  46.5174942   9.9227276  42.9786110
  82.5440903  27.4273758  82.9809952  82.1669312  27.7800884  82.1750336
  81.9516602  27.7232494  83.6721649  51.2428856  47.3435974  61.1092682
  50.7113419  46.5505753  61.1786156  51.8161201  47.3154564  61.8753242
  60.6887169  46.5795860  70.0803833  60.5173264  45.8010139  70.6101761
  59.9116211  47.1257629  70.1989059  83.4717255  21.2165070  77.2533188
  83.6292343  20.3026123  77.0162125  82.5318756  21.3398972  77.1203003
  83.8233871  14.1637754  28.3644066  84.5523682  14.7694120  28.2301502
  83.2740784  14.2743750  27.5883522   1.6724706   1.2522392  24.6099453
   1.7990527   1.5206791  25.5199718   2.4995310   1.4683229  24.1792355
  19.2047043  49.9600334  79.2278595  19.5111237  49.1708107  78.7812424
  18.6442299  49.6343536  79.9321518   5.4943051  35.0623779  19.3024025
   5.2083845  35.5222015  20.0917339   6.3462372  35.4471092  19.0964260
  22.5469322   3.0739083  30.7501411  22.5651188   2.2966106  30.1918316
  22.5789967   2.7287457  31.6423664  25.9610825  41.5529709  68.6439590
  25.2486992  41.2561798  69.2102203  26.5446968  40.7972145  68.5771942
  66.1546783  52.8557014  80.9714966  66.8799591  52.2995186  81.2558594
  66.2583389  52.9175949  80.0219421  51.2189293  45.9809036  76.6952133
  51.6905441  46.3255577  77.4535141  51.7242928  45.2133560  76.4274292
  74.9703445   1.4912133  34.5311661  74.3451462   0.7749615  34.6422653
  74.5005646   2.2683175  34.8338890  13.6848898  52.2902184  61.1420708
  13.7210407  52.4985695  62.0756187  13.4011469  51.3765564  61.1113892
  38.8964539  17.3422222   3.6402135  38.0857735  17.4177647   3.1368999
  39.4857254  17.9833641   3.2428136   9.1587572  69.0757446  53.1994781
   9.9859037  68.6150665  53.3403320   9.4180441  69.9634094  52.9524002
  12.1484919  54.7132492  60.3633347  12.1098213  54.2637672  59.5191154
  11.9675722  54.0288277  61.0075912  40.3215561  32.8058624  84.8913269
  39.6704292  32.2022820  85.2490387  41.0633507  32.2474937  84.6585236
  78.9718094  37.8337364  67.9602966  79.5693970  38.0876007  68.6636276
  79.2237091  38.3867149  67.2207108  82.0679169  42.9920387  61.8567963
  82.1636353  42.1727180  61.3712120  82.8537445  43.0410423  62.4011383
  16.2184753   6.5042715  41.1098938  16.7417641   5.8233123  40.6871719
  16.7637119   7.2895565  41.0621796   5.7618032  46.0343399   5.2244191
   6.3515544  46.4948845   5.8213482   4.9761376  45.8676605   5.7451677
  13.2765093  48.7623253  88.0050278  13.4547482  47.9924927  87.4648209
  12.9130449  49.4041061  87.3949051   5.3651991  25.3447685  37.1610451
   5.5396466  24.4075069  37.2467232   5.3029695  25.6602116  38.0626297
  86.1310730   1.6995634  23.5240860  85.6964798   1.0710237  24.1005402
  87.0642776   1.5817864  23.7015133  76.6388855  63.3402061  18.7533436
  76.7522964  62.4173927  18.9808960  77.1331482  63.4490471  17.9408817
  23.7790756  70.8611832  12.3406878  23.4922619  71.5522537  11.7437077
  23.5256443  71.1743240  13.2089863   4.1952143  13.6648884  51.4077415
   4.4492025  14.5617847  51.1902542   4.2709389  13.1874886  50.5815544
  83.6910934   8.9077988  16.7396755  84.2708817   9.1458826  17.4631348
  84.0877686   9.3165312  15.9703751  58.7053757   6.0109110  25.4306908
  57.9817772   5.7443318  24.8636189  59.3985710   5.3764029  25.2487240
  17.2050323  59.5537567   2.6860278  17.7484093  59.1118889   2.0335503
  17.1196003  60.4495201   2.3596253  86.9438705  50.2110405  74.5334320
  86.0996246  50.0315056  74.9472656  86.7949448  51.0051270  74.0201340
   4.2855291  15.8125448  24.1608486   4.2266469  16.2020073  25.0332508
   4.8150811  16.4310970  23.6576595  59.7246628  21.7405891  63.4088326
  60.0618019  22.4262218  63.9854431  60.4878426  21.4517307  62.9084816
  30.6529121   0.4679464   3.6518433  31.2538319   1.0740286   3.2184947
  30.3101215  -0.0769485   2.9434533  29.5245171  50.7919159  62.2821312
  29.3369522  51.5191917  62.8755302  30.3253841  50.3995438  62.6298180
  69.9842606  60.6730347  61.4298935  69.2956467  61.1840553  61.0045700
  70.6110611  61.3268166  61.7396164  62.4385414  20.4911385  72.8392487
  63.2135010  21.0354538  72.9785004  61.9002762  20.6372776  73.6171646
  37.7619171  55.4743690  77.4076233  38.4903641  56.0934563  77.4559021
  37.7248573  55.2195549  76.4857025   8.2287369  62.7722893  49.0529594
   8.0912228  62.9389076  48.1204605   8.2609930  63.6428452  49.4496078
  43.2537537  46.2850075  64.0043488  42.7259598  47.0603638  63.8133430
  43.6802711  46.4849319  64.8376236  15.0037670  55.9491501  15.6877356
  14.4057217  55.2557411  15.4088802  15.6658077  55.4980927  16.2116470
  40.9079704  62.6872864  67.5426483  41.4117355  62.6440697  68.3554153
  41.4034157  62.1495628  66.9248962   6.4229774  27.0092773  60.4250107
   7.2435741  27.4454288  60.1956139   6.2496786  27.2833652  61.3256073
  70.1235886  47.1976967  53.0266266  69.6781769  46.3753700  52.8226051
  70.3435669  47.5692825  52.1723633  57.2724304  10.2425089  54.1837502
  57.8077545   9.4521389  54.2542763  56.4108963   9.9778166  54.5061378
  45.1133308  49.5972519  88.3898392  45.8958092  49.0473099  88.3507996
  44.3887787  48.9773026  88.4730225  19.0177155   3.2086773  31.2332916
  18.4130440   2.7292848  31.7996712  19.7649441   2.6198158  31.1278362
  65.6506577  13.2027874  46.9355125  65.2139969  13.9377203  46.5048904
  65.8112946  13.5092182  47.8279953  70.2214890  68.7941132  57.7166634
  70.3366318  68.8955078  58.6614876  70.9860458  68.2919235  57.4347305
  48.2840233  65.9713058  42.9860573  48.0047035  66.3027878  43.8394814
  49.1490746  65.5944290  43.1469269  81.5675278  39.3338318   7.8677669
  81.9501801  39.8760490   7.1779785  82.3127518  39.0742912   8.4095268
  86.1927719  30.3341503  67.9319229  85.7141342  30.8864651  68.5500565
  86.8090897  29.8440647  68.4761658  17.3650970  20.5746040  74.8488846
  16.8549175  20.4974594  75.6551056  16.7095680  20.5953999  74.1516876
   5.5966940   2.7787466  14.1797962   4.6871834   2.5085874  14.3064299
   5.7456193   3.4419153  14.8537846  50.6340218  29.2817822  81.2976761
  49.8028870  28.9235554  81.6093140  51.1003990  29.5332127  82.0948639
  57.5808334  34.3776741  14.5625372  57.5833359  34.2656097  13.6119232
  56.8528442  33.8351517  14.8657475  58.6946411  55.2477379  61.0539970
  59.4971466  55.7191124  60.8303413  58.0620537  55.5236282  60.3907089
   3.5075362  14.3248425  41.3476524   3.1434553  14.0343924  40.5113983
   4.4538207  14.2237062  41.2449455  41.0134087  55.8244438  47.1439209
  40.9105797  55.4646111  48.0249329  41.6434860  56.5374031  47.2484322
  61.7900963  19.3310738  39.0787163  60.9180489  19.6127319  39.3551750
  61.6857033  19.0998230  38.1557541  60.4507065   9.6628904  13.3589134
  60.3910294   9.7135639  14.3129063  60.6755524   8.7496071  13.1811724
  21.5315475  59.1953049  71.2935333  20.9063625  58.8480644  70.6572952
  22.1558685  58.4825668  71.4293900   2.1537292  69.7187347  57.3890152
   1.6676620  68.9024963  57.5061646   2.2848423  69.7857895  56.4432144
   2.4842899  67.6184311  83.6477814   1.8746262  67.6136017  84.3856964
   3.2503545  68.0912323  83.9731140  51.8038635  61.2303696  26.6977081
  52.1382141  61.2344589  27.5946064  51.6657639  60.3045235  26.4977951
   0.3210730  30.9117641  25.3841591   1.0628177  31.4956493  25.5426636
   0.7148421  30.1159687  25.0265427  66.9561310  57.8881302  34.6972198
  67.6197357  58.5662994  34.8235016  67.4049377  57.2031975  34.2015648
  48.6348000  19.9968929  61.3464622  48.1886597  19.8361797  60.5149803
  48.0038757  20.4972000  61.8640137  63.1724167  11.0296059  51.4367676
  62.9250832  10.5813980  50.6279602  64.0226898  10.6554298  51.6675606
  33.7151642   5.2594824  64.9836884  33.1697960   4.5318637  65.2826538
  34.6071930   5.0013371  65.2158051  37.2919273  53.9493866  30.1827240
  37.6007957  53.8804207  31.0860939  36.5551987  54.5588684  30.2273617
  23.9319000   5.5003853  35.1483307  24.6396160   6.0223212  35.5264244
  23.8109875   5.8613062  34.2700653  52.8855400  11.7456493  27.9507656
  52.6878662  12.6400795  28.2285290  52.5211906  11.1938715  28.6428795
  18.3499794   6.1487308  46.1073532  17.9755363   5.7880893  45.3036346
  18.4019852   7.0907435  45.9456787   7.9170575   0.5962960  58.8798676
   7.3641791   1.0820369  58.2678108   8.3433313   1.2726921  59.4061852
  72.4258041   1.3178892  27.8693237  71.7670212   2.0106471  27.8212147
  71.9227600   0.5198295  28.0314312  55.3665123  42.7539253  53.5821266
  55.1924591  43.6436844  53.8891487  55.2887077  42.8096809  52.6297226
  76.9332504  69.7549057  81.7215881  77.0427704  69.2368546  80.9241791
  77.4719162  69.3071594  82.3739700   9.2153215  33.9307823  20.2210827
   9.1557474  33.2728539  20.9137688   8.6878767  33.5743828  19.5062313
  33.5507469  44.2678719  12.0601273  33.0959396  43.5945282  11.5541677
  33.0750923  45.0755157  11.8659830  62.8339081  33.5502090  12.6471987
  62.3089790  33.7737274  13.4157839  63.4643784  34.2664261  12.5712194
  53.0697708  11.7335949   4.5262380  53.9013481  11.7108068   4.9997258
  52.5602074  11.0159264   4.9024396  76.4888535  50.5499039   9.2641449
  77.0234756  50.6796074  10.0474625  77.0912704  50.6996231   8.5355139
  74.2270355  63.5869522  30.5945396  74.5240402  64.4952011  30.6502590
  74.9250183  63.0807838  31.0102901  61.0158424   6.8210878  10.8091593
  61.2171898   6.3642049  11.6258287  61.5077553   7.6402845  10.8654499
  80.9310226  13.6301632  15.5526123  79.9844894  13.6796417  15.6862068
  81.2969894  14.2213526  16.2104874  60.4714584  32.7472496  71.0270538
  60.5893250  33.3835106  71.7323990  61.2930679  32.7780800  70.5369186
  43.1134605  22.9607182  69.4315567  42.4032669  22.3277073  69.3259583
  43.6093712  22.9027557  68.6148911   9.6761560  28.9707222  15.4118404
   9.6522350  29.9239426  15.4956932   8.8297234  28.6791668  15.7506294
  79.9804840  21.0748634  22.1565037  80.6119308  20.8152294  21.4856129
  80.3853836  21.8271465  22.5881939  83.8992233   3.1889043  38.3866692
  83.1707306   2.7892215  37.9115028  83.5726624   3.2955790  39.2800941
  23.5822449  11.9072294  20.0098915  23.1788673  12.6425791  20.4711723
  24.0024242  11.3933430  20.6995296  65.0443115  65.2292480  36.0600204
  65.0690002  64.6762390  35.2791214  64.4566040  65.9477081  35.8262367
  68.0045547  36.6581116  50.7548828  67.4756851  36.0876808  50.1970863
  68.7119217  36.9609375  50.1855316  78.3020782  35.5344620  80.2636871
  77.4178009  35.3336563  80.5702057  78.5335312  34.7963448  79.6999130
  11.9199286   6.9047704  87.1863174  11.0316019   7.2014189  86.9885635
  12.0514822   6.1464753  86.6171799  86.9072647  52.5518990  13.1347818
  87.1003647  52.1625824  12.2819176  86.2875519  51.9453773  13.5401497
   1.3092343  48.5129509   7.0252428   0.7984912  48.0112419   6.3898997
   0.7993200  49.3106956   7.1660495  50.6609306  63.1118011  19.0762711
  50.1407967  62.5135841  19.6127682  50.6958580  63.9214745  19.5856266
  56.5745163  59.1038361   7.8353457  57.2058182  58.7768517   7.1944313
  57.0191002  59.8401947   8.2552919  34.5571823  51.8561287  86.4525604
  35.0508881  51.4883118  85.7196198  34.6189384  52.8036270  86.3314590
  57.4700813  33.4562035  41.6402702  56.6193924  33.0937386  41.8876228
  57.2814674  34.3606987  41.3901711  15.5921173  56.5293732  57.2859001
  15.8960495  57.4310226  57.1815796  14.6452312  56.6077271  57.4020844
  82.3275833  29.5619965  45.4133148  81.7931061  30.3461246  45.2879791
  82.5034485  29.2477379  44.5264435  76.6999207  49.2878227  42.4262352
  76.1063309  49.1933136  41.6812820  76.9646301  50.2074776  42.4063873
  34.6078873  50.6278877  37.5332680  33.9381981  50.9803429  36.9471588
  34.3523560  50.9371185  38.4023552  24.6688175   0.4064092  63.6212921
  25.0266781  -0.4122286  63.9648018  25.0837231   1.0890898  64.1485825
  65.3366547  34.4052658  11.7930269  64.8241196  35.1407814  11.4575319
  65.9770966  34.2258568  11.1046400  12.4205751  45.8920326  56.9460411
  12.5280075  46.8420296  56.9928627  12.0208454  45.6546707  57.7827644
  75.8501816  21.0667305  11.8322496  76.4234314  21.5206890  12.4499369
  74.9906006  21.0742359  12.2533150  73.7318115  70.8040771  60.1706505
  74.5573959  71.2559357  60.3451881  73.7676697  70.0197144  60.7181129
  62.5740852  33.0903282  77.3319931  61.6305122  33.0136375  77.4735031
  62.6747894  33.0843163  76.3801270  70.7850876  44.9495544  50.1834030
  70.3117371  44.5265732  49.4669800  70.1366119  45.0332108  50.8824768
  59.6377563  52.6649208  60.2399178  59.2324524  53.4999390  60.4738045
  59.3486900  52.0589561  60.9221802  19.1772079   6.3463807  75.6903915
  18.8891983   5.8536429  74.9219513  18.5096016   7.0226359  75.8053284
  71.8551941  62.3621140  30.0113449  72.7148819  62.7465744  30.1827164
  71.8025818  62.3088112  29.0570793  36.2626419  62.1048660  49.0259399
  35.9714699  62.8466072  49.5562897  36.5097580  62.4929466  48.1865616
  68.1037369  65.8736725  75.4694519  67.5702209  66.1366501  76.2194061
  68.0485611  66.6137924  74.8649597  86.3260422  46.7579193  29.2370300
  87.0796280  46.8142395  28.6495190  85.5664978  46.8498840  28.6618214
   9.5384979  22.5145226  81.0073547   8.7867184  22.3070202  81.5623322
   9.2255087  23.2116699  80.4309387  16.4692841  31.3627319  66.8321533
  15.6843243  30.8336506  66.6902390  16.4234676  31.6167831  67.7538910
  65.4511337  26.5489845  20.2557392  64.5133820  26.7061329  20.3659973
  65.6022339  25.7001171  20.6714611  76.9618225  51.7320404  27.9013557
  76.3027878  51.0795364  27.6644173  77.7980423  51.3116341  27.7007923
  35.1464272  55.4128838  30.1553268  34.7500114  56.2790337  30.0611477
  34.5591469  54.8274231  29.6772385  26.2829247  59.6435966  44.4017105
  25.3729458  59.6684761  44.1058197  26.3060341  58.9360313  45.0459557
  17.4069176  10.6021175  13.5236845  17.1499729  11.4361286  13.1304445
  17.4343700  10.7790461  14.4639902  30.2246494  62.4093132  39.5348015
  30.1435261  62.5704041  38.5947495  29.3925323  62.7080040  39.9016762
  80.8095093  40.0575562  36.2970581  80.9547958  40.9330864  36.6556244
  80.1189651  40.1772995  35.6451035  30.6002846  43.4039536  16.7002926
  30.3981285  44.3223915  16.8787289  31.3123035  43.1936722  17.3044777
  44.4764252  16.3597240  63.8018494  44.0565338  15.5084763  63.9255486
  45.3739662  16.1489296  63.5445251  52.1980972  42.3051720  51.5966721
  52.9177818  42.2198067  50.9713707  51.4321976  41.9751549  51.1268654
  58.4541206  53.3203163  67.8080444  58.0776176  52.4403038  67.8007660
  57.7692719  53.8769073  67.4373398  76.1758194  13.8887138  30.4827328
  75.5845032  13.9253979  31.2345524  75.7322693  13.3161860  29.8568687
  81.4371872  18.2074757  52.9900627  81.6371231  17.8030319  52.1458588
  81.6199112  17.5224037  53.6331177  22.6249485  37.8146172  78.0329666
  23.0253601  38.2198906  77.2637787  21.7462082  38.1920929  78.0724716
  73.4215469  55.2556229  18.4424076  73.9174957  54.7131920  17.8291874
  73.7398834  56.1448822  18.2871246  61.9376144  37.0177345  17.8333054
  62.2881737  37.3792000  17.0192547  62.0318565  37.7261543  18.4700851
  25.7315941  40.5857162  55.8359108  25.8771687  41.4951706  56.0965424
  25.7219639  40.0989838  56.6600647  63.8071823  34.0445938  62.9509354
  63.6863976  33.3600426  62.2928848  64.7000656  33.9147453  63.2705116
  57.0542030  47.3922462  39.1707764  57.1676331  47.5359917  40.1102982
  57.6602898  46.6812935  38.9623604  71.6290436  15.1498947  45.4984398
  71.1478195  14.5518951  46.0703278  71.7572632  15.9367399  46.0282211
  14.9011889  16.7429314  85.6469116  14.2357273  17.0520020  86.2616196
  15.3381052  16.0263767  86.1072235  82.4068985  50.8897018  41.0644951
  82.0993042  50.6046371  40.2040558  82.3986359  50.0945549  41.5973244
  52.7195053  31.0747833  19.8108883  52.0132561  31.7132092  19.9101448
  53.5134048  31.6048737  19.7404423  33.6983414   8.7817087  67.2397842
  33.2564240   8.1481180  66.6745377  33.3784142   9.6330328  66.9412384
  57.8779297  41.9308815  84.5782166  57.4901962  41.3207741  83.9507980
  57.9279442  41.4346733  85.3952255  59.5020943  30.5930710  26.2902603
  58.6667633  30.8532066  26.6785641  59.2734528  30.2882996  25.4121552
  19.9471397  16.0890312  19.1783695  20.8660297  16.3196354  19.0416374
  19.7274742  16.4733696  20.0270519  32.9661789  47.1457901  85.1749191
  32.3370361  46.5923119  85.6376038  33.1780891  47.8404007  85.7984924
  69.6197662   8.0655870  40.2892151  68.8641129   7.5395126  40.0275497
  70.3678131   7.6302204  39.8804169   0.5402280  61.9946480   3.6658907
   1.0995356  62.1457672   4.4278417   1.1139405  61.5700378   3.0280871
  68.5202866  59.8744621  64.9498825  69.2702332  60.4683418  64.9833908
  67.9664612  60.2270851  64.2533417  48.4120979  59.6488953  45.3982315
  47.4648209  59.5271378  45.3344193  48.5616417  59.8891258  46.3126488
  75.8273697  22.1227665  40.8604240  75.6121063  21.5386486  41.5875397
  76.7532349  21.9551773  40.6845970  21.9523563  40.9000244  18.1713657
  22.4479542  41.3437386  17.4830799  21.1094608  40.6962013  17.7661324
  60.4542198  35.9733391  40.8983574  60.1033554  36.2036209  41.7586479
  61.2631989  36.4798737  40.8262138  68.9421997  59.1933441  11.0880346
  68.4952927  59.4987946  10.2985983  68.2344894  58.9580536  11.6880445
  84.8178024  22.6711483   1.1915594  85.6566467  23.0904007   1.3834074
  84.4777069  23.1504955   0.4360502  45.1393394  58.7686424  18.3199863
  44.4095764  58.4799080  18.8679943  45.3180008  58.0231628  17.7467728
  83.6531448  66.8207626  14.4766312  84.0237885  66.4045563  15.2548475
  84.1288147  67.6476517  14.3977261  79.0075226  50.5314369  63.2214050
  78.2407913  50.8760414  63.6792374  78.8368073  49.5930138  63.1411018
  66.6607666  10.7155590  25.4386311  65.9124069  10.1575537  25.6503544
  66.5972290  10.8530064  24.4934826  52.0459671  12.5791645   7.6975775
  51.3889694  12.3389406   7.0442195  52.4503098  11.7482958   7.9473677
  85.2218170   0.1809827  81.7903290  84.4710922   0.7151170  82.0498352
  85.2684784  -0.5057977  82.4554520  84.4601517  38.5498695  23.9902592
  85.0372696  38.6253815  24.7501698  85.0549850  38.4592133  23.2458229
  27.6155567  43.4870262  67.6111145  27.2585144  42.6849136  67.9923859
  27.1283474  44.1922417  68.0371780  54.2602997  67.4642410  87.8302383
  53.8392906  67.4538574  86.9706650  54.6918144  66.6123505  87.8958969
  27.4827366  66.9852982  45.6112480  27.9741955  67.6259232  45.0971489
  27.0411129  67.5051346  46.2827911  51.9929352  70.0714798  60.9484787
  52.5100479  70.3754807  61.6944084  52.6422729  69.8531570  60.2799568
  73.6028519  59.0993614  78.4080124  72.9190445  58.5247154  78.7521362
  74.0805969  58.5550308  77.7821579  27.4045315  40.7952843  13.3629551
  28.2695541  40.7580986  13.7711020  27.3149700  41.7033577  13.0737934
  21.9389248  14.6238251  58.3541565  22.3477020  15.4157505  58.0048866
  21.7361546  14.0978155  57.5805740  71.9127579  31.6543655  36.0681610
  71.1053162  31.2788143  36.4191933  71.6182327  32.2752571  35.4018440
  69.9026642  43.6911850  86.9780960  70.0115738  42.7405090  86.9538879
  70.1861649  43.9868546  86.1129761   8.8987818  49.9593315  66.2969360
   9.2531528  50.8167114  66.0612411   9.5687237  49.5694160  66.8585205
  11.4589806  40.6859207  55.6275902  11.9581652  41.4851151  55.7959213
  11.0030384  40.5104675  56.4507370  62.4848328  18.6631966  45.7021599
  62.0673828  19.4016209  45.2586517  62.9027748  18.1664925  44.9987068
  20.5280094   3.6451225  14.7974424  21.4674129   3.7861018  14.9152555
  20.1599102   3.7373595  15.6762066   5.9304919  67.9502029  60.1849709
   4.9763255  68.0256271  60.1745071   6.1970897  68.3948441  60.9896164
  55.3665771  19.1768684  24.3079548  54.5423813  18.8254128  24.6447201
  55.4454689  20.0378208  24.7187691  49.3898697   7.2165380   2.4123838
  48.4689331   7.1613884   2.6674664  49.3685799   7.4963021   1.4972278
   7.9023018  56.6113281   9.0343046   7.9856224  55.6790886   8.8337631
   7.5127349  56.9917831   8.2470789  66.1387405  41.6241951   7.9711533
  65.2786255  41.6789856   8.3876028  65.9707489  41.2005348   7.1294160
  51.2662430  58.3176003  53.0504684  50.3690834  58.0285759  53.2172012
  51.5968132  58.5802650  53.9095154  24.3452854  15.4787102  85.6776047
  24.9718781  14.9206934  86.1382904  23.9774075  14.9147854  84.9972458
  78.4229660  39.8153572  19.2975063  78.4944305  38.9815216  19.7620964
  79.3230209  40.0317421  19.0539627  41.7742462  48.9862823  82.3664322
  42.3265610  49.1061821  83.1389694  41.6965141  48.0368690  82.2725983
   7.4140220  16.3337784  83.4553909   6.6769514  16.7056847  82.9709854
   8.1882257  16.6218166  82.9717865  22.2226143  42.2233696  66.8491516
  22.0689716  41.3865852  67.2878113  23.1319675  42.1757202  66.5541306
  10.8598328   3.3940458  21.8705044  10.1194496   2.9278946  22.2587948
  10.6134720   4.3177161  21.9192009  65.0260544  58.4773293  78.9060135
  65.5391159  58.1942291  79.6628876  64.1298981  58.2104988  79.1107788
  75.1561584   7.6952386  12.7466097  74.5813370   7.2359619  13.3588867
  75.8965683   7.9810724  13.2816935  34.3981781  58.0423470  29.7823181
  33.8345566  58.4849815  30.4168549  34.5892372  58.7108345  29.1244030
  76.2891769  13.3952169   1.4974438  75.5953827  13.1217928   0.8973422
  77.0677643  12.9301844   1.1912161  40.8164749  68.0257797  49.6609726
  40.0106163  68.1804504  49.1681213  41.1354141  68.9014359  49.8794556
  66.4876556  28.5343170  85.8707275  66.4388580  29.0926361  86.6466980
  66.2957153  27.6547909  86.1960373  31.5674000  64.4133301  13.5340662
  31.8806210  63.6236267  13.9750881  31.4529839  64.1485443  12.6213608
  78.1328049  46.5044861  20.3094177  78.7388077  46.9612656  19.7260342
  78.5236740  46.5940666  21.1785698  52.2314110  56.2382050  69.0943298
  52.6803322  55.7399940  68.4113312  52.9158859  56.7834854  69.4821396
  17.7793236  14.5359535  58.2361679  18.2670803  13.7309513  58.0621109
  18.3694935  15.2377272  57.9614983  30.2449455  58.2672081  49.3197594
  30.8702641  58.9541588  49.5506363  30.3692532  58.1362495  48.3797455
  86.8189163  43.3867874  39.9972420  85.8792191  43.2170372  39.9310226
  86.9701157  44.1287460  39.4116936  75.7447205  37.3373299   0.8136151
  76.0176086  36.7670097   1.5322942  75.9818649  36.8548203   0.0216664
  39.7534904  51.4123192  32.5938454  40.2298279  52.2218666  32.4095306
  39.5700531  51.0406227  31.7310448  30.9660034  54.2038918  68.6650925
  31.6718311  54.8215866  68.8561325  31.4106483  53.3677940  68.5255890
  28.8371086  51.3920479  44.6678391  29.1039333  52.2652206  44.3804359
  29.2420788  51.2891960  45.5290298  63.5427933   0.1618982  14.0169935
  64.3534622  -0.1336719  14.4313469  63.6891632   0.0265605  13.0807829
  26.0487156  27.6151981  86.0201111  26.2141571  27.4658318  85.0892258
  26.8089428  27.2372017  86.4621582  42.7895279  18.8216000  63.4860687
  43.2607307  19.3895359  64.0956955  43.0079575  17.9334946  63.7685356
  30.1817207  46.0493507  17.8396606  30.5392113  46.2226715  16.9688034
  30.2264881  46.8932114  18.2892437  64.7324524  10.6817350  41.0771141
  65.3402786  11.3300514  41.4327316  64.5282669  10.1125422  41.8191109
  73.0498123  55.4662437  35.7978210  73.1797714  54.5931168  35.4277000
  72.4649658  55.9039650  35.1792831  64.1398010  27.4784946  83.8716507
  64.0275497  26.9078636  84.6319199  63.7396965  28.3077278  84.1334152
  27.5898800   5.1885414   5.5837512  27.7016563   6.1336098   5.6866260
  26.6465473   5.0695448   5.4733229  74.6957169  40.2363815  34.9525223
  74.4091644  40.9487190  35.5240974  74.3546982  39.4442024  35.3677216
  29.5191345  59.8371544  58.3187256  29.0346718  60.0199051  57.5136604
  29.1790295  60.4695282  58.9517097   4.5547915  59.5285301   9.7387810
   3.7539444  59.6626511   9.2319412   4.2477942  59.2702293  10.6078415
  40.6290474  42.0657082  60.9009056  41.5464706  41.8784561  60.7021675
  40.5332642  41.8390236  61.8259277  51.0798492  51.0089035  55.9097557
  50.5215797  51.7690506  55.7462311  50.8912086  50.4128380  55.1849442
  53.7925949  55.0705452  45.4526825  53.8771782  55.6503067  44.6957436
  53.0028114  55.3744164  45.9000473  44.1194077  45.6195908  83.8012009
  44.8470078  45.7379951  83.1906204  43.3569336  45.9615936  83.3344040
  45.4662590  55.7934647  66.2313614  46.1857376  55.3782158  65.7558060
  45.3742905  55.2725868  67.0291443  64.8126831  59.6164627  74.7647858
  65.2040176  60.4082756  74.3958435  65.4653320  59.2939491  75.3862839
   8.2864714  64.0246353  62.6995087   7.6670194  63.9475021  61.9738617
   8.9733353  64.6028366  62.3676414  40.2245064   1.8307186  86.1366653
  40.2954597   1.8473620  85.1822433  39.4635239   1.2767589  86.3106461
  82.4611282  63.4416275  74.2133713  83.3634872  63.3468552  74.5183258
  82.4348755  64.3087006  73.8087387  11.8365602  56.0021210  31.9365692
  12.2190647  55.5852661  32.7086792  10.9153862  55.7427063  31.9559402
  35.3072777   3.5165002  34.7293053  34.6623535   4.0774856  35.1601143
  34.9704781   2.6285670  34.8491821  46.4432716  60.7994728  53.1405983
  46.5867615  60.7686577  52.1947136  47.0548935  61.4657326  53.4540520
  86.5235596  19.0059109  18.1275768  86.1111984  18.8182373  17.2843876
  86.7615204  18.1461029  18.4744720  38.0292206  70.3874893  45.9695587
  38.4647675  69.5856705  46.2587318  37.8329506  70.8588028  46.7792320
  23.9472923  38.7325439  60.1305809  23.8192444  38.3854980  61.0134163
  23.0623875  38.9135437  59.8136978  80.0233688  67.7964783   9.7567158
  80.1764450  67.0569916   9.1685324  80.0097198  67.4079514  10.6314116
  77.4068985  48.6231918  55.6916008  77.6701355  47.7494965  55.4024811
  77.5671844  48.6216087  56.6352844  16.9209080   0.4921405  30.0586090
  17.0955029   0.0793622  30.9043999  17.6081219   1.1522397  29.9678421
  43.6511002  71.2422409  25.9214725  44.1969643  70.6821442  25.3696098
  43.2915916  70.6502228  26.5821533  84.2693558  35.4195633  79.8805008
  84.6438675  35.3379669  79.0033951  83.6713791  36.1643143  79.8172684
  59.6092529  17.7914848  13.9863262  59.2159500  18.6605129  13.9067326
  58.9226227  17.2529469  14.3797064  50.0920639  45.6581306  46.0624924
  49.5968056  44.8414116  45.9998856  50.9854050  45.3814774  46.2665405
  29.1128197  51.4750366  27.6604614  28.2205181  51.2709122  27.9403934
  29.0319233  51.6720085  26.7272472  38.0332947  15.8299923  11.1796446
  37.0968513  16.0134659  11.1045218  38.3979836  16.0962181  10.3356304
  45.9493027  64.6852112  60.5044441  45.0812836  64.2827682  60.5329857
  46.1179008  64.8251572  59.5726624  75.4493256  14.2408943  23.7406349
  75.9168243  13.4056730  23.7315350  75.1268387  14.3251028  24.6379318
  12.0396833   3.7655611  72.1800766  12.7419214   3.7146842  71.5316162
  12.4529982   4.1549191  72.9506607  61.8336601  64.6984634  74.2607880
  62.5494461  64.1219177  74.5281372  61.2294044  64.1264801  73.7875595
  63.4638214  28.6325645  34.2882957  62.8254318  29.3274097  34.1274071
  63.0257149  27.8327599  33.9974251  21.0149155  37.1327744  86.8961868
  21.6067371  36.9423065  86.1683807  20.9214535  36.2972832  87.3538437
   3.7129397  52.3568153  43.6015930   4.3364973  52.5774803  42.9097023
   4.0886741  52.7405243  44.3939476   8.2726517  54.8905678  86.3434143
   8.1586456  53.9867516  86.6372681   8.2351351  55.4100609  87.1464996
  84.2502899  52.4863853  84.0825500  83.7650375  53.2782135  84.3144302
  84.3846893  52.5559921  83.1373978   9.0802908  68.0092545  49.9947166
   9.0703249  68.7187119  49.3522224   9.4061203  68.4172211  50.7969818
  68.8709946  27.7626266  58.3880959  68.2510834  28.4451504  58.1310005
  68.9920731  27.8910751  59.3288803  74.3794708  69.6872177  11.3907118
  73.6802292  69.5382538  10.7542410  74.6422043  68.8094482  11.6677132
  33.9556847  20.7148075  71.3480835  33.4439697  21.4717484  71.0627441
  33.5318451  19.9667854  70.9272995  82.6184692  23.8732910  34.3632317
  83.4285126  23.5766850  33.9483986  81.9513855  23.2624435  34.0500298
  80.6380081   6.2360649  47.3864822  80.3287201   7.1006861  47.6566734
  80.8944702   5.8074741  48.2030411  72.5028000  23.8872814  83.7327957
  72.3070831  23.0021877  84.0402603  72.2347870  23.8863525  82.8138809
  38.2506905  71.1929932  25.3528652  37.7964020  71.3788986  24.5311031
  37.5882988  71.3325729  26.0296135  55.1216621  46.5582733  64.5846710
  55.5497513  47.3504524  64.9093628  55.8128052  46.0854034  64.1210480
  62.7612991   9.6849737  57.8873329  63.6275749   9.7573738  58.2880287
  62.8770447  10.0310383  57.0024147  83.2557983  50.2179909  85.0934448
  83.7389755  51.0241356  84.9120636  83.8592072  49.5166855  84.8478699
  55.3660316  50.8636131  11.8803606  55.7224350  51.1748047  11.0482740
  54.8548012  51.6014023  12.2128382   6.6892500   0.4898809  69.9912796
   5.9663386   1.0164554  69.6501770   7.4427853   0.7438312  69.4584351
  20.3433723  43.7422333  65.0435333  20.9201450  43.2876244  65.6574478
  20.3213406  43.1764030  64.2717896  34.3409348  54.3759956  14.8059998
  33.4447975  54.6721687  14.6464624  34.4751740  53.6684456  14.1754589
  84.7950363  46.6044884   0.9563265  84.1413116  46.3992233   0.2879375
  84.2834930  46.7757988   1.7470328  61.8643417  64.4002380  30.0232162
  61.5937614  65.2853622  30.2672768  61.4204636  63.8319588  30.6527081
  54.1981010  49.8067131  72.9298859  53.8384438  49.5746384  73.7860489
  54.5918236  50.6692314  73.0612946  54.1225853  31.7698860  84.7331848
  54.5933838  32.5917969  84.5951920  54.5418892  31.3795204  85.5000153
   2.8788447  61.0880890   1.9601884   2.6575646  60.4270554   1.3042141
   2.6450949  61.9205742   1.5496289  36.8530617  12.7477722  40.7567253
  36.6658363  11.9678679  40.2342987  36.2526474  13.4122458  40.4187775
  66.7407608  10.7503614  73.0170288  65.8106384  10.6197338  73.2015076
  67.1421356  10.8641062  73.8785400  33.1664696  63.7793465  68.0928726
  32.2140274  63.7199097  68.0183640  33.3849525  64.6253815  67.7020798
  34.7397957  32.7831917  74.0695877  34.7655296  32.6723442  75.0200043
  35.0989494  31.9662666  73.7233658  77.2640610  10.2626181  77.7690582
  76.7014236  10.9907122  77.5053406  76.9127121   9.9823418  78.6141815
  58.4503593  46.9005623   9.8629007  58.7410622  46.3983536   9.1016436
  57.8405457  47.5459747   9.5054092  83.4887695  71.5250931  35.8338623
  83.1597214  72.4115753  35.9825554  82.8683548  70.9591370  36.2932281
  68.0528946  49.7762299  46.4074554  68.0122070  49.9507599  45.4671783
  68.9165573  50.0924835  46.6726036  39.4780998  66.2931519  85.1717682
  39.6106110  67.1341171  85.6093292  39.6666832  66.4703217  84.2502060
  64.6844406  31.2195549  68.3968887  65.1570129  30.7186317  67.7320709
  65.3709717  31.6593323  68.8983917  86.6609116  68.0161896  30.6600494
  87.3012772  68.4294510  31.2391644  86.3912582  68.7147827  30.0638142
  22.0239010  18.1702576  73.1275940  21.4982986  17.9036694  72.3733368
  22.5526810  17.3998947  73.3353577   8.4207582  60.4481926  74.0670319
   8.4277372  59.6899490  74.6511993   8.9582958  61.1010056  74.5155029
  43.6675529  36.8622475  66.4873886  43.3818321  37.6971169  66.1164551
  44.4108162  36.6005669  65.9439621  28.5526428  70.0929337  76.6243591
  28.3182182  69.5335312  75.8838577  27.7807293  70.6414719  76.7639465
   6.4626260  19.9575577  41.4159088   5.5531335  20.1353302  41.6556015
   6.8167810  20.8120155  41.1695175  79.2085266  70.3519363  33.8323174
  79.2869720  70.4497681  32.8833656  79.4704056  69.4470749  34.0022736
  22.0947056   3.4635456   4.9727020  22.4326248   3.3090770   5.8548479
  22.6070271   4.2031884   4.6460743  10.8031006  62.3790665  24.1574974
  10.1419601  62.0027084  23.5765667  11.1388741  63.1370201  23.6789646
  64.5639343  67.8396149  61.3263016  65.4709930  68.0446396  61.5531006
  64.1086960  68.6801376  61.3762741  38.4929428   0.6219909  40.1090050
  38.4102821   1.4944338  40.4940262  38.6675301   0.7848297  39.1820526
   7.3645816   9.1366911  33.7367630   7.8945689   9.9272041  33.8389130
   6.5125809   9.4562626  33.4397774  69.6876450  11.0006170  34.9559937
  70.0578995  10.5542040  34.1945076  69.3520355  11.8272772  34.6092567
  39.6930008  71.6609039  13.1482096  39.3699303  70.7706604  13.0092182
  38.9584160  72.2233429  12.9026976  17.2059898  42.7240677  67.4924240
  17.3071327  43.2730408  66.7148438  16.9481277  41.8683739  67.1495972
  57.9725723   7.3512712  28.8694134  57.5112495   7.0469408  28.0878792
  57.7387886   8.2767668  28.9403706  58.6699677  25.2620907  82.0995331
  58.4296036  24.3416729  82.2057877  58.1354866  25.5660686  81.3659439
  58.8882065  25.7026234  32.6423416  58.5422745  25.5938377  31.7564926
  59.0257645  26.6456718  32.7316170  46.3236198  18.0204220  38.4789734
  46.0355339  18.9155998  38.6575623  46.0692520  17.8638802  37.5695686
  79.9174957  47.0168839  57.3053513  80.0614700  47.9630928  57.2913971
  80.4350739  46.6850166  56.5717239  86.4238892  20.6897545  46.5029793
  86.4078140  21.5990467  46.2043839  85.5890503  20.3260193  46.2080650
  83.8099823  57.7905426  74.9278336  83.3751144  57.3787422  74.1811447
  84.7443771  57.6921997  74.7449265  15.1388531  53.1625366  28.4072132
  15.2534704  52.2394409  28.6330204  14.2613659  53.3790550  28.7224426
  21.3429604  20.0952435  60.0681152  20.4028378  19.9208565  60.0234985
  21.6451206  19.5881691  60.8216438  16.0454388  20.6597080  77.1865540
  15.4164467  19.9383068  77.2000504  15.7337151  21.2619400  77.8621063
  39.9218102  10.4751024  39.0385742  40.8139534  10.8219328  39.0337639
  39.5428162  10.8002863  39.8551826  35.7286263   8.0046587  19.9044857
  34.9293289   7.4780769  19.9129372  35.5131493   8.7582836  19.3550758
  18.2355022  49.5441551  52.0239830  18.2780266  48.5940628  52.1323509
  18.2462711  49.8878326  52.9172897  38.3282852  30.2153664  88.7223969
  39.0736656  29.6650486  88.4820023  38.6696129  31.1090050  88.6886826
  34.8498116  38.5768967  69.7307663  34.3353043  37.7930908  69.9235458
  35.4210320  38.6815758  70.4916763  74.6889801  43.0392723  71.5334854
  73.9017944  43.4745064  71.8608170  74.4670486  42.1081619  71.5374374
  18.4115562  23.9796505  84.5670242  17.6600971  24.3652344  85.0174332
  18.0730419  23.1687546  84.1874390  45.8072853  15.3698683   5.2139688
  45.0047760  15.2763147   5.7272468  46.3143082  16.0339279   5.6810737
  38.5489769  52.0082664  25.2813530  38.2464790  52.3212738  24.4288540
  39.3999863  52.4292717  25.4028854  10.3729944  38.5879593  65.9834824
  10.9919882  38.0747452  66.5027924   9.5459423  38.5198860  66.4605331
   5.3776474  35.7665596   0.5510910   5.8906698  35.5341454   1.3250566
   4.8981833  36.5538216   0.8090954  70.3213806  38.0259972  58.2949219
  69.9275589  38.3028145  57.4675751  70.9384689  38.7247658  58.5120850
  42.8362427  64.5966492  18.3259239  43.1497917  63.7140236  18.1287117
  42.6153259  64.5699081  19.2568970  49.9149475  46.8313026  82.2224045
  50.7930527  47.1126404  81.9654694  49.4934578  46.5810890  81.4002304
  52.6698647  15.4011154  73.8136673  52.9128914  15.3637314  74.7387466
  53.2873764  14.8123131  73.3798141   7.0577188  42.6305580  65.6301727
   7.0468435  43.3622704  66.2471848   7.9493456  42.2863350  65.6825333
  60.5942459   1.6070969   5.1570225  60.8941956   1.4977872   4.2546291
  60.8799782   0.8096026   5.6026587  18.2076359  57.5815964  58.5675354
  18.2327099  58.5317268  58.6809120  17.9738808  57.4562149  57.6478233
  35.6060829  64.7149811  13.6512156  35.1672745  64.0049057  13.1827431
  34.9524651  65.0298080  14.2756300  29.8097095  11.9895973  11.0068464
  29.8631229  12.8969049  11.3071337  30.7212887  11.7053499  10.9400759
  56.1148872  37.7102089  33.8282585  55.9787827  37.6493340  34.7737770
  55.9035263  36.8365784  33.4991188  78.4590683  34.6471138  42.4863129
  78.8824844  35.3871536  42.0512466  77.8929977  35.0487213  43.1454849
  67.2799683  20.3994675  85.5075607  66.9573746  21.2808533  85.3196182
  67.7616653  20.4909534  86.3296509  64.8402786  18.9495602  72.4269028
  64.0414429  19.4210453  72.1906967  64.8552170  18.9680061  73.3838043
  63.3634834  16.9651947  81.2330704  62.8664131  16.3649426  81.7888107
  64.2051468  16.5286121  81.1017914  27.5648804  61.0329590  28.8853760
  27.8992691  60.9189987  27.9957523  26.7785187  60.4881210  28.9172974
  12.9504700   5.9210806  80.3082199  12.1079931   5.6120253  80.6413116
  12.8766689   6.8753734  80.3187103  32.5268097   1.9092937  59.7576790
  32.1183968   1.6082566  58.9460106  31.8159752   1.9068290  60.3987236
  40.2765961  14.0975609  89.1332169  40.3949089  14.3477459  88.2168961
  40.5632439  13.1850824  89.1712875   9.9314528  57.2087135  52.3182640
  10.3942642  57.7099113  51.6468239   9.7872429  56.3504791  51.9196777
  82.6916733  28.8020630  54.8981323  82.8418884  29.3251019  54.1106682
  83.2781830  29.1810017  55.5528450  23.0551929  16.4147072  64.6104660
  22.9816780  17.1228371  65.2502899  23.5973015  15.7555752  65.0439301
  51.6708107  33.7422829  36.3752747  52.5717392  34.0577393  36.4463387
  51.6913147  32.8688660  36.7663689  35.8629189  20.5553436  80.3654861
  35.1222458  21.1487026  80.2407379  35.9897041  20.5266094  81.3138123
  83.4536667  12.6167765  79.3845367  83.3659286  13.0536556  78.5373840
  84.0522461  11.8886976  79.2176971  30.8877926  51.7751274  24.8565807
  31.3745975  50.9723129  25.0429726  29.9857121  51.5709457  25.1031437
  15.7155933  54.0760880  41.5039635  16.2713394  53.5499840  42.0789375
  15.2822542  53.4364853  40.9388428  17.7825317  20.6155796  24.0993519
  18.3202190  20.3353748  24.8400345  16.8968754  20.6792355  24.4568367
  43.8075523  67.2176590  10.8166504  44.6173668  66.8962097  10.4202890
  43.4455490  67.8201141  10.1668520   6.1988096  13.2778645  17.0189037
   5.8761806  12.3767366  17.0294361   5.4853806  13.7921228  17.3967781
  73.9833679  38.5470238   4.3823466  73.8150635  38.2315445   5.2702537
  73.1892395  39.0250626   4.1434650  32.3505020  11.3416681  10.4732819
  32.9816895  11.8777599   9.9932413  32.8736267  10.8928041  11.1374302
  47.4614944  20.0977154   2.2253196  48.2735176  20.4133472   1.8288021
  47.5625381  19.1462688   2.2530775  83.7882614  62.9779854  68.9875488
  83.1008301  62.6079140  68.4337234  84.5715103  62.4744186  68.7658005
  83.1464157  10.0389576  44.0905952  83.4155045  10.8977270  43.7645035
  82.2656326   9.9138355  43.7373276   6.0047317  32.4015808  34.7568130
   6.3535967  32.7412949  33.9327278   5.1121192  32.1287041  34.5446510
  59.3828278  13.7717133  86.5017700  60.0745926  14.3479452  86.8268127
  58.6045914  14.0293713  86.9959259  38.3004341  51.2872887  72.0746307
  37.9341469  50.5230598  72.5196228  37.5996895  51.5854797  71.4947357
  74.0549850  14.8503246  73.2464828  73.8802032  15.7626429  73.4774857
  74.0120163  14.8328762  72.2904129  24.2953434  65.0116730  64.4770889
  24.3989754  64.3989944  63.7489967  23.3487816  65.0733337  64.6053467
  71.2480927  26.3710308  85.0243301  71.5858307  25.6036720  84.5624542
  71.5386810  26.2533283  85.9287262  53.2623062  46.1478043  24.8446312
  52.9872322  45.2554092  24.6343975  53.4204674  46.5564423  23.9936142
  29.5008278  69.8390198  62.2454033  29.3712597  69.2992554  63.0252113
  29.8902931  69.2442703  61.6044464  26.8473892  29.8710918   8.5515270
  27.6094532  29.3783112   8.2471304  27.0929241  30.1766052   9.4247999
  59.2744980   7.0152516  80.2269287  60.0680885   7.0833254  79.6960678
  58.9640045   7.9168515  80.3102493   2.0806830   0.0144111  47.9362068
   2.6339519   0.3860236  48.6232491   2.6963153  -0.2707612  47.2609978
  20.7474499  29.6163807  76.5183334  20.2495499  29.4304008  75.7222595
  20.0818539  29.7201653  77.1983719  60.0764542   6.2619882  50.3098602
  60.9559860   6.5942578  50.4894371  59.8665886   5.7174621  51.0685959
  85.1062088  42.0654945  75.6950607  85.7136765  42.1638756  74.9618912
  85.4834213  41.3641815  76.2261963  66.4034119  16.4240437  68.2016220
  65.5898972  16.5502453  68.6899796  66.8623886  17.2603016  68.2806396
  75.5992508  44.0812912  56.6194077  75.4330139  44.7054672  55.9130058
  74.7752457  44.0441628  57.1050682   0.4164126  25.3328571  56.9175415
   0.0616418  24.4776688  57.1604805  -0.0379767  25.5588856  56.1059532
  26.6040230  51.2727509  71.3998184  27.4299927  50.9280815  71.0603943
  26.2367249  51.7744141  70.6720428  24.8365936   4.5487986  78.5217133
  25.7129669   4.7910390  78.2225037  24.9711838   4.2074380  79.4057922
  39.1187897  41.9124451  12.9008446  38.6111145  41.3906593  13.5223265
  39.4457169  41.2761841  12.2648230  41.9832687  34.0882988  13.3989401
  42.0052643  34.8921013  13.9182167  42.7049866  33.5615311  13.7422647
  16.0926971  66.0717850  72.1743393  15.2121429  65.6980438  72.1401520
  16.5834293  65.5899200  71.5085907  26.6236591   6.0770292  87.1447525
  26.3995037   6.7329507  87.8048706  26.2398396   5.2645049  87.4744797
  43.8114471   8.9997883  69.4347153  44.3972435   9.7395573  69.5953903
  43.3269501   9.2447586  68.6463699  10.1081944  42.9439316  86.9197617
  10.9818544  42.9479599  87.3108368   9.9215012  42.0187874  86.7601242
  59.8679771  51.8490028  15.1384192  59.0973778  51.4252052  15.5163164
  59.7432785  51.7731667  14.1924114  70.2952499  22.2076702  45.1464386
  69.5890503  22.4004326  44.5297012  70.7314835  23.0488968  45.2815781
  25.7888603  24.4546852  85.9846649  25.0101509  24.9232235  85.6841354
  26.0038452  24.8611603  86.8241806  50.2566948  47.5326996  86.8579712
  50.4041290  48.2605591  86.2540588  49.8457718  47.9355965  87.6228561
  83.9267731  48.1321335  18.4785480  84.4873276  47.9660683  17.7206326
  83.7060165  47.2611732  18.8085957  77.0621490  54.6679382  34.2144814
  76.3555069  54.1975670  33.7721710  77.5332260  53.9908943  34.7002068
  78.2943954  21.5956039  61.3738518  78.1131058  21.1282082  62.1892662
  79.2295532  21.7956123  61.4152489  69.3284988  16.9085388  20.3607025
  69.7611313  17.2256622  19.5679245  69.6909943  16.0332718  20.4975853
   3.4342203  34.4895668  44.6049271   2.5375793  34.6645164  44.8906898
   3.9795873  35.0083694  45.1962395   4.5395894   3.8251057  30.1397400
   4.1244345   3.4541407  30.9183693   4.4782782   3.1320162  29.4823971
  19.3420525  13.1802330  14.9079370  19.9550552  12.4600544  14.7602835
  18.5455036  12.7553387  15.2260695  57.0444298  51.8449860  33.4267464
  56.6766129  51.6525726  32.5642395  56.6616974  51.1836700  34.0032997
  29.6024971  58.9737129  64.6489487  30.1270828  58.8924103  65.4454651
  30.0128574  58.3705101  64.0292816   1.4835985  59.3720665  47.6165123
   2.1018498  59.6516495  48.2916679   1.3493204  60.1513824  47.0771904
  23.4414902  69.4667587  41.1674690  23.2614193  69.5303955  42.1054230
  23.8256340  70.3133011  40.9393578  62.6100807  45.2671928  68.6530304
  62.3355408  44.3511887  68.6106339  61.9516411  45.6892738  69.2048798
   8.1808910   7.0295548  13.3871574   7.3427467   7.2436142  12.9773712
   8.6916389   7.8366008  13.3235521   6.6872706  49.9533157  79.3805237
   6.5856876  49.9474373  80.3322983   5.8055954  49.7920609  79.0445480
  70.8145294  39.1714363  33.8184090  70.8981476  39.6264496  34.6563835
  70.9002533  38.2441406  34.0397797  73.0242844  38.6585655  67.8366165
  72.8877563  37.8851242  68.3837662  72.1585846  38.8541718  67.4780960
  62.1522789   1.5172036  78.4853058  62.9837952   1.8647238  78.8078613
  61.9997215   1.9847332  77.6641006  57.2665672  37.5791206   8.3118305
  56.6290588  38.1933899   7.9478369  58.1110039  38.0155754   8.1992636
  19.5564804  60.2263908  17.3886890  19.0622978  60.3262482  18.2023487
  20.4632435  60.1092148  17.6720333  47.3497581  62.5954208  63.9249916
  47.9806900  62.0092545  64.3428040  47.4246979  62.4012527  62.9906921
  67.0064621  13.3574772   0.9658915  67.7599030  13.1119747   1.5028175
  67.2551651  13.1080351   0.0758592  77.6331482  39.0151901  60.8950195
  77.9349518  39.5539665  61.6263657  76.6963501  39.2010994  60.8311768
   7.6675830  31.7489319  75.9175568   7.2767034  31.1739616  75.2596436
   8.3593531  32.2148399  75.4478607  36.6696167  68.1122742  74.3582916
  36.5835304  67.5771561  75.1472626  36.2573738  67.5911560  73.6692886
  48.0089531   6.0394979  63.6214561  47.1859932   6.3861260  63.2767563
  47.7473259   5.4961414  64.3647919  46.9186096   7.1681862  51.9398041
  47.6278458   6.5987563  51.6415367  47.0832558   7.2858214  52.8753700
  25.8532772   6.9874721  36.3837929  26.1373024   7.7890329  36.8231812
  26.6383972   6.4408569  36.3516846  38.6783485   2.6766198  63.2787476
  38.0219955   2.0778215  63.6349411  38.4046860   3.5413778  63.5845795
  38.6149521  61.5041733  18.6462212  39.2680092  61.0279274  18.1334476
  38.3200455  62.2059708  18.0659256  32.4202080  58.6357613  45.0054169
  32.5032310  58.0864792  44.2259102  32.0645409  59.4623756  44.6791725
  53.4099083  68.6061478  66.5077133  53.1063576  68.0953674  65.7572479
  52.8928986  68.2800140  67.2443008  39.5106964   4.7718129  53.0280228
  39.7708893   3.9867456  52.5461502  39.3130875   4.4569397  53.9100876
  32.4239693  46.3366432   2.4515984  32.8904190  45.7125893   1.8955302
  32.2365036  47.0774956   1.8752066  61.9943848  59.0546722  17.4926777
  61.4468460  59.7080154  17.0572758  61.4991035  58.8095474  18.2742424
  37.7386971  41.6970749  86.6270370  37.5333900  40.8470688  86.2377167
  36.9114418  42.1779747  86.6022110  66.7860870  62.7974777  69.3686829
  66.1328354  62.5790405  70.0333405  66.5754929  63.6951904  69.1117935
  44.2060814  49.8245430  70.4578094  43.8960838  49.8683624  71.3623657
  45.1301346  50.0689201  70.5092010  15.5981464  65.1434250  77.1507034
  16.1805553  65.0045471  76.4038849  16.1700706  65.0794983  77.9155884
  15.4253187  25.3179684  75.8883209  15.7384939  26.1978149  75.6785049
  14.9049282  25.0611038  75.1271057  15.2056789   3.1538389  39.0148468
  14.7527542   3.4144692  39.8168221  14.7103786   3.5750549  38.3123627
   1.6091394  13.1349163  31.8134079   2.3321307  12.5107517  31.7506886
   1.0658433  12.9498816  31.0473633  79.2643585  38.8228226  72.2464905
  79.3737793  38.4519920  73.1221313  78.3224640  38.9731331  72.1660233
  12.8956127  52.7561607  75.0052032  12.4951973  52.1633606  74.3692093
  13.8152618  52.8022118  74.7437515  46.5750198  46.2924843  36.1623001
  45.9886627  46.4653740  35.4257393  46.0908890  46.5960464  36.9302177
  40.3865585  52.8712006  65.9914932  40.5030594  53.4310150  65.2238541
  40.8357773  52.0569954  65.7645493  41.6240158  43.0469513   3.3160317
  41.0773315  43.1722412   2.5403576  42.1988564  43.8121948   3.3300610
  25.1408882  68.9186707   5.8552017  24.7118607  68.4015350   6.5369201
  24.4443302  69.4700470   5.4987969   1.1197262  65.9297562  12.1417208
   1.7015493  65.6134567  12.8328571   0.2666307  65.5517349  12.3551702
  11.2085514  65.2889481  50.1887550  10.8860188  66.1742172  50.0199242
  10.9228640  65.0961914  51.0817642   1.0626291  52.0930099  48.7834816
   1.3538747  52.3670273  49.6531487   1.7053559  51.4381294  48.5109596
   6.1060276  33.2829819  54.3955269   6.8824959  32.7389450  54.5272636
   6.1695042  33.5747681  53.4860954  61.8670158  25.7024002  29.8925285
  62.7433243  26.0555706  30.0461044  61.2803841  26.3173409  30.3329144
  60.4144020  40.2736244  88.4688492  59.4980698  40.5306892  88.3664322
  60.7874107  40.9409180  89.0448837  45.9490204  45.7080879  81.5658722
  46.0272255  44.7542381  81.5489960  46.6275864  46.0147171  80.9644089
  48.3544388   5.1742759   7.8747611  48.8348618   4.5186014   8.3802500
  48.7676048   5.1610765   7.0114231  57.9078903  45.2131577  36.2096901
  57.0021133  44.9331055  36.0779190  58.2622795  44.5880547  36.8420525
  83.3313675  39.2864532  11.2157631  83.0793533  38.3942223  10.9777536
  83.2940674  39.2988167  12.1721563   7.8445716  29.5547466  11.8006887
   8.6764002  29.1449089  12.0380211   7.4874687  28.9916534  11.1139317
  30.7672710  53.7378197  36.7990990  30.6730766  53.5037689  35.8757477
  31.7096577  53.6965866  36.9617081  59.6363297  42.1889687  65.4488373
  60.3008232  41.5076180  65.3466492  59.9695930  42.7448273  66.1532440
  51.1334610  25.1435051  56.0662918  51.8364220  25.4180584  55.4774857
  50.3667107  25.0569077  55.4998741  75.4848709  51.1352959  12.5076971
  76.3780441  51.4667435  12.6005144  74.9281845  51.8895531  12.7011709
  36.7442741  55.2574844  25.1845818  37.4874458  54.6780090  25.3523216
  36.0365791  54.6692581  24.9211712  26.9369564   2.9059327  63.5065193
  27.3849316   3.2668624  62.7414818  27.2606087   2.0074813  63.5718346
  42.3295517  57.2129517   8.0160580  42.8654861  56.4808388   8.3210440
  42.3822098  57.8583221   8.7210112  77.9387054  21.3620129   0.1475491
  77.9979477  22.3034782   0.3099239  78.7355576  21.0013027   0.5363305
  16.4466553  60.5732346   9.5717001  15.5247536  60.8017693   9.6904497
  16.6192436  60.7470818   8.6463776  34.4022484   6.5602713  16.3957310
  33.9426689   6.1316438  15.6737204  34.4767265   5.8829308  17.0679607
  40.7225304   3.9931929  27.1445179  40.7416992   4.0288858  26.1881771
  41.6015244   3.7054701  27.3911247   5.8867121  20.6108074  57.7318344
   5.0339174  20.1778812  57.6924820   6.3933253  20.2064438  57.0275192
  31.0049191  45.6576653  86.7285156  30.5308895  45.0470047  87.2929840
  30.3186531  46.1630821  86.2928238  46.2829933  42.4024467  77.1600037
  45.4991035  42.9516983  77.1685791  46.6706200  42.5517273  76.2976303
   1.3114951  46.9151230  27.2350464   1.8187461  47.7182732  27.1172581
   1.3108355  46.5033607  26.3709393  15.2174006  54.2787819  65.9738464
  15.9084978  54.9370537  65.9010773  14.6424856  54.4516678  65.2283173
  22.4969635  41.4083481  77.3553543  22.8738117  42.1891098  77.7611008
  21.5522480  41.5109558  77.4703140  45.5545197   5.2281313   6.0409327
  46.0146103   4.4458365   5.7366905  44.8640289   4.8927178   6.6127295
  20.4629688  52.1701813  86.2559891  20.3994198  51.8460922  87.1544113
  21.1436615  52.8422241  86.2913818  11.0216541  44.8805351  15.8009043
  11.6658173  45.0232277  15.1074181  10.7793732  43.9583397  15.7166920
  62.1172142  47.1609650  74.5501938  62.0964737  46.9445763  75.4823837
  61.5040016  46.5458946  74.1478424  78.4967880  24.0205708  57.1236229
  78.9156342  24.7881775  56.7342834  77.6128922  24.0178738  56.7562714
  43.5219803  64.5178833   4.3915739  43.7729797  65.3371353   4.8182478
  44.2476768  64.3248367   3.7980025  72.9707870  11.5464954   1.7713708
  72.6612091  12.4498892   1.8367410  73.0910721  11.4018517   0.8328394
   8.4986906  71.3397827   9.0459900   8.5881586  71.5109863   9.9834957
   8.3167105  70.4017029   8.9901218   9.6767712  16.9891834  81.4540710
   9.9430771  17.2952766  82.3210297  10.3522625  17.3236027  80.8640671
  62.0828094  31.2799568  64.5249023  61.7268448  31.6001415  63.6960449
  62.2669907  32.0727615  65.0286560  39.9338150  48.0510368  56.7373466
  40.3310013  47.2429161  56.4126663  39.7562637  47.8761559  57.6615334
   1.4392153  13.8622065  58.2870331   2.1942668  13.8567677  57.6987305
   0.8040840  13.2822399  57.8669395  83.0424652  31.4456825  62.4405098
  82.1012497  31.5317631  62.2890587  83.3749390  32.3422623  62.3976402
   6.7465196  56.1115837  46.0888748   6.4784055  56.2154922  47.0018654
   7.2049880  55.2715836  46.0680008  22.9152737  71.2004395  59.7410011
  22.7064724  71.4536057  60.6401901  23.0578899  70.2549591  59.7853546
   4.3088355  61.0414391  74.3497314   3.5217435  61.5840454  74.3017807
   4.4224768  60.7052078  73.4607620  54.5412636   9.2756338  38.9006767
  54.9135437  10.0244093  38.4348717  53.9018021   8.9079113  38.2906761
  52.7731094  58.1196404  40.6239510  51.8528366  57.9747276  40.8437881
  53.2315598  58.0620155  41.4622459   7.9453244  50.1955910  70.9814301
   7.3813038  49.8057632  71.6493683   7.9222455  49.5725784  70.2550964
  13.9596367   3.5327864  18.9061203  13.6868544   4.3681693  19.2855358
  13.1956367   2.9644737  19.0038815  34.9607353  65.1353912  78.8884354
  34.1114845  65.5565872  78.7557602  35.0649643  64.5620270  78.1290817
  18.5801430  65.8809586  11.8430672  18.6116142  65.5397949  10.9492817
  18.2523174  66.7750931  11.7467365   3.5738571  60.0750999  54.3693314
   3.2768664  60.9634895  54.5662804   2.8575525  59.6893845  53.8649864
  72.9449005  51.9522858  86.1442490  73.5346680  51.2978668  86.5186005
  72.5064850  51.4964828  85.4257278  39.6703949  57.5653992  38.4015846
  39.7675133  56.7402992  38.8769951  40.5541763  57.7721100  38.0975609
  47.4490395  22.9484196  59.2602119  47.5442085  22.7427692  60.1902008
  47.1002541  23.8397064  59.2464752  16.0334587  38.7623062  78.5573044
  16.1814709  37.8341064  78.3762665  15.8714132  38.7996063  79.4999466
   7.7768168  42.7906189  80.8649521   8.5019169  42.2170525  81.1129150
   8.0447044  43.1664658  80.0263824  84.5372314  13.5400209  74.2209167
  84.2414398  12.7104797  73.8459473  85.4372559  13.6362028  73.9095688
  51.8381233  22.4749966  71.3557663  52.7244225  22.8365078  71.3597870
  51.9567909  21.5476093  71.5609589  71.2646790  70.4321365  50.0873260
  70.5746841  70.6390533  49.4569893  71.9782486  71.0306778  49.8664169
  23.1750755  15.1317148  15.8619862  23.6465893  14.2989101  15.8434725
  23.6558609  15.6927414  15.2534428  16.5089626  49.9477577  66.4238129
  15.7195311  50.2251244  65.9589539  17.2305756  50.2627144  65.8794708
   5.2439137  34.3830490  29.0763187   5.1017046  34.3097076  28.1325874
   4.6749539  35.1028671  29.3490467  81.5409470  29.5152130  15.1265593
  80.8623810  29.8442936  15.7160330  81.8602982  28.7184143  15.5500727
  74.9889984  11.9155025  84.3543854  74.9533539  12.5603075  83.6478500
  75.7531509  11.3769503  84.1488113  61.1332169  21.9740562  29.2143154
  60.6257973  22.5704651  29.7648201  61.9095497  22.4771175  28.9684219
  21.4868336   5.6283293  58.7850227  21.2811432   5.6818619  57.8517189
  22.2158813   5.0100489  58.8345299  14.6887312  21.6676826  79.6753464
  14.5429239  22.4501114  80.2071152  14.9377241  20.9922752  80.3062668
   5.7064819  66.1231232  78.0104599   4.9071107  65.6418076  78.2239380
   6.1025229  65.6246643  77.2956696  64.4813538  17.8170986  17.7569027
  65.0235977  18.4836845  17.3351555  65.0305634  17.4716816  18.4606724
  25.7819138  11.4382391  83.9586105  26.0216656  12.1450424  84.5579300
  25.4015331  10.7647638  84.5224991  86.8521118  62.6060066  35.8407555
  86.3474808  62.1620331  36.5222740  86.5166321  63.5024910  35.8399696
  47.7060623  13.7776432  38.0820198  48.5596771  13.9352045  38.4854393
  47.3614044  13.0122032  38.5419579  36.6231842   1.4499018  50.1618843
  36.9502831   0.6871222  50.6387520  35.9306564   1.8027601  50.7205696
  20.2457371   7.7430487  81.5468826  20.1524563   7.5186806  80.6210403
  19.6881351   7.1130195  82.0033646  84.3563385  41.4698753  42.3793259
  85.0783005  40.9018555  42.6483231  84.5435257  42.3098602  42.7983932
  71.6726685  18.7133446  36.5692863  71.2685471  17.8580036  36.7152596
  72.1827774  18.8757877  37.3627815  70.0641098  40.6811714  73.6016769
  69.5741882  40.0032463  74.0671005  69.5222092  40.8882675  72.8403091
  59.3045578  29.8486595  77.0178757  59.9194717  29.7061100  76.2983017
  58.5842705  29.2436199  76.8408127  33.9031448  27.8393002  85.3260574
  34.5875015  27.1822910  85.4534454  34.0577087  28.4832478  86.0171967
  75.2775192  21.4703999   1.9241232  74.6238937  21.6262207   1.2424163
  74.7827148  21.5050907   2.7427790  55.6045380  59.3268433  75.4676743
  56.4859085  59.6028404  75.7191620  55.0228119  59.9143753  75.9499893
  76.6715317  14.5665760  57.0377159  75.8222122  14.8067732  57.4081001
  77.3113708  14.9376860  57.6452675  39.9794044   5.8929806  31.6327057
  39.8905792   6.0584340  30.6941071  40.8615417   5.5344501  31.7302818
  79.7665100  64.6323624  60.8186302  79.4392319  65.0129471  61.6336594
  79.9045029  63.7078056  61.0244789  11.7936392  46.0836563  61.5835800
  12.5678253  45.5662041  61.3619690  11.6629610  46.6552353  60.8269768
  57.4518318  40.8522530   8.1963978  57.7221527  40.6110382   9.0823860
  57.0216255  41.7010307   8.2999754  75.4223251  68.0000534   9.2896833
  74.7683792  68.1400528   8.6048527  75.3877945  67.0597229   9.4652004
  32.5648193  71.1243134  89.0310364  32.9209747  70.5914841  89.7420120
  31.9555645  70.5419312  88.5773163  16.6515007  30.4018307  86.9673767
  17.5931721  30.5671387  86.9209061  16.5311413  29.5712166  86.5071335
  21.1871071  36.1062965  24.9918842  21.7319031  36.8403778  25.2757092
  20.7054710  36.4434853  24.2365284  20.4851418  38.2498322  11.6197815
  20.8567295  38.0668983  10.7568283  20.8707123  39.0883293  11.8737278
  19.2532730  46.6719284  30.3426056  18.9568443  46.5237236  29.4446087
  19.6400681  47.5473328  30.3257542  31.9286175  54.6515617  18.0219364
  31.0869961  54.8491554  17.6110077  32.2886162  55.5075493  18.2541313
  78.9611664  21.7243214  68.7935028  79.6280670  21.2237835  69.2635422
  78.9597702  22.5811653  69.2201767   0.6731238  47.5710602   2.2348528
   0.8419377  48.4672699   2.5256157  -0.0392176  47.6550674   1.6010195
  59.8329697  43.6356239  32.5888138  59.9313087  43.0984879  31.8026543
  60.3407326  44.4257469  32.4041061  55.4122086  56.1668091  47.2628593
  54.7646370  55.7210388  46.7168083  55.7391396  56.8791924  46.7134399
  13.0306025  26.8123665  78.3543320  12.7304840  26.2961426  77.6062241
  13.9796534  26.6882534  78.3656998  14.7904358  50.1709595  37.9098740
  15.1298170  49.5058556  37.3109665  13.8390961  50.0827255  37.8515625
  12.2978926  67.0520248   5.6380172  12.0168133  67.7705231   5.0714579
  12.4918518  67.4702835   6.4768691  78.6809158   5.5363150  41.4251862
  79.0204926   5.0383558  40.6815758  79.2134781   6.3314543  41.4442291
  39.1066170   4.0588727  66.8085861  39.2604370   4.8513927  66.2943039
  39.5286980   4.2335215  67.6497650  61.1708984  70.8672791  70.3038254
  61.9592705  70.8361893  70.8457947  61.4071770  71.4341583  69.5696259
  81.2988663  43.6340790  39.3473663  81.0237350  44.5237999  39.1261520
  81.1118927  43.5510788  40.2824516  58.1327248  56.1800957   4.0495124
  58.7293701  56.5302620   3.3879781  57.2682228  56.4912071   3.7810421
  79.4797058  63.1533165   7.7070794  79.4044647  62.8000679   8.5935249
  78.6774597  63.6603584   7.5824156  19.5826817   4.2873907  41.6655006
  18.9036827   4.6046066  41.0700455  20.1677685   3.7730265  41.1093216
  33.1849518  69.5969696  76.6331177  33.9159813  69.3319092  77.1913071
  32.4082870  69.4646912  77.1767426  51.1879196  18.1778603  34.6318359
  50.8494606  17.4439697  34.1189194  52.0560760  18.3459721  34.2653961
  63.1441154  31.2996197  21.3134136  63.9825096  31.4680386  20.8833408
  62.8814278  32.1493759  21.6671638  43.0455780  13.3492966  15.7200851
  43.0423927  13.5107059  16.6635723  42.3789101  13.9422503  15.3734007
  83.7778244  44.4151917  65.4777145  84.4672699  44.2556953  64.8331604
  84.1593170  44.1368980  66.3103333  30.3172474  10.9459124  61.9039078
  30.6295834  11.6987686  61.4020271  29.6929531  11.3163242  62.5278358
  71.6164856  45.0285110  11.1039267  71.5403900  45.7597427  11.7169037
  72.3021317  44.4740906  11.4764080  45.3767357  62.2183380  55.8751564
  44.8244858  62.7064781  56.4858704  45.2191925  61.2993851  56.0918045
  60.6709747  43.9687271  77.0561829  61.2784195  44.7073174  77.0977554
  61.1447067  43.2962608  76.5666962   3.9947815  55.2396088   6.1933570
   3.5153387  56.0139465   6.4879160   3.3964891  54.8040276   5.5862751
  56.4047203  65.7928543  89.0519638  56.4779854  65.4866791  88.1480179
  56.7926979  66.6678238  89.0406799  68.8547668  62.5338707  43.7254257
  69.1706009  63.1367188  44.3985214  68.0680695  62.9539375  43.3777428
  54.3296967  55.4227180  73.0910339  55.1953659  55.1801758  72.7623749
  54.4364586  56.3196106  73.4079208  58.6164627  38.3570366  84.8666992
  59.2225990  37.6387825  85.0481873  59.0864716  39.1431465  85.1448212
  40.4000664  54.3926811  16.3014145  39.8354301  54.7004967  17.0104046
  40.8867226  53.6619949  16.6828556  64.3229141  50.5872154   5.6743889
  63.3674469  50.6121368   5.7263160  64.5288773  49.6710320   5.4888659
  23.3514137  67.9268723  13.3589649  22.8529968  68.5300293  13.9103355
  23.2323494  68.2610779  12.4699402  32.5415421  54.6096764  41.5788574
  31.9589291  53.9957581  41.1317596  33.0637360  54.9985466  40.8772011
  38.7874718  18.0823727  82.9623566  38.3025284  18.1972294  82.1451263
  38.7586746  18.9427357  83.3808975  21.4303913  40.1122246   6.8660216
  21.7052250  40.9915428   7.1258287  20.6169186  40.2492065   6.3805003
  64.5409622  24.5334167   9.9911375  65.4476776  24.2333355  10.0548506
  64.1431732  24.2717781  10.8215237  10.1985435  56.2018013  13.5141735
  10.2591343  55.4590492  12.9134378   9.2590199  56.3223495  13.6519995
  42.9196587  51.3744164  26.1010876  42.5998993  50.6119194  25.6188202
  43.6138535  51.7334938  25.5484695  83.4720993  29.3365822  20.0146999
  83.8888931  30.0431290  19.5214329  83.3378525  29.7018337  20.8892288
  -0.2369070  43.3697128  28.8062439   0.0810582  43.9051819  28.0793285
   0.3407864  43.5903740  29.5368690  36.5695877   1.9182245  65.0823746
  36.0810890   1.5681983  65.8274155  36.6784706   2.8478522  65.2827988
  74.6567383  50.1511765  63.3880768  75.1319580  49.8601151  62.6098213
  73.8327789  50.5007668  63.0487862   0.1627681  51.8288383  22.2266045
  -0.3747887  51.3884201  21.5683537   1.0315433  51.4399071  22.1256371
  60.8078690  19.1921234  66.0196991  60.5415611  18.8710651  66.8812332
  61.1084480  20.0866795  66.1798706  23.6243191  25.6569729   3.8145010
  24.0117435  25.8709030   4.6632457  22.7033787  25.9025097   3.9028742
  85.8183365  27.9283066  48.6493492  85.5838547  27.8533516  47.7243462
  85.1030579  28.4320850  49.0376968  63.1955948  13.6551952  27.7885094
  63.5361366  13.6470232  26.8939724  62.8041725  14.5230370  27.8878613
  14.1997519   0.3571319  64.0645599  13.9228334  -0.1621650  63.3096619
  13.3878641   0.7262288  64.4121780   8.8790369  51.9838219  20.2845154
   8.3793821  52.7559662  20.5497837   9.7255869  52.3312111  20.0036163
  68.1307373  68.3548431  85.3352280  67.4104385  67.7422562  85.1864471
  68.1657562  68.4569321  86.2863235  32.1163635  68.8253632  38.2855644
  31.3752651  69.0088272  38.8629189  32.5628815  69.6670837  38.1941528
  72.3684616  41.5975151  27.1869564  71.9480362  41.4827156  28.0391884
  72.3578873  42.5433311  27.0401363  25.2163830  62.1457901  70.7461700
  25.6193008  62.9914589  70.5493698  24.3160934  62.2305870  70.4322891
  37.0995827   5.7713509  38.9398804  37.3214226   6.5172358  39.4972649
  37.2537003   6.0842581  38.0484962  26.2820683  20.5726700  84.4998322
  26.1215649  21.4533138  84.1608124  25.8980656  20.5798779  85.3766022
  16.4392662  46.9913864  39.2886963  16.0754147  47.6976624  38.7548256
  17.3870850  47.0782700  39.1870995  44.2533951  52.0710258  86.6582184
  43.3217926  52.2895927  86.6821671  44.3282433  51.2822800  87.1953506
  10.7086554  57.1088371   2.2032883  11.2700539  56.3339119   2.2268703
  10.7183924  57.3838425   1.2864952  67.3479385   5.1185894  11.5858421
  67.9630280   4.3875952  11.5263634  67.7201538   5.6908207  12.2568417
  17.4925175  66.1761856  63.5221863  16.6296463  65.8569260  63.7863121
  18.1092548  65.6371994  64.0175247  63.5773773  66.5810242   5.5324211
  62.8583260  66.2553177   6.0738187  63.2311592  66.5660934   4.6401534
  38.4286766   2.5182705  19.3947029  39.1269608   3.1212289  19.1396084
  38.3972778   1.8748683  18.6866913  16.1552792  45.8384590   8.0776711
  15.7276678  45.6151962   8.9044323  15.4338560  46.0392532   7.4814653
   0.2589023  23.3520794  46.1520386  -0.3053308  23.8405762  46.7514114
   1.1162266  23.3506775  46.5777435  19.5993824  10.6990328  58.7397346
  19.9685478  10.0489025  58.1420097  20.2901402  10.8508959  59.3847351
  56.5518112  15.4887142  64.7027206  56.7329597  16.4285984  64.7085419
  57.1321640  15.1371183  64.0275879  56.5843544   0.1809232  13.2733774
  56.8268509   0.6150324  14.0912867  57.0309296   0.6849877  12.5931396
  10.2986755  39.0790749  42.5698700  10.3531647  39.8692589  42.0324020
  11.1950092  38.7441216  42.5948524  22.2111511  56.6750259  49.2308578
  21.3350925  56.7608910  49.6068649  22.7085609  56.1915588  49.8904610
  10.2332134   8.6250811  52.4534721  10.5220127   9.1792631  51.7284126
  10.9192400   7.9627557  52.5366859  77.6165237  64.6886673  30.2298336
  78.3313751  64.1979370  30.6352997  77.5020752  65.4542999  30.7928104
  33.0295219  12.2033968  14.2895041  32.7883835  11.6311016  13.5611076
  33.5031433  12.9268751  13.8790255  61.8491859  48.0228691  64.2943649
  62.0481606  48.6317520  63.5830994  61.2969856  47.3539467  63.8895836
  82.4614334  52.4848328  54.6867981  81.9905167  52.9106216  53.9704399
  83.2136002  52.0691261  54.2652855  82.9131775  56.5199356  38.0251732
  82.0671768  56.8691864  38.3054199  82.9033737  55.6075668  38.3145218
  47.5798759  65.5358047  21.7467670  47.3131218  65.9829865  20.9435863
  47.7822762  66.2433090  22.3588982  24.5067463  26.5805855   1.4033657
  23.8104477  26.3022823   1.9983013  24.7783546  27.4360237   1.7360591
  25.2935791  45.3929214   0.7048256  24.4400845  45.1338768   1.0522060
  25.5281239  46.1750374   1.2043445   9.7897387  29.2577171  56.2133865
   9.3496866  29.9897041  56.6455688  10.1939058  29.6457157  55.4372826
  35.6887283  47.7011261  84.2646484  35.5291100  48.6372185  84.1442871
  34.8162117  47.3201942  84.3638535  36.7745361  45.6079140  81.3412399
  36.8624039  45.8823929  80.4284592  36.0956154  44.9333725  81.3242111
   9.0850372  50.6502724   9.3335886   8.5191517  50.4112892  10.0676813
   9.0819435  51.6074638   9.3305130  41.3900490  60.4931793  12.3601198
  41.1014671  59.8804092  13.0364828  40.6101952  61.0093422  12.1560555
   1.1370744  20.9408913  54.9204254   1.0187659  21.0900898  55.8584976
   1.7540680  21.6192799  54.6459465  39.1227531  65.2371292  24.7339344
  38.2086678  65.5005264  24.6276245  39.6032066  66.0621033  24.8033581
  30.4664803   3.7985954   6.9665036  30.0727959   2.9373879   6.8266234
  29.8754749   4.4070187   6.5229211  72.7051697  50.0569191  39.4839516
  72.4450226  49.8275490  38.5917931  72.2135315  49.4522514  40.0397415
  42.1228371  36.6132126  85.9568863  42.3287125  35.7176857  86.2249985
  42.8615799  36.8744583  85.4071274  66.6240234  69.2685394   2.4637351
  66.1827621  68.8113785   1.7478327  66.2770462  68.8616943   3.2576551
  66.9347076  38.6168098  44.9176826  66.7446823  38.9321823  45.8012352
  66.5677109  37.7330589  44.8947220  61.5369911  57.3545113  19.8813286
  61.2253113  58.1992645  20.2061100  62.3029633  57.1583252  20.4207973
  54.3423042  51.7727966  25.7706070  53.7910004  50.9964676  25.8686333
  54.5948410  52.0017128  26.6650639  41.4748383  63.2896957  10.7432117
  42.3610382  63.1662331  10.4031582  41.5973015  63.4470901  11.6794071
  51.8649788   2.7835994  24.6589966  51.0290413   2.8242424  24.1944675
  52.5254784   2.8669333  23.9712276  35.2074127  32.4016342   0.5965295
  35.2405357  32.4462891  -0.3590544  35.6800270  33.1808548   0.8892427
   1.6172768  53.6326180  30.9449291   1.6290071  52.9160843  30.3103638
   2.5408571  53.8088112  31.1243401  74.8489990  16.8210049  79.3682938
  73.9004822  16.7749557  79.4884186  75.2023010  16.8422852  80.2576523
  81.0335770   8.7538795  37.0075493  81.8958435   8.3985596  37.2231560
  81.2049866   9.3984280  36.3209572  48.7200241  33.0331345   7.8034053
  48.9209785  32.1938744   7.3892941  48.1205750  32.8112106   8.5158968
  86.4715729   6.3252344  63.8817863  86.4637909   5.3681321  63.8930244
  86.8472137   6.5716372  64.7270203  60.9485893  44.1867065  71.6991348
  61.5592041  44.2555580  72.4330521  61.3757896  43.5869141  71.0875931
  38.3004837  23.6661015  80.3549957  38.7088737  22.8005829  80.3730087
  37.5256767  23.5769463  80.9099350   7.0361657  22.6799164  14.6378460
   7.7754545  22.5703640  15.2359123   7.2689390  23.4411011  14.1062031
  70.5191345  64.0522537  12.0927382  71.2978363  64.0349884  11.5363569
  70.8394241  64.3511887  12.9437876  60.9506264  46.3976784  44.6580620
  60.6113930  46.7471809  43.8340530  60.6454468  47.0143585  45.3234940
  16.1653042  57.3796921  28.5019341  15.3503132  57.7250481  28.1375866
  15.9045954  56.9717827  29.3276901   6.8813043  13.0857487  47.3702087
   6.2446179  12.4205713  47.1086731   7.6512399  12.5864210  47.6424255
   3.5436747  62.8234291  80.6139603   3.4649410  63.5364914  79.9802628
   2.8129597  62.2398071  80.4098206  22.1348324  17.3691483  12.2559309
  21.8055019  17.7673187  13.0616808  21.3574753  17.0018196  11.8351936
  49.7476463  51.0794411  34.3481255  50.5834618  51.1580048  34.8079834
  49.9890938  50.9873238  33.4264679  58.4451485   6.8923464  83.6829758
  57.8297043   7.3520837  83.1119232  58.8494415   6.2335691  83.1183624
  66.5842667   1.3789508  32.0264740  66.5574417   0.4344619  32.1796188
  66.7116241   1.7590107  32.8957100  -0.1503028  68.8404846  10.0258255
   0.4539592  69.3927460  10.5219164  -0.0214031  69.1030350   9.1144066
  84.4802475  47.8860512  27.2869759  83.6788483  47.9388542  26.7662067
  84.2533340  48.3021507  28.1186028  38.7206306  68.1701126  23.7528458
  38.3906746  68.0905533  24.6478500  39.4265480  68.8136673  23.8141460
  85.4632797  46.9056473  14.6366405  86.4045715  46.8667641  14.8060017
  85.3287811  46.3155975  13.8950338  11.5091276  63.7750282  78.9944916
  12.1955729  63.1168175  79.1030197  11.9820786  64.6033554  78.9143372
  41.0881958  61.8446884  31.3242168  41.0665970  61.0953331  30.7290401
  40.5399284  62.5041313  30.8990459   4.3727341  35.0110474  59.9094887
   3.8285403  35.1033630  60.6915131   5.2498736  34.8312798  60.2479286
  21.3803730  56.0140877  46.1208420  21.8261356  56.5776215  46.7532654
  21.7240372  55.1381683  46.2966003  70.7561646  21.7460842  35.9617767
  70.7403183  22.6758957  35.7349892  70.0362854  21.3646793  35.4592476
  75.4486771   5.8244805  26.7584820  75.8571320   4.9599409  26.8028793
  74.6920929   5.7621555  27.3415089  60.0508957  28.6849079  54.7014351
  59.3353271  29.2454700  54.4014969  60.4824524  28.3964901  53.8971939
  27.2961464  22.5006752   1.1977837  27.7915344  22.2114086   0.4315295
  26.8546333  21.7107506   1.5097420  73.7248154  64.8124695  58.6663132
  73.4083710  65.5737991  59.1525993  74.3592606  65.1713333  58.0458870
  59.2906647   4.8917413  37.3762703  60.1693649   5.1701288  37.6343689
  59.4358139   4.2762966  36.6576653  86.4945145  62.1160927  44.1822052
  85.5881042  61.8108406  44.2206345  86.8011169  61.8476906  43.3160706
  64.8702316  19.2576942  11.5537033  64.9930801  19.3292027  12.5002890
  63.9693375  18.9507637  11.4516153  50.1265450  13.6326647   5.0135102
  49.2989960  13.5095053   4.5485086  49.8882065  13.5979271   5.9399109
   1.6031994  68.4927063  32.7304420   1.8540841  69.3135605  33.1540947
   2.3281431  68.2984619  32.1363373  37.8599777  70.6075516  21.9921093
  38.5702667  70.5856018  21.3508301  37.4268303  69.7590637  21.8988857
  63.3427124   5.1528163  25.9391594  63.2327690   5.7872081  25.2308578
  62.8391914   4.3891954  25.6570530  17.3129711  42.5240135  13.3109550
  17.6285801  42.9386711  14.1138754  18.0582199  42.5644112  12.7116184
  28.4645844  18.8625298   9.6481018  28.9746284  19.6725101   9.6525059
  29.1089306  18.1746483   9.4811592  53.4216423  47.0116997  71.6997986
  52.6610489  46.9175987  72.2732773  53.6697731  47.9326744  71.7802353
  58.2545433  63.7140884  84.7974396  59.1267662  64.1039429  84.7385178
  58.3927002  62.7873421  84.6017609  78.3116684  48.4512596  64.9440842
  77.9133453  48.5090408  65.8125534  79.1676483  48.0519409  65.0992661
  63.7449608  24.3092136  17.3538399  63.5886307  23.3819809  17.5328255
  63.1741753  24.7712193  17.9678326  62.4806099  20.0841122   4.8803687
  62.5283127  20.8924026   5.3908830  61.6127968  20.1064034   4.4770865
  65.0985870  31.0052757  31.7831230  64.2644730  30.6567116  31.4685040
  65.6614380  30.2361336  31.8717136  50.2176933  56.1308479  61.8386269
  49.9902229  55.3750954  62.3802223  50.5649300  55.7512321  61.0314369
  82.3238297  50.7179222   8.1025686  82.3505859  49.7622986   8.0546017
  82.6165848  50.9214363   8.9908857  23.4309044  10.4024200  25.2910213
  23.5586090  11.2660875  25.6834526  23.3687534   9.8068457  26.0377884
  74.8738174  25.0206661   9.6922312  74.9547043  25.8302555   9.1879969
  73.9302826  24.8759041   9.7631130  28.9674702  52.7279167  74.4518585
  29.5771961  53.3860550  74.7855072  28.8946629  52.0880241  75.1600037
  44.7542877  51.8037872  60.0962639  45.2798653  52.1363602  60.8238564
  45.0373154  50.8953552  59.9919548   2.6324091  71.0606918  33.9046631
   3.2984238  71.3163757  33.2664795   1.8288184  71.4760361  33.5916748
  54.5302734  50.3579636  48.4927025  53.8873825  49.6518898  48.5589333
  54.0677376  51.0610275  48.0366364  49.3491707  64.4031448  12.5870609
  50.0576591  64.4262695  11.9438353  49.0679703  65.3146515  12.6665211
  79.1456985  35.3982658  20.8598728  78.5850067  34.6600952  21.0985432
  79.7095184  35.0562553  20.1660690  70.1644363  58.1324463  86.5963669
  69.3831406  58.4403229  87.0557480  69.8399963  57.4626694  85.9944000
  10.8340025  44.1190262  79.8448486  10.6234121  45.0389366  79.6846848
  11.6934204  43.9963455  79.4416351  24.4573097  67.4950256   8.2816696
  25.1708469  67.7052231   8.8840933  23.6615982  67.7075958   8.7694130
  18.1137543  70.8909683  51.6399269  18.9116344  70.4443207  51.9229889
  17.7250175  70.3007202  50.9943848  47.4017830  68.5249786  57.1043968
  47.3562546  68.7923660  58.0223618  46.6296463  68.9214554  56.7008667
  13.4081545   9.5462685  15.6522179  12.5666056   9.9110231  15.9260473
  13.9180250  10.3057327  15.3703003   5.2439218  62.3496666  20.2996540
   5.7695432  61.5518723  20.2406845   4.6730208  62.2051239  21.0542469
  12.0140886  27.7386475  19.4784756  11.5170269  28.5564728  19.4964619
  12.6090879  27.8035202  20.2254677  72.1429443  40.3652992  53.2553139
  72.7544022  40.2492256  52.5280724  72.5555344  39.9110947  53.9899559
  36.4796219  66.6924667  68.3974075  36.8356628  65.8081131  68.3114624
  37.2472267  67.2635803  68.3682632  40.2992134   5.3193364  20.5242805
  40.4013977   5.3660312  21.4748650  39.6448898   5.9876232  20.3206100
  57.3780327  62.4418716  38.4125633  56.6347618  62.8131485  37.9372406
  57.2635727  62.7473335  39.3124657  51.4584312   0.3858464  49.7760429
  50.7872391   1.0195085  49.5226479  51.8477974   0.7536976  50.5693321
  36.1877708  55.6789284  43.0850258  36.0456009  56.5756340  43.3882408
  37.0660591  55.6911354  42.7046394  11.3439388  39.0006218  35.2802124
  11.3725805  38.0896988  34.9875793  11.5580416  39.5101051  34.4986649
  27.7987614  51.9771996  80.7311554  28.5339832  51.4028130  80.5172424
  27.9671249  52.2567215  81.6310196  30.1881542  26.1731472  68.3265610
  30.9055882  25.9175854  67.7467270  29.5923786  25.4240475  68.3149567
   9.2175598  18.1613789  64.4811630   9.6887302  18.8152981  64.9975128
   9.3957644  17.3321037  64.9247589  78.5096283  50.7550812  25.4681644
  78.8605423  50.7426720  26.3586349  77.9877396  51.5564651  25.4275360
  82.8367691  43.4970398  13.8648758  82.7491684  42.6283150  14.2571373
  81.9377136  43.8159027  13.7858038  65.9499435  55.6879692  83.3665924
  66.8273087  55.3397751  83.2077713  66.0276260  56.1653824  84.1925888
   3.8734100  16.7081585  47.6122818   2.9388978  16.8743362  47.7359924
   4.2720985  17.5783157  47.6019249  32.4849281  59.9929810  49.5949097
  32.3415070  60.9363441  49.5192070  33.1003571  59.7870598  48.8912964
  27.8455257  57.7175293  52.3861961  28.4394531  58.4680176  52.4019928
  28.4228840  56.9545555  52.4137535  68.8273773  19.5533504  21.2638893
  67.8745117  19.5313282  21.1756401  69.1080475  18.6627350  21.0535049
   7.7996330  23.5711842  33.4064293   7.3288836  24.3833160  33.5936966
   7.5581999  23.3567257  32.5053444  16.1022663  45.1453018  16.0166550
  15.3807726  44.5175323  16.0564861  16.4420891  45.1766853  16.9109516
   9.9000101  20.5317364  66.0556412  10.0375147  20.5587234  67.0025330
  10.5453634  21.1440582  65.7023544  67.3461456  30.4384651  59.5079117
  66.9527969  30.2321510  60.3558159  67.8774872  31.2172375  59.6735077
   0.6019871  24.3284397  71.0684128   1.4961953  24.0149727  70.9329071
   0.0942702  23.5359955  71.2430191  52.9048309  43.5863876  62.6667252
  52.5570641  43.3693962  61.8017349  53.8425751  43.4063797  62.5999107
  72.0282135  58.0559616  53.9358025  72.6737518  57.3503532  53.9761963
  71.8006668  58.2250366  54.8500595  46.5517616  52.7689896   9.3150578
  45.7105103  52.5458679   8.9166269  46.6896057  53.6878204   9.0848780
  32.3611107  62.8960686  41.7077789  31.6992283  62.8213272  41.0203552
  32.9870911  63.5360641  41.3689804  69.8122406  28.5344868  54.2351494
  69.1597366  29.2168465  54.3927841  69.4907455  28.0695133  53.4627075
  60.9100456  67.4522095  29.9990196  61.7849693  67.6496429  30.3333302
  60.4346046  68.2800674  30.0686169  67.4034195  58.7727737  41.6942062
  68.1580734  59.1483307  42.1477432  66.8088531  59.5118866  41.5660019
  71.4693604  19.3915901  42.7802773  70.5758286  19.6946754  42.9414482
  71.4281769  18.4442501  42.9109802  24.4375286   6.9578109  72.1309586
  24.8386879   6.2403765  71.6404572  25.1774426   7.4302850  72.5124359
   1.6125396  37.9340858  33.7630386   1.8234098  37.3620682  34.5009804
   1.2250595  37.3505020  33.1107178  24.6951599  11.1889591  29.9262676
  23.7562656  11.1665649  29.7413158  24.8259945  10.5062628  30.5843258
  58.1039009  40.6054764   5.3149543  57.5849228  41.3230705   4.9516940
  58.1610603  40.8008080   6.2502675  30.6084385  37.0662689  68.7592773
  30.4209404  36.9558334  67.8271408  31.5604839  36.9900284  68.8227615
  19.9923954  61.3891258  50.7110214  19.7919693  61.8206444  49.8804474
  20.4833984  60.6061630  50.4617844  75.3050766   4.5949926  30.0764503
  74.7933731   4.9101672  30.8214703  74.6644516   4.4904103  29.3729649
  66.9357986  68.7676697  87.8298645  66.2287750  69.4108658  87.8813553
  66.5106964  67.9294281  88.0111847  76.5372772  35.2558174  73.9596710
  76.7536011  34.8659744  73.1126404  76.0074387  36.0227242  73.7420502
  40.0206070  55.3904572  72.4479218  39.8173714  54.5882874  71.9668274
  40.3670387  55.9866562  71.7840271  16.1910477  49.6371231  85.6064758
  15.9009218  49.6806870  84.6953430  16.1216316  48.7104225  85.8358917
  13.8856535  40.9699745  73.3229523  13.4600677  40.3350639  72.7467575
  14.0614853  41.7239876  72.7601166  26.4596939  53.2217064   5.8484654
  27.2136974  53.6063576   6.2954040  26.3776226  53.7266197   5.0394173
  39.0767097  13.0737944  17.1763172  39.6457405  13.2093334  17.9339886
  38.8419991  13.9571390  16.8919849  62.4792824  49.6409416  31.9473801
  61.5956459  49.5095329  31.6036510  62.5311508  49.0571899  32.7041969
  20.3055210   0.6923704  31.0222473  20.9877338   0.3443393  31.5964355
  19.5154800   0.2124677  31.2707615  71.5881882  15.5620537  70.4778137
  71.1388779  16.1939068  71.0391617  71.1588364  15.6499233  69.6268311
  13.4716959  12.9397993  61.2663651  14.3332653  13.1562910  60.9099083
  13.5287409  13.1775560  62.1918106  71.3406754  11.1917181  59.0013313
  70.5696716  11.4632654  59.4993668  71.9885330  11.8756065  59.1710663
  86.1825256   9.5468349   5.7702966  85.7269058   8.8542528   6.2488012
  86.4028091  10.1951027   6.4392195  76.8699036  65.9099655  71.8876114
  77.3432617  65.1446915  72.2139664  77.4055328  66.2315979  71.1624298
  10.5652809  45.2984467  36.5709457  10.4932051  44.3657608  36.3681297
   9.8888569  45.4531479  37.2303009  31.0545101  52.4314003   4.1281762
  30.5472202  51.7526932   4.5734248  31.8740540  51.9990807   3.8880122
   1.6413945  53.9629974  79.3020248   2.2436845  53.3196564  78.9284058
   2.0100622  54.1651001  80.1619492  56.9617119  63.7337914  23.9181004
  57.0594063  63.5137367  22.9916744  56.8611946  64.6856384  23.9288769
  55.5220184  15.2506666  39.8798256  55.1619148  14.5111628  40.3694115
  54.7844696  15.8521671  39.7776070  32.4764214  47.6828690  72.2945938
  32.6251602  48.6284409  72.2928925  33.3153076  47.3079720  72.0263443
  24.3779354  63.1342735   0.6047517  24.5212898  63.9103165   1.1464537
  24.6630096  62.4033813   1.1531657  76.2066116  13.8315678  61.5093575
  75.6403046  13.4803867  60.8221855  75.8809891  14.7193880  61.6576118
  68.7868423  59.8184700  34.7965508  69.1132278  60.2921638  35.5616112
  69.4251938  60.0060692  34.1084061   6.3922095  69.0671387   8.0714302
   5.8942676  69.8756027   8.1925526   5.7349710  68.4152451   7.8278971
  77.3913498  48.7011833  82.9763565  78.3349915  48.6071243  83.1064072
  77.1032257  47.8379097  82.6797562  85.6781387  51.0602150  79.5769119
  86.4388351  50.6109390  79.2084961  85.6261368  51.8822784  79.0893250
  46.6585007  16.6374283  82.6067505  45.8400993  16.5004539  82.1295853
  46.9864388  17.4767208  82.2838287  47.6766281  52.0198059  77.1153870
  48.4636154  51.4963875  77.2667694  47.3101921  51.6717453  76.3024826
  58.5212669  36.1175766  38.7403717  59.3496590  36.2218246  39.2084846
  57.9482536  35.6714935  39.3639908  73.5708160   4.6923561  16.6628704
  73.4389114   3.7673366  16.4550934  74.1526337   4.6865101  17.4229279
  12.8879051  41.0984917  49.6218567  13.4843321  40.9677315  50.3590202
  13.1341228  40.4214935  48.9915543  15.7502880  14.8632097   8.6321554
  16.4028816  14.8983831   7.9327869  15.9846716  15.5854225   9.2149973
  29.9599495  21.1011562  66.8411789  29.2743092  21.6585426  66.4731445
  30.5420074  20.9187546  66.1035004   7.5270562  17.0067501  76.7116013
   7.8082137  17.6284904  77.3828812   6.8311253  16.5003910  77.1305466
  59.0745354  59.9326172  41.3379173  59.5133858  60.7832870  41.3398666
  59.7854233  59.2961922  41.4142876   1.9578189  17.2791214  28.7294788
   2.7258041  16.9526367  29.1983490   1.6091044  17.9700127  29.2927704
  29.2316208  40.5673561  64.2244949  28.3081207  40.5934296  63.9740944
  29.2770767  39.8928986  64.9021912  46.9927444  53.4034996  50.1544533
  46.3529053  53.4680557  49.4454613  46.5982132  52.7941589  50.7783775
  16.4243431  22.2178555  86.3342743  15.7843399  21.5644188  86.0520630
  16.1610394  23.0207996  85.8846283  58.2144165  42.8318939  34.5077820
  58.8773041  43.0163651  33.8423576  58.5948524  43.1604347  35.3223763
  56.4609261  71.4592743   8.5289154  56.3588448  70.5137863   8.6378012
  55.8729362  71.6821213   7.8072228  11.5116835   0.4288352  12.6816559
  11.6719141  -0.5072839  12.5623283  12.3851604   0.8187119  12.7172461
  25.8325272  64.2374115  19.8674145  26.3044395  64.2134247  19.0349770
  25.2153435  64.9628220  19.7720375   8.1167593  42.3123817  57.5329094
   8.0596724  41.6513023  56.8430214   7.2103229  42.4508209  57.8075714
  42.8550644   5.2166319   1.9840984  43.7340317   5.2986584   1.6140723
  42.3894920   4.6472249   1.3715224  82.4637070   0.3095473  86.1892471
  82.6750717  -0.0913738  87.0323486  82.2804718   1.2253832  86.3987732
  24.0700054  51.1605568  69.3371735  24.3460789  51.8266182  68.7075882
  24.8582325  50.6419296  69.4982834  59.2586975   7.7469406  45.5655632
  59.1842079   8.3100777  46.3359947  59.8351135   7.0352554  45.8439217
  54.7376060  11.7622004   0.1603969  54.9279213  12.0863705   1.0406953
  55.5981293  11.6303663  -0.2375328  47.2833862  43.9466667   6.6779599
  47.1178589  43.1400948   6.1898270  48.2375526  44.0069580   6.7244396
  49.1851463  53.7957039  36.5140343  50.1404152  53.7878151  36.5743294
  48.9130478  52.9700317  36.9146080  60.5431519  42.0751839  30.4657612
  59.9060898  41.4299202  30.1591320  61.2444344  42.0474167  29.8148670
  31.6115971  50.5832100  40.0715446  31.3646049  51.5038643  40.1588440
  32.5680885  50.5941315  40.0364037  58.3479614  15.0853529   8.4557743
  58.5862007  15.8155136   9.0270348  58.7696037  14.3232088   8.8527479
  62.6401901   1.8490567  10.8867579  63.4578133   2.1266031  11.2999058
  62.7510300   2.0722346   9.9625626  34.1562576  44.7265358  52.9701653
  34.9175987  44.3477592  52.5307159  33.8563881  44.0390739  53.5648994
  58.4708824   9.4365168  59.3200455  58.9265480   8.6579647  59.6401329
  59.1218109  10.1358976  59.3782692  27.8534431  62.9863777  77.9176178
  27.4286785  62.4642792  77.2370148  28.6081448  63.3810463  77.4807053
   8.8817739  66.7800980  73.9709625   8.7255211  65.8427353  73.8561554
   9.7560015  66.8316269  74.3573608  69.2535934  62.4211502   9.7872009
  69.6352844  63.2328987  10.1212864  68.8915024  61.9903183  10.5614758
  81.7422562  58.8151283  69.2787170  82.5549469  59.2102051  68.9629974
  81.2941971  59.5245857  69.7393112  42.0131989  52.0981064  42.5979652
  42.5551643  52.8794479  42.4883614  42.5045662  51.4025574  42.1609268
  55.7869148  63.5870094  14.6443863  55.3039894  63.3622513  15.4396839
  55.6748352  64.5334625  14.5555353  10.8570642  46.3045387  46.3878403
  11.0725489  46.8807144  45.6544800  10.3530836  46.8563766  46.9859314
  29.1144905   9.1742582  87.1195526  29.8034401   9.1958141  87.7837219
  28.4168682   9.7214727  87.4802628  47.6981773  44.5464592  51.0049744
  48.3338280  44.6549263  50.2975731  47.4392052  43.6263008  50.9552650
  26.6983128  68.3056259  54.2449875  27.0160427  67.7331238  54.9432220
  25.8056145  68.0044098  54.0758934  55.8883362  71.0394669  42.2180557
  56.5472488  71.4754333  41.6776848  55.1132812  70.9913330  41.6584129
  78.9389877   4.2349997  52.5277290  79.0002670   3.3251922  52.2366486
  79.8478470   4.5298066  52.5852242   7.4365010  29.7160320  74.1754684
   8.0156994  29.8402271  73.4235764   7.1564441  28.8027973  74.1138000
  72.1976471  56.8029213  59.6082573  71.7511063  57.6453857  59.6924324
  71.6815720  56.2033997  60.1472130  24.4607887  19.9422321  32.7524147
  25.3104305  19.5178242  32.8716545  23.8847828  19.2426662  32.4441071
  84.2739182   2.6131284  68.9003525  83.3927155   2.2873664  68.7170563
  84.7886658   2.3546114  68.1358719  84.3154831  39.4734612  65.5742111
  84.4131165  39.2377815  64.6516266  83.5461044  40.0425034  65.5959244
  28.1822071  20.5246677  63.9519005  28.1115894  21.3357296  64.4553146
  29.0872955  20.2409496  64.0805588  42.7280579  28.1534405  20.4245319
  42.0852356  27.9701309  19.7393990  42.4577103  28.9970608  20.7870922
  54.3083000  47.3366814   5.8094339  54.0142097  47.1499443   6.7009897
  55.1461678  47.7854462   5.9226632  37.9486275  26.9773502  77.0500183
  37.9444351  27.0481930  76.0954514  37.8416901  26.0416756  77.2212143
  70.0102081  47.7189331  29.5266609  69.9490814  48.1250725  28.6620541
  70.6644897  47.0282707  29.4211292  74.5107727  63.3460999  69.9347687
  73.6840210  62.9478836  70.2070465  75.0372543  63.3750076  70.7336578
   5.8179569  67.1205292  10.5556536   5.6240892  67.3183060   9.6393948
   6.4995790  67.7477112  10.7970276  76.9951706   7.9105687  45.3350945
  77.5260468   8.4479113  45.9230309  76.1511536   8.3603954  45.2961388
  83.4626007  15.1895847   4.9099331  83.1665115  15.1707544   5.8199940
  83.4696579  16.1186142   4.6795335  22.8506908   6.3688192  79.2255402
  23.6476307   5.8671298  79.3970871  23.1619568   7.2511587  79.0234985
  53.0546570  12.9255943  20.6823750  53.5073204  13.4055233  19.9888382
  52.4999847  13.5814533  21.1047688  64.1786652  41.3651352  31.8344727
  63.6270256  40.6742821  32.2014122  64.2490082  42.0131378  32.5354538
  56.7455788  68.8219681  21.9204941  56.1151962  68.3179626  21.4058800
  57.0052299  69.5406647  21.3440533  16.1432190  12.7454967  12.1960325
  16.0003586  13.6808701  12.3405943  15.9429407  12.6130123  11.2694426
  28.0531998  16.1303387  72.8022995  27.7058754  16.4034500  73.6514206
  27.2893925  15.8088036  72.3232956  65.6852951   4.9223332  49.4866753
  65.4187775   4.5627632  48.6405602  65.0312729   4.5934792  50.1033936
   3.0169268   4.8874040  66.5848007   3.8964379   4.9864917  66.2202835
   2.6484253   4.1359258  66.1203461  44.1764679  30.6067791  63.2606773
  44.8991241  31.0492859  63.7058601  43.9141006  31.2135773  62.5684395
   8.5100069   6.6220870  83.4801331   8.5377932   7.4876995  83.0724869
   8.7865019   6.7739511  84.3838577  18.1360626  70.3635406  83.5205688
  17.2885284  70.0312119  83.8163223  17.9841232  71.2941055  83.3556290
  72.1380768  62.1664314  19.9505692  71.5602646  61.4866142  20.2972908
  72.9352341  61.6989250  19.7011681  28.0236568  70.5822449  70.1272202
  28.5111523  70.7589874  70.9317932  27.4346237  69.8635941  70.3570404
  77.8634186  17.3915424  31.5498657  76.9179840  17.4965534  31.6564541
  77.9808960  16.4612579  31.3575058  27.3134785  10.7762241  88.1457291
  26.4131699  10.7519159  87.8215637  27.6468315  11.6278849  87.8632736
  15.1999474  19.6687660  81.4579620  14.6437731  19.1978874  82.0785904
  15.8650475  19.0304298  81.2002792  55.5244370  69.1070480   0.4287877
  55.2329445  68.4157715  -0.1656916  54.7647209  69.2812119   0.9844222
  78.7680054  64.7829056  74.3944778  79.2382584  65.6072083  74.2694855
  77.9912720  65.0244064  74.8990555  36.9722710  57.2091599  85.7187729
  37.3251648  56.4270325  85.2945404  37.7269249  57.7898560  85.8163528
  49.0028725  70.3360291  63.3122673  49.3784332  69.6481476  62.7627144
  49.5266037  70.3153763  64.1132126  11.5382757  54.7307014  17.3675480
  12.0284986  55.1738663  16.6750755  10.9471321  55.4014587  17.7094021
   7.1756320  50.2347374  16.7004337   6.9932480  49.3666382  16.3407536
   6.9391909  50.1652756  17.6253681  25.0318813  65.3292542  85.6939774
  24.4043236  64.7141342  86.0734863  25.3065510  64.9165573  84.8751602
  77.0515518   3.5371988  87.7713470  76.1704483   3.2868066  87.4935074
  77.0887146   3.2952309  88.6967163  20.5598640  11.9217024  22.3543968
  20.7548103  11.9007549  23.2913017  19.6222095  12.1087132  22.3089790
  38.6750526  28.1478138  13.2998390  38.9276543  28.1498318  12.3765726
  38.4597321  29.0606308  13.4912386  45.9295082  38.7508125  51.1331177
  46.4823532  38.9081039  50.3677063  45.1663322  38.2886314  50.7864380
   3.1663072  30.4847431  11.0143023   2.3444188  30.4639111  11.5045033
   3.8464806  30.4130573  11.6839705  30.9448338  28.0029335  72.6806412
  30.5908241  28.8160172  72.3203583  31.2036362  27.4934025  71.9127655
  55.1698418  22.7137699  80.4099121  55.2016869  23.6528568  80.5924835
  55.8416786  22.5767059  79.7420197  33.0015259  57.5151672  69.3892746
  33.0460510  57.2757034  70.3149719  33.4794121  56.8189774  68.9385300
   1.9604270   3.8023374  44.4897308   2.6098585   4.2307220  45.0473671
   1.6844618   4.4836316  43.8766136  83.3345108   8.8011389   6.3242269
  82.8066177   9.1587753   7.0381246  83.9501953   8.2083950   6.7553020
  82.7272644  68.1690063  17.9775352  83.0815811  67.5765076  18.6405830
  81.9278870  68.5185547  18.3712902  63.0473213  57.1277351  60.7924461
  62.8924751  56.1898499  60.6800728  63.5410728  57.3839912  60.0134850
  50.3941307  50.5785789  77.6863403  51.1586952  51.1054268  77.9189301
  50.1287613  50.1657257  78.5081482  37.4796066  11.6226206  80.4116211
  37.0579376  12.4616108  80.5974197  37.6338577  11.2360029  81.2735748
  78.9344864  12.0059834  41.9043312  78.4986877  11.2528925  41.5053749
  79.3906021  12.4311886  41.1781158  14.1048756  45.9886322  47.8252983
  14.7629251  46.4438400  48.3506470  13.3433170  45.9212151  48.4012489
  64.1966171  25.1171112  63.4166565  63.4105110  25.6539192  63.5171738
  64.6658936  25.5145874  62.6831512  67.3519669  52.5787354  78.2586060
  67.4036713  53.3979378  77.7661972  68.0525208  52.0366325  77.8958817
  63.9131927   8.3895731  81.2454376  63.6906738   8.9985199  80.5412292
  64.3795853   8.9254169  81.8869858  72.8564529  52.0436783  77.5306168
  72.1905136  51.3730240  77.6822128  73.0650787  51.9678993  76.5995026
  52.3834114   6.4611444  83.0891113  53.1333542   6.4107251  83.6818008
  52.4993591   7.2908859  82.6261673  64.5093918  15.1413126   9.2805519
  63.6304817  15.1260099   8.9017248  64.4014435  15.5922089  10.1179724
  86.3828278  45.6302032  44.2565155  86.8933411  45.8773842  45.0275574
  86.4353638  46.3925056  43.6800079  26.7178268  57.6810265  48.5013504
  25.8704319  58.0013237  48.1922112  27.1581917  58.4594765  48.8424149
  25.5313702  39.9210167   6.6629572  25.4541550  38.9685249   6.7179513
  25.3983555  40.1189728   5.7359443  15.4325256  16.7409439  78.9929504
  16.2652225  16.4332161  78.6349640  15.1419001  16.0320454  79.5667343
  48.0310631  36.2269058  10.5478687  47.2672462  35.7456703  10.8660278
  48.7460823  35.9459229  11.1188583  70.7089767  48.2017403   0.4511760
  70.0039902  48.8491936   0.4555476  70.5298538  47.6474762   1.2107397
   9.7623825   2.9382181  84.0126343   9.0610886   3.3956420  84.4765091
  10.4164619   2.7556889  84.6872406  28.6547966  22.5648537  68.9470139
  28.3227463  23.3827267  68.5767975  27.9323292  21.9452229  68.8453827
   4.8245807   8.0453405  17.7833920   5.2437758   7.5074911  18.4551239
   4.0114365   7.5832925  17.5795803  45.6879349  66.8747177  42.3419762
  46.4737320  66.3365021  42.2466812  45.7179527  67.4762344  41.5979958
  53.9924889  15.0091715  76.4860611  54.3528328  14.1229525  76.4544067
  53.4181557  15.0069904  77.2518082  66.9712143  37.6735306  16.2749863
  67.9248734  37.6252823  16.3416252  66.7992554  38.5496254  15.9298534
  46.2490425  43.7676773   9.3328238  46.7880211  42.9999237   9.1423292
  46.3274689  44.3151894   8.5515985  58.2156410  32.1560783  86.5336456
  58.3756065  31.5539017  87.2602997  57.8531227  31.6042252  85.8406296
  85.2341766  67.7593994  87.5542221  85.1241760  67.8397064  88.5016785
  84.9237366  66.8770370  87.3509979  14.4325485  51.0628128  31.7213783
  15.0832777  51.2906990  31.0574112  13.7965317  50.5189705  31.2566776
  11.7121592   3.6620407  43.9295502  10.9162197   4.0272555  44.3159828
  11.3998852   3.1215920  43.2038574  67.2229080   2.1808774  52.0688019
  67.4406204   2.6701245  51.2754097  67.8841171   1.4901861  52.1132889
  78.1740799   0.0849140  28.4173393  77.4524841  -0.4697834  28.7137222
  77.8391418   0.9778307  28.4994965  20.2001629  12.3599529   4.5541120
  20.4468098  13.2415476   4.8337331  19.2833214  12.2735929   4.8152161
   4.2971025  24.5798187  85.5910492   5.0124602  23.9588642  85.4535370
   4.3172140  25.1434669  84.8176575  29.3982296  47.7232628  59.7508621
  29.3792057  47.8457985  58.8017311  29.1790161  46.8001633  59.8776283
   5.2188110  58.8619232  75.9457703   5.0546718  59.7587204  75.6541367
   4.3614783  58.4377365  75.9100189  46.9273872  56.7743034  49.1455307
  46.6404228  56.3459702  48.3390503  46.1214676  56.9125404  49.6431465
   6.7475142  15.1185522  88.2670898   6.6317759  14.3233538  87.7469940
   6.5155196  15.8305626  87.6708908  34.0806923   1.0459763  51.9182854
  33.6307526   1.6198697  51.2982597  34.0469360   1.5185883  52.7499886
  25.4536686   8.2460222  77.5479736  24.6819229   8.7322979  77.2578430
  25.3901348   7.4043684  77.0965195  27.6373825  56.9062042  16.4944553
  26.8204823  57.1013603  16.9536057  27.4372139  57.0642128  15.5718508
  17.4219093  48.4087029  77.1446075  17.1182041  49.1294785  76.5928040
  18.3099709  48.2286568  76.8361206   3.4241881  54.1625023  70.6976471
   4.0742149  54.6200409  70.1643982   3.8871355  53.9474335  71.5073776
  46.1722603  59.0765877  58.6000633  45.7054558  59.0272255  59.4342651
  45.4965630  58.9287949  57.9383812   5.9404769  23.9409809   7.3031030
   6.5810661  23.9295864   6.5919437   6.3866568  24.3915119   8.0201645
  65.0789337  65.8718719  51.2277527  64.4284744  66.0579681  51.9048882
  65.9215546  66.0008316  51.6631622  64.5156555  35.2314949  42.6674042
  64.1792374  36.1245766  42.5935593  65.2794189  35.2148018  42.0906754
  82.4933472  34.5381165  88.9139175  82.9694366  33.8543320  88.4427338
  82.7999878  35.3562737  88.5229874  68.4515839  16.0745831  80.8761749
  69.3307114  16.4530239  80.8636551  68.5858459  15.1657782  81.1450195
  44.4833031  65.2299576  23.7358780  43.6263275  64.8789215  23.9779510
  44.7101059  64.7714462  22.9268322  12.5964956  61.1679764  18.4524364
  12.3942938  61.4131355  17.5495281  13.5525379  61.1841354  18.4966354
  73.7995605  60.0400352  74.7400970  74.5060577  59.5939560  75.2071152
  73.6757507  60.8594322  75.2191544   6.4903541  23.3268871  23.6875820
   6.9700365  22.7524662  24.2843876   7.0382681  23.3692837  22.9038563
  23.7386665  70.0331497  87.0468292  23.0210037  70.5922623  87.3444748
  23.5231419  69.1650314  87.3876343  41.0354538  34.1867371  82.0683975
  40.9604874  33.7019691  82.8903580  41.2692032  35.0758018  82.3351364
  73.7416229  42.3500481   7.5093660  73.2395554  43.1505470   7.3565073
  73.2408295  41.8763733   8.1734962  57.0365829  44.7772141   7.0002432
  57.9254799  44.4811859   6.8041468  56.6318779  44.9048004   6.1422415
  43.0343170  69.8392715   9.9069500  42.4559860  70.4549026   9.4566584
  43.9145241  70.0862885   9.6233244  84.5953064  43.9013710  68.0570450
  84.5076370  43.0055084  67.7315063  84.7396927  43.8012352  68.9979782
   4.1102476  48.6031914   4.0703206   3.4094617  48.1696014   3.5833597
   4.1548948  48.1279602   4.9000144  82.5868759  64.9344864  48.7643127
  82.6597748  64.2222900  48.1289444  82.4002151  64.4964752  49.5946960
  57.2559395  50.9547348  68.1934128  56.9640045  50.3026123  68.8303909
  56.4669304  51.1765022  67.6989212  74.9846954   9.7069311  15.4042339
  75.7566376   9.6656723  15.9687090  75.0309448   8.9096508  14.8765621
  32.2662277  48.2562561  44.3030586  31.3744926  48.1138878  43.9856186
  32.7209435  48.6630173  43.5654869   1.3331621  17.0878696  49.0715561
   0.4379167  16.7976379  48.8968201   1.3680257  17.1981869  50.0217400
  33.8963928   8.8532324  62.3550911  34.4001198   8.2391443  61.8208771
  33.3630981   9.3374739  61.7247467  70.2141876  32.5503159  86.8277588
  69.9588547  31.6332569  86.9279861  71.0673676  32.5154953  86.3952179
  75.0324326   8.4397335  19.3079834  75.4844894   9.1358461  18.8312168
  75.7172775   8.0249128  19.8325253  80.5482254  65.1637497   5.3802185
  81.4909744  65.0499191   5.2598047  80.2394867  64.3074951   5.6764302
  74.2222366   0.5097410  74.6215744  74.4233856  -0.2630975  75.1492920
  74.4271240   0.2469819  73.7242355  41.4568138  61.9754791   3.7590072
  42.2429161  62.3446083   4.1615295  41.2395592  62.5856323   3.0542052
  74.8053818  13.5310202  59.2955704  74.7252426  12.7827940  58.7039909
  74.1817322  14.1728106  58.9558640   7.3078151   2.9732237   5.0724554
   6.7669187   2.7088432   4.3283010   7.0989070   2.3385575   5.7578664
  23.5122757  59.1144257  79.6842041  22.6272507  59.0287971  79.3297653
  23.7199936  60.0438347  79.5878372  15.7850237  12.6684685  18.3092098
  16.7325020  12.5498619  18.2425175  15.5307751  13.0442848  17.4663868
  76.9743881  29.8349514  58.6048203  76.1484299  30.0440464  58.1685753
  77.4339066  29.2657413  57.9875069  30.6653023   3.0436587  85.7752914
  30.2514076   2.2288296  86.0598526  30.4734802   3.6671047  86.4758301
  30.6500492  35.1004906  72.0843430  29.7094250  35.0399513  72.2510529
  30.9980373  34.2541885  72.3652573  19.6877460  32.6128311  56.6327095
  19.5682716  33.3314514  57.2536278  19.4536839  32.9882965  55.7839012
  23.0907478  66.1529160  10.8706675  23.3578720  65.6971130  11.6688662
  23.7407455  65.8933640  10.2177010  14.1653957   2.5517275  70.8194351
  13.8257446   1.6568534  70.8277664  14.8697958   2.5465968  71.4675293
   3.5359154  33.3860321   4.7764554   3.9459722  32.9924355   4.0062823
   3.5676341  32.6989517   5.4421487  73.5430603   9.9217224  71.9681473
  72.6372452  10.2088146  72.0834579  73.6015625   9.6788654  71.0441132
  12.6632948  30.2605209  77.8775940  12.0401840  30.7997341  78.3646393
  12.5958881  29.3944111  78.2795181  70.6803970  12.8437309  49.8645935
  71.0020752  13.5899525  50.3704643  71.4172211  12.2330904  49.8436203
   0.4331965   7.4747591  55.0115509   0.3379639   8.4272089  55.0127525
  -0.4411623   7.1463647  55.2210426  76.0307770  16.6407719  28.8185959
  76.1433029  15.7139387  29.0296688  75.2922821  16.9215393  29.3589916
  66.8018951  44.2694321   7.4374595  67.1041260  44.4487572   8.3278141
  66.3718033  43.4164276   7.4977636  67.7797394   8.1092091  57.2417259
  66.9314041   8.3879051  57.5865250  68.4207611   8.5205622  57.8214798
  67.5904541  56.6283340  11.1682119  66.8692703  56.3886871  10.5862379
  68.3785477  56.4877014  10.6434536  48.9098549  28.0912304  60.4975204
  48.2098694  28.1370888  61.1487885  48.9335556  27.1708145  60.2357826
  17.2221680   5.8309221  31.4641514  18.0536633   5.3892608  31.6367340
  17.4305687   6.7635798  31.5184727  75.2885361  14.2041798  40.7181625
  76.1770020  13.8892546  40.8845215  75.2371521  14.2840538  39.7656860
  34.0823898  59.4632111  41.4958191  34.0586052  58.5720749  41.8444557
  33.9573212  60.0234795  42.2617798  37.5144958  40.7269897  68.0636749
  37.3713150  41.1476212  67.2158508  37.7435379  39.8232040  67.8470078
  30.6312504  50.1087952   1.9014236  30.6986446  50.3333130   2.8294759
  31.3742847  50.5529747   1.4929720  10.8368130  57.1884804  82.2870331
  11.7381849  57.5030289  82.2176132  10.4933949  57.2469711  81.3954697
  64.5029755  23.6623840  32.9396667  65.1229095  24.1971226  32.4437180
  64.2556534  22.9612370  32.3367958  51.3261604  22.7302227  12.4604158
  51.4707870  21.8721733  12.8592463  52.0267982  23.2791748  12.8125353
  71.9942093  29.4928722  -0.1874497  71.5151749  30.3200932  -0.1377953
  72.2010574  29.2808743   0.7227712  43.2158203  52.1923370  32.6490784
  42.9257812  51.5529594  33.2996979  42.4318466  52.3821106  32.1337128
  59.9221840  26.6654854  75.1514740  60.2462311  27.5612907  75.2450638
  58.9692688  26.7553654  75.1409225  15.7750406  47.4249573  58.9144363
  15.9632759  48.3628616  58.9481735  16.3888073  47.0806770  58.2655983
  55.1382675  11.6902370   6.1871352  55.6828499  10.9279556   5.9906983
  55.0737953  11.6988354   7.1421223  47.6761894  65.3668060  73.0339508
  48.2708702  65.8739090  73.5866165  47.0406036  64.9941177  73.6449890
  52.3442116  32.9475174  82.2841034  52.8440437  32.5370255  82.9897232
  52.4308395  33.8871994  82.4444885   2.0511365  11.1712999  52.6591988
   1.2816503  11.3116083  52.1074409   2.6774106  11.8349342  52.3700562
   4.6654224  13.7652454  12.1261187   5.4163342  14.0284586  12.6581726
   3.9872639  14.4078484  12.3344336  29.9413834  66.8691177  30.8079319
  30.2161121  65.9956894  30.5288658  29.6408539  66.7492447  31.7087898
  72.2055206   1.9337428  39.9898529  72.5335922   1.9394319  40.8890572
  72.8417892   2.4542360  39.4994583  63.4704475  23.5279808  88.4008942
  63.3147545  22.7711468  87.8359222  62.8319664  24.1792107  88.1102524
  45.2617950   7.4961987  62.7274590  45.9626923   7.9212260  62.2331657
  44.8404465   8.2094059  63.2070770  75.8455048  24.4252892  27.2093201
  76.3749542  23.6969547  27.5340500  76.3457260  25.2074776  27.4421215
  63.6065292  61.5883064  28.3290596  63.0660362  61.3951073  29.0950680
  63.5715179  60.7890739  27.8034821  45.8906898  11.5248957  26.5888443
  46.1484184  12.0446329  27.3502140  46.7059212  11.3853664  26.1070137
  58.7348175  54.1996651  35.3741188  59.4613991  54.7968140  35.5522423
  58.0393181  54.7631454  35.0349998   3.9607673  29.4707813  89.1367493
   4.1143947  30.3161449  88.7148666   3.2584529  29.0711441  88.6236496
  25.5177078  47.7415619  64.3334656  25.3356266  47.2207603  65.1156693
  25.3842163  48.6474266  64.6124344  12.4452820  70.8909302  36.9384575
  13.2620478  70.9341583  36.4412079  12.5775480  71.4947968  37.6692657
  20.4184074  65.5759125  59.1620293  20.4415340  65.3603210  58.2297134
  20.0026360  66.4373322  59.1984177  60.6912766  37.3663406  63.2136269
  60.8903542  36.5544128  62.7473907  61.5393753  37.6717377  63.5356483
  39.4967804  19.5848923   2.0938172  38.8748360  19.4731789   1.3748341
  40.1340904  20.2178669   1.7630421  72.7379990  34.3679123  28.2235069
  72.9003372  35.0471420  27.5688877  73.4448776  34.4748650  28.8599930
  68.1856995  35.4815598  39.6403580  67.4170532  35.1406937  39.1829453
  68.8266144  34.7721672  39.5931969  12.2012091  14.7223606  16.7483902
  11.4460011  14.7492094  17.3359032  11.8485079  14.9693584  15.8935070
  33.7249413  48.5311546   4.5663614  33.9544258  47.8340759   5.1808972
  34.4485741  48.5460510   3.9399734  72.0907440  35.8230095  17.2996254
  72.4861374  36.6942635  17.3281097  71.8069382  35.6592636  18.1989994
  42.7598915  57.2480812  79.9726868  42.2273674  56.7107849  79.3862076
  43.3929329  57.6763611  79.3964386  82.7394638  52.6746292   3.1648490
  83.2347107  51.9207802   3.4852743  81.9551544  52.6965294   3.7131255
  38.8214569   7.7767725  14.7082787  38.4026794   8.2438049  15.4312840
  38.0949745   7.3855309  14.2231169  78.8829727  71.7806473  16.9270649
  79.2901154  71.5693893  17.7672062  77.9645004  71.5347748  17.0374546
  45.4103622   5.7140799  80.7996826  45.9045258   4.9821482  80.4304810
  45.1989212   5.4351568  81.6905975  48.0407181  28.5889912  73.5630188
  47.4181023  28.4788151  74.2816544  48.4367943  27.7243519  73.4545898
  25.0037479   0.7034857  83.1560516  25.3962154  -0.0347213  83.6221542
  25.5307331   0.7928525  82.3619919   1.1764030   5.2062697  37.7537117
   1.9588770   5.3108468  37.2123871   1.5068699   5.1907749  38.6519203
  81.2415085  45.6239662  73.9571381  81.8404694  45.8312759  74.6744308
  80.6159134  45.0077019  74.3380280  20.5815506  66.2911148   9.0958509
  20.8199863  67.1240997   8.6890068  21.1386967  66.2355957   9.8722124
  65.9545898  40.5680428   5.4321012  65.6039886  41.3920593   5.0940146
  66.8518448  40.5354424   5.1002874  18.5377636  67.2412949  38.8655586
  18.3726139  66.3090286  39.0064163  17.7064991  67.5850296  38.5383377
  34.2387047  19.9605427  77.1387253  33.9827271  20.2697277  76.2697525
  34.7325897  20.6884937  77.5160751  54.1897049  58.7145576  25.9997368
  53.5340729  58.1171837  26.3596325  54.5938454  59.1176910  26.7681007
  65.2265625   3.1464798  73.5520935  64.4346313   2.6139543  73.4779968
  65.9414825   2.5412269  73.3551331   9.0843258   9.2576265  31.4633121
   8.1780844   8.9955215  31.3012619   9.2475786   9.9582529  30.8318844
  13.2412691  60.0791512  22.2844410  12.5856123  60.4500198  21.6938457
  12.7937870  59.3479118  22.7102184   6.5194025  37.8240242  60.0769958
   5.9011993  37.8199081  60.8077774   5.9907670  38.0687103  59.3174515
  83.0474625  25.7336216   1.5951893  82.5994873  25.3560085   0.8382475
  83.1531067  25.0003738   2.2013371  57.1214943  49.6779633  60.1296349
  56.2879715  49.2074165  60.1374207  56.9037552  50.5452347  59.7880707
  49.5616035  12.0254068  67.2356873  49.3215294  11.6513681  68.0834427
  50.2142677  11.4204359  66.8831635  81.1713486  42.7249832  25.2936420
  80.4926300  43.1974792  24.8116398  81.9941711  43.0922127  24.9706383
  56.9140511   0.4044499  75.5557175  56.9510880  -0.1456037  74.7732239
  57.3371544   1.2221746  75.2939148   0.3664390  46.3118057  87.9775925
   0.2108598  46.7480621  87.1399155  -0.5075248  46.0855980  88.2957916
  25.8524914  56.5408211  77.8284149  25.4833508  55.6641960  77.7211761
  26.7705994  56.4467964  77.5745010   8.7030849  69.3784180   5.4025946
   9.2257290  70.0760117   5.7981148   9.0119829  68.5778580   5.8267550
  81.2917709  28.6341248  38.4883728  81.6355057  29.0219040  37.6835709
  81.2308273  29.3674450  39.1005478   1.0697571  36.7345314  83.1282806
   1.7694584  37.3637314  83.3036575   1.3153014  35.9572487  83.6300507
   4.5648322  52.7453995  10.4322472   4.2116928  51.9457779  10.0422115
   4.2030292  52.7596893  11.3183203  86.0231781  44.0390854  64.0031586
  86.9770813  43.9924812  63.9389229  85.7163773  43.9171143  63.1046982
  71.2885361  25.3612041  20.8143063  71.3224258  24.5966110  21.3891830
  72.1938095  25.4875240  20.5301399  45.0797768  40.5693893  34.0202141
  44.7191048  39.9798622  34.6824875  44.3264122  40.8169479  33.4841270
  33.1394806  33.0435829   5.5678501  33.0149765  33.7950592   4.9881859
  33.7839813  33.3407326   6.2101536   9.9399414  50.7592430  25.8033218
  10.2489815  50.9264336  24.9129448  10.4905605  50.0419502  26.1172314
  18.9124069  33.0023651  76.2475739  18.4800091  33.4793129  75.5392075
  19.8407650  33.2122002  76.1458206  73.0144043  43.4646530  78.1966629
  73.0825119  43.5419197  77.2450180  72.1318207  43.1259651  78.3469009
  45.9643898  50.9889450  48.2747040  45.2795639  50.5113525  48.7428398
  46.7567749  50.4707298  48.4154510  78.8598175  11.0579624  13.4185476
  78.6364441  11.9887304  13.4215641  79.7274857  11.0211802  13.0160265
  69.9085922  42.0347328   1.0806826  69.9253769  41.6986160   0.1845937
  70.6461105  42.6434937   1.1220003   1.2653219  70.2790604  22.7448769
   1.1121629  71.1755142  23.0434494   1.9622041  70.3592911  22.0936089
  32.7910881  35.5008583   4.1911540  32.6856804  36.3947563   3.8654721
  32.1545219  34.9879189   3.6932516  22.6407948  19.5819530  86.9315872
  22.0065155  19.0996437  87.4619675  22.5335484  19.2276382  86.0488663
  62.7655106  47.7568779  46.9043350  63.4353294  48.4115677  46.7069511
  62.0141907  48.2667274  47.2073288  83.9170837  60.8104477  25.1976910
  84.5213547  60.8994598  25.9346867  84.3569336  61.2539940  24.4724102
  31.2492809  31.6969681  86.4232178  30.9681244  31.0538349  85.7723999
  30.4870968  32.2629890  86.5454102  84.9270096  17.9616241  35.2331352
  84.2009354  17.6042099  34.7219505  85.1420288  17.2704620  35.8594704
  22.6705761  48.7657852  53.8290482  21.9216499  48.1744652  53.9044304
  23.3998623  48.2787323  54.2126541  38.2526588  22.4301548  69.6502380
  38.1006165  21.8080215  70.3616180  37.4004860  22.5188885  69.2234344
  17.1498413  38.1163521  66.7246857  17.4827271  37.2903938  67.0757065
  16.9490776  37.9237709  65.8088074  66.2831955   3.3845396   6.5729923
  66.0251083   4.1751089   7.0469375  65.9710388   2.6642756   7.1207237
  25.2265282  55.1379242  32.0510979  26.0245323  55.6474419  31.9103298
  25.1602840  55.0545311  33.0023537  18.3587227  50.8359642  54.2624588
  17.6852703  51.4165344  54.6169052  19.1281395  51.0008469  54.8074760
   3.3719878  34.0273514  -0.0029359   3.8622255  33.3130531   0.4040974
   3.9321673  34.7956352   0.1073817  82.6212311  21.7608604  14.0789013
  82.9028854  22.4626102  14.6657991  82.7377243  22.1222610  13.2002373
  50.5151711  14.2738857  62.8103333  50.6507378  14.8508148  63.5620041
  50.9738541  14.7068119  62.0903206  71.7729034  59.7497940  41.9483490
  72.2588425  59.6574974  42.7678452  70.9597549  59.2669868  42.0963936
   4.4465718  32.6300163  56.3996162   5.1381969  32.9128418  55.8013687
   4.8751316  32.0024261  56.9815941  62.2058525   2.3283370  82.9496918
  62.9009590   1.7118007  83.1797867  62.6040535   2.9061909  82.2987213
  57.6251755   1.2366850  85.8773346  57.7321930   0.7387995  85.0668488
  58.0465775   2.0774982  85.6993256  57.8095665  39.2332878  29.9510021
  57.6332893  39.2997780  30.8894768  57.9109001  40.1400146  29.6615047
  25.6382008  22.4684658   7.3808413  24.8055019  22.9145164   7.5353823
  25.4212627  21.7590981   6.7758884   3.8421142  36.4200783  16.1160641
   2.9514663  36.1128006  15.9470701   4.2431293  36.4806786  15.2490311
  81.3124161  69.0670853  28.0722237  81.9279861  69.6622925  28.5000553
  81.8159866  68.2663116  27.9258728  68.5883560  45.3137131   9.3280678
  69.2058792  44.6728630   8.9756422  69.0157242  46.1590500   9.1902781
  58.4419212  12.1299028  62.8159142  57.9168129  12.0638161  62.0183411
  59.0183868  11.3662987  62.7870979  82.0687485  24.7819958   6.6187367
  81.2585526  24.6604271   6.1237268  81.7783585  24.9637184   7.5125394
  35.0362778  50.1845207  53.9029579  35.5407906  50.2807999  53.0952263
  34.3678246  50.8676567  53.8507004  63.4843597  34.4817238  32.8022461
  62.6113892  34.1427574  33.0003777  63.3265266  35.2222672  32.2166557
  26.3630371   2.3862133  47.8008003  26.5706882   2.3085091  46.8696327
  26.8371658   3.1667109  48.0876083  42.4998817  35.0323029  22.7707729
  42.9408646  35.2639847  21.9534054  42.5123672  34.0753174  22.7867393
  67.3002701  46.5788689  71.9724045  67.0921021  47.2828941  71.3582001
  66.4697952  46.3880882  72.4084549  75.2905655  47.7704391  21.6801796
  75.7468872  48.4931755  22.1110592  75.3888397  47.9487801  20.7448883
  72.8284607  66.8219681  60.1341248  72.5644150  67.7349930  60.0205612
  73.2991562  66.8106461  60.9675179  27.5008755  33.5520973  58.7081299
  28.1344738  34.0010223  59.2678146  27.3549480  34.1556129  57.9796295
  74.8586884  15.2519941   4.4830046  75.1038589  15.4597750   3.5813673
  75.5886917  14.7296572   4.8154058  70.9163132  40.1159668  36.6671371
  71.7124405  40.1397171  37.1980324  70.5713348  39.2318954  36.7921829
   8.7216072  14.0391874  12.0031509   8.0712204  14.6874962  11.7331047
   8.5503139  13.2810221  11.4445143  84.4626541  58.6366043  45.4960747
  84.2959290  57.7241516  45.2597198  85.4116058  58.7346992  45.4179764
  33.4150276  70.7129745  83.1480408  33.8886566  70.1279221  83.7393265
  34.1016808  71.1676636  82.6601944  40.6498528  65.2915192  53.6418839
  40.3697395  64.4762344  53.2258530  41.3733368  65.6019745  53.0974388
  43.5371742  57.1518860  72.0004730  44.1216507  57.4967194  71.3254013
  44.0661087  56.5052528  72.4677277  66.1732559   0.7929531  26.3411083
  66.4231033   1.4051781  25.6490192  66.9816742   0.6424104  26.8310375
  68.8196564  65.5873413   1.4169682  68.6039352  66.5060349   1.2566528
  69.7696915  65.5420685   1.3091881  86.5764847  14.3539104   4.9227419
  87.2189789  13.8202953   5.3903809  85.9892960  13.7181492   4.5137768
  53.1428757   7.3946004  67.5403595  54.0720329   7.4785280  67.7544861
  52.8379478   6.6644626  68.0790100  86.5189438  58.4149055  28.7750759
  85.9118652  59.1532478  28.7247238  86.0691605  57.7034874  28.3192120
  74.5047531  50.7881889  29.6020088  75.4139633  50.9624939  29.8452759
  74.5665207  50.1898117  28.8574524  62.8801422  49.1673317   9.4937248
  63.6303291  49.0757065   8.9063101  62.8962135  48.3735161  10.0283556
  22.5314312   4.2689915  28.3104420  23.3165569   3.8089879  28.0134487
  22.4412098   4.0195885  29.2301636   0.8959878  65.0629730   6.6466241
   1.0401267  64.1956940   7.0251536   1.1666611  65.6721268   7.3335733
  78.8531265  16.9986668  79.9202957  78.7257843  16.4835968  79.1236038
  78.7860718  16.3610153  80.6310272  80.5813904  56.5817223   7.1833868
  80.4373398  56.7218895   6.2475257  79.9395370  57.1479301   7.6119547
  54.9376945  39.8352623  38.1120491  55.5378761  40.2473907  37.4906311
  54.2730751  40.5028610  38.2818336  64.7407761  36.7849007  60.7991447
  64.3524933  36.0702248  60.2944603  64.0831223  37.4799843  60.7750931
  80.3877640  24.6854877  17.0517426  80.9981766  24.2212353  17.6245422
  80.2874832  24.1109753  16.2927246  78.2797318  34.6046257  60.5426483
  77.4616089  34.9135323  60.9318619  78.2227249  34.8685493  59.6243210
  46.8812027  39.9136658  30.2992325  46.9108009  39.0104713  30.6148186
  47.0067215  40.4460754  31.0847359  43.9437294  35.2771263   0.4240108
  43.2490654  34.8946342  -0.1120645  43.8241272  34.8828316   1.2879894
  67.2153549  47.8874664  42.8796616  67.4251099  48.8068275  43.0440102
  66.5034943  47.9147987  42.2403374  22.1171379  50.8184967  78.3973694
  22.6686859  51.5338326  78.0806351  21.3112431  50.8930817  77.8862915
  32.2605858   8.4103813  83.9782028  31.9982510   8.6625776  83.0928726
  32.4026108   7.4652267  83.9258423  15.2612486  45.4632568  10.6279249
  14.3619232  45.7871094  10.5773029  15.5517912  45.6998405  11.5087442
  60.2225647  70.8752747  47.1577492  59.3401451  70.5155487  47.2481003
  60.2417564  71.6173172  47.7621040  78.0390778   0.4295436  10.7129145
  77.8015518  -0.3952205  10.2891483  78.6811905   0.1809520  11.3778343
  63.6446495  11.8891296  24.2460880  63.1529579  11.6813955  25.0406456
  64.3803864  12.4197893  24.5515785  35.8636131  42.5703926  12.9129200
  35.4829483  43.4421616  12.8064003  36.2443924  42.5809784  13.7910585
   9.0561953  17.8149910  87.7061462   8.3990736  17.5306931  87.0708542
   8.5506563  18.2353649  88.4018097  65.5221252  28.7993965  36.5756111
  64.8712387  28.2670193  36.1182785  65.0574036  29.1425743  37.3388252
  12.6809626   4.5449347  50.0844612  12.4152632   4.0736408  50.8740921
  12.6617117   3.8834717  49.3928452  77.4502106  43.8123970  84.2501678
  77.8059921  42.9789772  84.5584869  77.2828445  43.6713066  83.3183365
   7.3688383   2.8543179  54.2766457   6.6107006   3.2572563  53.8534470
   7.5879807   3.4501054  54.9930573  14.3286343  66.0569534  16.5199394
  14.5266085  65.2228546  16.0941296  14.2551832  65.8399353  17.4493141
  60.4494400   9.8706961  16.1804848  60.8576736  10.1352100  17.0048695
  59.5388870   9.6876354  16.4120274  20.0649300  63.7705574  14.2476263
  20.1567154  64.7188568  14.3399830  19.9428921  63.6320839  13.3083906
  83.4373474  65.1487732   6.2359662  83.8312988  66.0020447   6.4175215
  83.9608688  64.7909470   5.5189443  55.0546379  44.6415939  56.6235123
  55.2720413  44.9487343  55.7433815  54.1406479  44.3641129  56.5613976
  69.0140152  39.6248360  80.1702957  68.7164688  40.5292091  80.2693253
  68.3397141  39.2082520  79.6336212   8.4593592   7.4541860   2.9919641
   9.3075476   7.0379968   2.8383579   8.0167465   6.8742819   3.6116707
  48.7385216  30.4465275  71.6130295  48.4084740  29.6773796  72.0774765
  49.6052322  30.5998573  71.9892426  69.4436569  10.7750788  40.9734344
  69.3780289   9.8317289  40.8250580  69.0824966  10.9053183  41.8502655
  25.2236347   6.3100777  29.1236267  24.3641949   6.5706773  29.4548092
  25.5089169   5.6160026  29.7178535  75.8230133  21.9265461  75.6269379
  76.2954941  22.5289249  75.0523682  75.9447098  21.0666294  75.2244873
   1.0213752  34.1190758  75.9342117   0.4704657  34.7601624  76.3833618
   0.5168622  33.3062172  75.9651794  22.0344753  47.2200813   0.8956030
  22.1967754  48.0008430   1.4250332  22.6812840  46.5843735   1.2017816
   5.2678308  10.4398870  47.1996994   5.9373679   9.7565279  47.1685257
   4.8007607  10.3556767  46.3684425  55.1201630  28.6990376  62.9924393
  54.9766884  29.5540638  62.5867615  54.7250977  28.7766380  63.8608475
  50.6989212  69.6486740   4.2219520  51.3481865  69.3015594   3.6102378
  49.9063873  69.7542267   3.6956575   4.7538142  38.8797073  36.0580826
   3.8896914  38.6546860  36.4028854   4.9660602  38.1645088  35.4583511
  80.5686569  58.1386795  82.9339218  81.1332703  57.3812523  83.0880280
  79.7332611  57.7622871  82.6570206  69.3747177  20.5629044  31.2978916
  69.9928665  21.0019131  31.8821812  68.5242462  20.6718807  31.7233925
   1.9892547   7.2523203   1.7911398   2.3422637   8.1381989   1.8738183
   2.6908576   6.7529464   1.3732752  30.8381824  68.9087982  77.7399902
  30.0205250  69.0307312  77.2574997  30.6024380  69.0657501  78.6543350
  55.6496468   1.6371709  45.6572876  56.4651566   2.0746033  45.4126778
  55.2256660   1.4368652  44.8228111  71.0567398   9.6082525  12.9917126
  71.8181305   9.7190676  12.4223013  70.8074799  10.4999466  13.2345791
   3.1824563  31.2277069   6.4395399   2.2783849  31.4705086   6.6393752
   3.1532364  30.2794609   6.3122282  76.3260574   9.4268131  22.1020546
  76.7392120   9.2729702  21.2524281  75.4305344   9.6891909  21.8889065
  22.6045284  45.9849091  79.5378647  21.8402901  45.9183578  80.1103592
  23.2461262  46.4761124  80.0509949  54.4474297  61.9000778  56.6993027
  53.7442932  61.6697121  57.3065605  55.1582794  62.2078629  57.2616081
  17.8646145  64.1252060  55.0096970  18.2859859  64.0326385  54.1552315
  18.3502655  64.8280869  55.4413567  69.7443314   5.7861700  70.4608688
  69.5603409   5.4268522  71.3287811  69.9997177   5.0271187  69.9366074
  17.1931324  33.2756538  65.1859131  16.8772163  33.0467529  64.3118210
  17.0465450  32.4867287  65.7077713  47.4206161  56.4995995  27.1179543
  47.2744026  55.6049500  26.8106174  47.3570518  56.4388123  28.0711040
  27.9475803  63.5995712  52.0853233  28.8828144  63.5239296  51.8959885
  27.5565853  62.8295670  51.6724663  85.1617813  31.8022499  27.4295654
  85.8602600  31.9036827  26.7829819  84.5388565  32.4982719  27.2204018
  25.7335186   3.1911998  34.3419991  25.1612358   3.9547019  34.4180717
  26.4637909   3.4921753  33.8013039  32.2936096  52.1444893  49.2152557
  32.3988113  52.8671875  49.8340225  32.6913071  52.4631157  48.4049797
  25.7361012  55.1109161  34.8052635  26.4617653  54.8411636  34.2423439
  26.1543026  55.3770523  35.6241112  12.7828751  59.5231361  42.6719017
  12.1931076  59.9393959  43.3004990  12.2275410  59.3237419  41.9181900
  10.9735193  24.9130344  77.1093063  10.4029417  24.4389324  77.7142029
  10.6209011  24.7142754  76.2419052   4.4143806  32.2841682  13.9779568
   4.1666384  31.9405479  14.8363161   4.7330899  31.5203514  13.4970808
  45.1122513  50.1508026   2.8537290  44.2177887  50.0611801   2.5248911
  45.5818748  49.4070473   2.4762192  33.3047905  46.9661217  41.0932693
  33.6685181  46.4690018  40.3605995  32.4503021  46.5656853  41.2536774
  19.1940746  42.8906670  31.5381622  18.7092304  43.6231575  31.9184399
  19.3145332  42.2799187  32.2652855  24.2495117  26.4762764   9.3307581
  25.1323414  26.2486877   9.6223860  24.3827896  26.9447117   8.5067205
  68.4766464  31.3212128  49.0559921  69.2884598  30.8767071  48.8118629
  68.1013260  30.7730446  49.7451057  51.5615654  48.0241585  65.5275269
  50.7040062  47.5992775  65.5449066  52.0666275  47.5183105  64.8909225
  86.8363158  71.6485921  89.1984098  90.0000000  90.0000000  90.0000000
