QMMM reactant CHA#2 frame 49592
 55680
  23.0957603  40.1874237  42.8401146  22.1050701  40.0567207  42.9869118
  23.5725613  39.7951736  43.6394310  23.3280334  41.1542969  42.6631927
  23.4469433  39.3881454  41.6836777  22.8607998  39.8306046  40.8782196
  24.9609661  39.4515915  41.2473373  25.2527542  40.5018120  41.2458916
  25.6012135  38.9589844  41.9791298  25.1692982  38.9738159  39.8188362
  24.9617805  37.9040909  39.7919312  24.4675770  39.5198708  39.1883430
  26.8407631  39.2086258  39.1178207  26.8054943  41.0130310  38.8814964
  26.5184956  41.5309982  39.7966156  27.7727871  41.3536568  38.5121460
  26.0363998  41.2720337  38.1538200  23.0204048  37.9195366  41.8367119
  23.5707607  37.3104477  42.7412643  22.1712894  37.3519402  40.9682045
  21.8479500  37.9536514  40.2242317  21.6435909  36.0431786  41.1804047
  21.5688763  35.8667183  42.2534294  20.1570721  36.1636505  40.6647644
  19.7066402  37.0054398  41.1906929  20.1661758  36.3834190  39.5971870
  19.2449722  34.9019623  40.8993149  19.8299541  33.9873657  40.8022995
  18.5529594  34.8445282  40.0591202  18.4539604  34.9382095  42.5065651
  17.1470013  36.1614304  42.2716522  17.6464558  36.9384346  41.6929436
  16.7912502  36.4742622  43.2533264  16.3633747  35.7369919  41.6440544
  22.4872017  34.9332199  40.5921173  23.3858719  35.1712379  39.8201942
  22.2869225  33.6904449  41.0640144  21.5094566  33.5388756  41.6906509
  23.0778561  32.4805603  40.6398048  24.1122684  32.7235985  40.3968658
  23.1449986  31.5313282  41.8716736  22.1386108  31.2344551  42.1668854
  24.0229492  30.3022461  41.4877968  23.9602242  29.6254559  42.3399277
  23.6469345  29.7206326  40.6461067  25.0024376  30.6963730  41.2169342
  23.7911034  32.2772102  43.0502357  23.0598869  33.0012283  43.4097099
  23.9034729  31.5890427  43.8880310  25.2116661  32.9292641  42.9139023
  25.8024864  33.0428467  43.8228149  25.8608551  32.2432747  42.3697777
  25.1650352  33.9354820  42.4974289  22.3742046  31.7702503  39.4473991
  21.1602650  31.4627018  39.5489082  23.1178894  31.5858116  38.3265648
  24.0365906  32.0053444  38.3354836  22.6703415  30.8527412  37.1610069
  21.6892624  30.4020214  37.3107872  22.6278801  31.7293472  35.9160728
  23.5098896  32.3425598  36.1008301  22.8054771  31.2058620  34.9766464
  21.3044415  32.5655136  35.7270660  21.2067566  32.8682022  34.6845016
  20.5370445  31.8110580  35.9002800  21.1871643  33.7980118  36.6215019
  21.3443203  33.4425049  37.6398430  22.0350018  34.4514275  36.4157753
  19.8950272  34.4237213  36.5224953  19.1866932  33.7482033  36.2733994
  19.5800228  35.6852570  36.6125870  20.5452976  36.5751305  36.8233910
  20.3736172  37.5662613  36.7323532  21.5300617  36.3725815  36.9199028
  18.3312931  36.0137291  36.6062698  17.6872864  35.2612648  36.8041496
  18.0673065  36.9663582  36.8134193  23.5850639  29.6035194  36.9311295
  24.7855816  29.7466202  37.1051788  23.0214157  28.5759010  36.3350830
  22.0140076  28.5307655  36.2785873  23.7491608  27.3902321  35.9893303
  24.5947876  27.2643986  36.6654854  23.1799126  26.4676399  36.1028366
  24.3011875  27.3734398  34.5747757  23.6607895  27.9716015  33.7027130
  25.5675163  26.9110222  34.4309883  25.9954929  26.5681381  35.2791405
  26.3408089  26.9010887  33.2209206  25.7183304  27.1863976  32.3728523
  27.5125828  27.8675747  33.2901421  28.0522327  27.8219185  34.2360802
  28.6007862  27.7022648  32.1907692  29.1894073  28.6071968  32.0400276
  29.2516785  26.8584900  32.4198570  28.1383114  27.4289055  31.2423496
  26.9621506  29.2993736  33.0068092  26.7793083  29.5042305  31.9519615
  25.9636612  29.4912281  33.3996391  27.8452492  30.5334072  33.4601784
  27.3039570  31.4791813  33.4851189  28.1157970  30.4097118  34.5088005
  28.7774410  30.4960918  32.8965111  26.9547977  25.4844208  32.9780884
  27.6046028  24.9712830  33.8417473  26.6059380  24.9181232  31.7957554
  25.9886723  25.4128132  31.1677704  26.9527855  23.5580044  31.3836060
  27.5711060  23.0654545  32.1340561  25.6317177  22.6928024  31.1844425
  25.0844021  22.9834862  30.2877541  25.8766613  21.6306877  31.1881371
  24.6596127  22.8397388  32.3577499  25.2623253  22.6757965  33.2510338
  24.2722073  23.8553905  32.4381943  23.5071545  21.7835121  32.3000946
  24.0054035  20.8762245  32.6416740  22.8684196  22.0090923  33.1540413
  22.6491508  21.6733837  31.1166039  22.1314888  22.4190063  30.6736908
  22.6389427  20.5809460  30.3924446  23.2943993  19.4997578  30.7533474
  23.5450268  19.3473091  31.7198086  23.3250656  18.6776905  30.1673737
  22.0119152  20.5049229  29.2841396  21.9997272  19.6083202  28.8193188
  21.4719601  21.2968769  28.9657726  27.6925697  23.3344116  30.0465260
  27.7020931  24.1371384  29.1517735  28.1735477  22.0925045  29.8330135
  28.1215515  21.4317436  30.5951080  28.7871437  21.7204132  28.5614758
  28.0577316  22.0147858  27.8068886  29.7605591  22.1406326  28.3085308
  29.0236664  20.1685963  28.4112110  29.0001411  19.4913502  29.4572659
  29.5645065  19.7707539  27.1939640  29.5525837  20.4757233  26.4707947
  30.0297031  18.4765816  26.7726574  30.5533047  18.0194759  27.6122990
  28.7884007  17.6070061  26.5367947  29.0307674  16.6293736  26.1201534
  28.2300892  17.4921474  27.4658775  27.9822578  18.0751057  25.9718914
  31.0727921  18.4707947  25.6688156  31.0872154  19.4377632  24.8604145
  31.7644768  17.3712158  25.5610466  31.6232643  16.7484951  26.3435936
  32.8184357  17.0834427  24.5213318  32.3290749  17.4254246  23.6093636
  34.1124268  17.8239632  24.8640537  33.9462090  18.8562450  25.1720695
  34.8277359  17.1774311  26.1090469  35.3013229  17.9228840  26.7478886
  34.1855927  16.6325741  26.8010616  35.5442162  16.4390430  25.7491398
  34.9176483  17.8337917  23.7066879  35.6108742  18.4759769  23.8759098
  33.0257607  15.5719452  24.4009571  32.7105484  14.8322773  25.2975273
  33.8461151  15.1601620  23.3951302  34.2772331  15.8700466  22.8204117
  34.2845993  13.7776585  23.2275639  34.1667938  13.2251177  24.1597252
  33.4314461  13.0734472  22.0742970  33.8197098  12.0864859  21.8227806
  31.9867077  12.8535013  22.4712219  31.4589901  13.7970400  22.6103382
  31.6271553  12.3230639  21.5894852  31.9293270  12.1989603  23.3409252
  33.5733528  13.8458519  20.8498249  34.4979362  13.6584558  20.6719799
  35.7949104  13.6275969  22.9859390  36.4423523  14.5207033  22.5192947
  36.3220787  12.3789320  23.2107449  35.6596527  11.7983932  23.7049809
  37.7440605  12.0254774  23.0280762  38.1855698  12.7441444  22.3376503
  38.5549011  11.9925222  24.3355694  39.5495148  11.5810804  24.1636124
  38.7608910  13.3854971  24.9573326  37.7982559  13.8967533  24.9504967
  39.1346512  13.4017820  25.9811192  39.4360085  13.9026833  24.2755356
  37.9495163  11.1382265  25.4648190  37.8994293  10.1102209  25.1059532
  38.5789452  11.2647228  26.3456802  36.9019585  11.4337530  25.5231400
  37.8403549  10.6394005  22.3806572  36.9617767   9.8424749  22.5155106
  38.8802109  10.3483829  21.6481209  39.6316109  11.0016060  21.8178062
  39.1002922   9.1012526  20.9718533  38.1806374   8.6577682  20.5901966
  39.9696579   9.4307384  19.7172813  40.9769211   9.7428284  19.9931831
  40.1020889   8.5329103  19.1135693  39.4017525  10.4507170  18.7243900
  39.5046806  11.4135036  19.2249374  39.9428978  10.5122557  17.7802105
  37.9187469  10.3263197  18.4457188  37.2862129  11.3994045  18.3718472
  37.4497566   9.1589584  18.3805256  39.8816681   8.0338888  21.7848301
  39.8763695   6.8443613  21.4692097  40.4835739   8.4086847  22.9177780
  40.3755493   9.3847027  23.1540546  41.3425560   7.4586911  23.7559528
  41.0793076   6.4510851  23.4341927  42.8469963   7.5805221  23.3686028
  43.3143654   8.5465221  23.5596771  43.4563522   6.9529829  24.0189762
  43.2399406   7.1575947  21.9109879  43.1313210   6.0731640  21.9286499
  42.4879684   7.5431929  21.2225399  44.6713448   7.5229940  21.5420837
  45.4094009   7.1170917  22.2339058  44.8528976   7.0853925  20.5604286
  44.7793427   8.9892607  21.5406990  45.2615395   9.4497490  22.2993393
  44.4048767   9.7526741  20.5531254  44.0457153   9.3119125  19.4342155
  43.7201729   9.9561844  18.7277889  43.7799110   8.3455143  19.3096199
  44.3880997  10.9927073  20.6364365  43.8210144  11.4175320  19.9166851
  44.7018356  11.3481722  21.5282402  41.1361961   7.6589160  25.2396698
  41.2943954   8.7903967  25.6823387  40.9680176   6.6476979  26.0715313
  40.8556862   5.7498541  25.6228008  40.8964996   6.6056070  27.5431423
  40.1949883   7.3446937  27.9301109  40.2805824   5.2435532  28.0375805
  39.4342957   5.0382805  27.3820171  40.9705544   4.4243703  27.8351479
  39.8329926   5.2147765  29.5557823  39.4745369   6.2859926  30.1657314
  39.7551498   4.1103625  30.1443119  42.3087692   6.8860207  28.1963348
  42.8324242   6.0118542  28.8292713  42.8611641   8.0363855  27.9215450
  42.2193527   8.6676989  27.4637012  44.2071419   8.5556841  28.2428131
  44.5967979   7.9732275  29.0776844  45.2474213   8.3791313  27.1083279
  45.1056061   7.3630118  26.7402325  44.9089203   9.3093348  25.9762001
  45.3998451  10.2807264  26.0352993  45.2123260   8.8683252  25.0266953
  43.8306847   9.4627934  26.0204201  46.5724716   8.5000248  27.4956284
  46.8170891   7.7339311  28.0199032  44.1913605  10.0504227  28.7337990
  43.4100266  10.9152641  28.2718124  44.9968491  10.2530842  29.7668648
  45.5346832   9.4565163  30.0772076  45.0243073  11.4440269  30.5498657
  44.0058937  11.5316401  30.9283581  46.0930214  11.1641426  31.6988144
  45.6915970  10.4201269  32.3868561  46.9984932  10.6854696  31.3258686
  46.4195595  12.4311552  32.5368652  46.9142952  13.2288723  31.9828014
  45.4605484  12.8230371  32.8757210  47.2734032  11.9191952  33.8316231
  47.4359665  10.6788578  34.0439606  47.7256050  12.7868528  34.5938110
  45.2825165  12.7354698  29.7121487  44.5814362  13.7351770  29.7127342
  46.2823296  12.6415434  28.7672424  46.7458344  11.7457151  28.7147541
  46.6325684  13.6696072  27.7842464  46.7120476  14.6053743  28.3375301
  48.0581779  13.1807785  27.2507515  48.2181435  14.0853653  26.6640358
  48.7297974  13.0824203  28.1035995  48.0405693  11.8192663  26.4871655
  48.0634880  10.9980154  27.2034893  47.1757584  11.7863922  25.8244991
  49.2696533  11.7835464  25.5484352  50.2809372  12.4820471  25.8591499
  49.2367401  11.1776638  24.4371128  45.6379204  13.8932714  26.5755920
  45.8877487  14.7346735  25.7292576  44.4665527  13.3031712  26.7053394
  44.3793106  12.5874386  27.4125996  43.2982140  13.6163816  25.8809776
  43.5318222  14.5032806  25.2919636  42.8930359  12.4299707  24.9554615
  42.8268623  11.5986204  25.6573009  41.9031982  12.6485558  24.5547848
  43.9391327  12.0075197  23.9466858  44.8261566  11.7194433  24.5108662
  43.5296249  11.1489334  23.4144917  44.3015518  13.0273390  22.8617020
  45.4807358  13.0281067  22.5390472  43.4346886  13.7871618  22.4915962
  42.1600952  14.0545092  26.7449169  41.6510391  15.1358299  26.5489731
  41.7873421  13.2412539  27.7791386  42.1751213  12.3089094  27.8006153
  40.7687874  13.5519361  28.6612282  39.8585625  13.6416712  28.0683193
  40.5566139  12.4496431  29.7663670  41.5211792  12.1889601  30.2019768
  39.7088089  12.9498329  30.9658737  38.7026863  13.2248220  30.6493282
  39.5734367  12.0759706  31.6031647  40.2205429  13.6970186  31.5724525
  39.9587250  11.1769218  29.1596317  38.9014626  11.2982798  28.9239063
  40.4124260  11.0132437  28.1821537  40.2476578   9.9443588  29.9869270
  41.2492371  10.1432323  30.3682270  39.4378777   9.8080940  30.7037201
  40.2594910   9.1458931  29.2450294  40.8860550  14.9708433  29.2018013
  40.0630760  15.8587971  28.9677734  41.9880486  15.2592630  29.8721313
  42.6556168  14.5092192  29.9811592  42.2317314  16.5783615  30.4722748
  41.3126373  16.8857880  30.9711266  43.4413681  16.5556412  31.4483757
  44.3329849  16.5970573  30.8227539  43.3619461  17.4261322  32.0995560
  43.4150162  15.4672079  32.4683990  43.2942238  14.4957838  31.9889755
  44.6879463  15.3693361  33.3080711  44.6383095  14.6835556  34.1538467
  45.5116043  15.1143303  32.6412430  44.8864517  16.3412018  33.7599220
  42.1650543  15.5726929  33.3486023  42.1385994  16.4765320  33.9572716
  41.2388458  15.5546913  32.7742119  42.0838699  14.6553516  33.9316902
  42.5553818  17.7113914  29.4568748  42.1188202  18.8290672  29.7506962
  43.2218590  17.5110950  28.3484097  43.6032295  16.5786152  28.2767143
  43.3615723  18.5395012  27.2975082  43.7933044  19.4192047  27.7748241
  44.3267746  18.1556416  26.1806908  44.0617256  17.1945248  25.7401180
  44.2759056  18.8327694  25.3280430  45.7174721  18.1039143  26.6498070
  45.9382362  18.9828205  27.2555199  45.8281555  17.2185516  27.2758961
  46.8888283  18.1441898  25.6217003  46.7417603  18.2318344  24.3975887
  48.1519203  18.1600170  26.1576557  48.1761742  18.5002460  27.1083183
  48.9550781  18.3187389  25.5661793  41.9336967  18.8765411  26.8179684
  41.6431465  20.0343895  26.8627510  41.0784683  17.9796619  26.4648209
  41.3926811  17.0198250  26.4557858  39.7708740  18.3898239  25.9307060
  40.0071182  19.1571426  25.1934738  39.2276268  17.1650162  25.2244644
  39.5331955  16.2034760  25.6369781  38.1390266  17.1979542  25.2687969
  39.5892525  17.1039963  23.7085838  39.0014343  16.3695679  23.1579647
  39.1408424  17.9616642  23.2071533  41.0466919  16.7858219  23.3147144
  41.6944275  17.6213055  23.5802498  41.4743118  16.0319405  23.9757004
  40.9897766  16.4145908  21.8239841  40.2955742  15.5771112  21.7545280
  40.6547432  17.2243595  21.1758118  42.3009834  15.9298191  21.5811996
  42.4703064  15.1259079  22.1686993  42.3815727  15.6111231  20.6261921
  42.9382782  16.7024727  21.7114410  38.8117561  18.9449482  26.9733791
  38.0542450  19.8480148  26.6620140  38.9514885  18.4894238  28.2201595
  39.6283302  17.7740612  28.4443092  38.1411209  19.1517467  29.3080101
  37.0897636  19.2481995  29.0370045  38.2098045  18.2969856  30.6074371
  39.2409744  18.2507973  30.9576702  37.4738503  18.7708378  31.8845558
  37.2725449  17.9638615  32.5890884  38.0877571  19.5404358  32.3524628
  36.4718056  19.1340427  31.6563301  37.8299484  16.9542217  30.2868118
  38.5374413  16.5331097  29.7931347  38.6301117  20.5484257  29.6335850
  37.7853661  21.4273663  29.8714180  39.9327736  20.8880959  29.4757328
  40.5602112  20.0971565  29.4467850  40.5135117  22.2431755  29.3763618
  40.2693558  22.8109188  30.2742233  42.0180740  22.2235107  29.4925938
  42.2886810  21.6779499  30.3966045  42.4589500  21.6473484  28.6791019
  42.6210670  23.6010914  29.6006718  42.3252487  24.2360630  28.7655659
  42.1340637  24.0941525  30.4419918  44.1656075  23.5527287  29.8015099
  44.3553505  22.9811897  30.7100487  44.6055565  23.1162949  28.9048100
  44.6252594  24.9556522  30.1511841  43.8251495  25.4951706  30.6579857
  45.4703598  24.8516197  30.8316879  44.9408188  25.7173958  28.8998260
  44.1647301  26.0195007  28.3284073  45.4957428  26.5358887  29.1053276
  45.5804367  25.2080326  28.3069191  39.9202995  22.9157619  28.1025867
  39.3584442  23.9760685  28.2492561  39.9638214  22.4134369  26.8875237
  40.4901619  21.5767670  26.6800385  39.4144249  23.1543941  25.6812649
  39.8979492  24.1241779  25.5636787  39.7233009  22.4364758  24.3346500
  39.2211342  21.4713898  24.2672749  39.4087029  23.0200195  23.4694309
  41.2713051  22.2430172  24.1775684  41.8307610  23.1500130  23.9484978
  41.5790787  21.7708416  25.1105347  41.7018394  21.2110500  23.1377850
  40.8935051  20.6500244  22.3812695  42.9086075  20.6496449  23.1369438
  43.0675240  19.9812794  22.3965836  43.6667709  20.9610348  23.7271423
  37.9240417  23.4322243  25.7739334  37.4441376  24.5387402  25.4257736
  37.1334572  22.4910107  26.3734837  37.5973167  21.6411972  26.6611500
  35.7247505  22.7293625  26.6912098  35.2969704  22.9455223  25.7122402
  35.0296669  21.4795990  27.2402115  35.0594826  20.6648979  26.5166950
  35.6853447  21.2453499  28.0788498  33.5764542  21.6268291  27.7566528
  33.5900154  22.2747784  28.6330528  32.5942688  22.0993633  26.6097355
  32.8732491  21.6242599  25.6692352  31.5247726  21.9971809  26.7936783
  32.6973610  23.1790943  26.5017834  33.1496773  20.2380772  28.2337112
  33.9184494  19.9119930  28.9342518  32.2140656  20.3270741  28.7858067
  33.0450211  19.5502834  27.3946152  35.5312157  23.9970303  27.5913677
  34.7774506  24.9328499  27.2839832  36.2119827  23.9786835  28.7643871
  36.8999672  23.2497692  28.8887177  36.1721649  25.0541897  29.8089123
  35.1302452  25.2181187  30.0839138  36.9349785  24.6175423  31.0268345
  37.9370613  24.2816410  30.7601910  37.1395187  25.5548592  31.5442333
  36.2149124  23.6439323  32.0012550  35.7099419  22.8232880  31.4917011
  37.3589172  23.0062141  32.7912598  37.8575630  23.7532597  33.4088287
  36.9509354  22.2231064  33.4303169  38.1092682  22.5278244  32.1618042
  35.1806068  24.2322903  32.9417000  34.3511505  24.6401920  32.3640137
  34.9307785  23.4416580  33.6492195  35.5526810  24.9600163  33.6628685
  36.5969734  26.4632854  29.2366142  35.9702835  27.5089989  29.4767570
  37.6105080  26.4875126  28.3307438  38.0209274  25.5828629  28.1483631
  38.1977882  27.6758251  27.7774982  38.4988403  28.3188496  28.6045341
  39.4689178  27.4400311  26.9736538  39.2480469  26.6249409  26.2844906
  39.6177177  28.3481045  26.3893929  40.6731339  27.1771641  27.8379498
  41.0124779  27.9730263  28.5009365  40.3673134  26.4445248  28.5848198
  41.8867569  26.5892582  27.0666409  43.0489082  26.8843651  27.4866619
  41.7839928  26.1572094  25.8857594  37.1860008  28.3610725  26.8195591
  37.0897522  29.5756264  26.8213654  36.3460350  27.5958366  26.1754951
  36.6795959  26.6455364  26.0995522  35.1850471  27.9956970  25.3587952
  35.5549583  28.7799282  24.6983013  34.7328339  26.8935509  24.3707161
  34.8323860  25.9188652  24.8483925  33.6480637  26.8655434  24.2678089
  35.4634857  26.8917866  23.0243435  34.8792381  26.2490959  22.3657818
  35.4981766  27.8776398  22.5606670  36.7894554  26.1954632  23.1110039
  37.3169518  26.6841621  23.9301624  36.6678848  25.1125050  23.0881958
  37.5192986  26.5941792  21.8327904  36.8703384  26.3485279  20.9921932
  37.7119522  27.6669788  21.8230839  38.7548256  25.8450375  21.7418861
  38.6026688  24.8474808  21.6990509  39.3277016  25.9937725  20.9234791
  39.3805923  25.7966747  22.5331993  34.0596237  28.5953884  26.2716179
  33.4461937  29.5565414  25.8032703  33.7994347  27.8907986  27.3901768
  34.3813057  27.1010609  27.6306744  32.7409554  28.2636108  28.4393311
  31.7876148  28.4925385  27.9630604  32.5297928  27.1441231  29.4705353
  33.4471474  26.6846561  29.8385811  31.7230415  27.7445641  30.6942234
  31.5495834  26.9940052  31.4653740  32.2326546  28.6209507  31.0946522
  30.7682915  28.0165119  30.2441139  31.8129463  26.0273304  28.7195148
  31.0129395  26.3976936  28.0784855  32.4830284  25.6579247  27.9432144
  31.1369171  24.8667412  29.4862576  31.8412952  24.0802650  29.7571945
  30.5612068  25.4348183  30.2169781  30.3896904  24.5206852  28.7721157
  33.0398064  29.6474094  28.9484882  32.1541634  30.5153694  28.9409771
  34.2795258  29.9511967  29.2597103  34.9703331  29.2153778  29.2215595
  34.7589989  31.2262688  29.6268559  34.1653976  31.6285820  30.4477577
  36.1461029  31.0418816  30.2737923  36.7184563  30.5675621  29.4765892
  36.5597229  32.4585876  30.6036854  36.8344383  33.1040726  29.7694340
  35.8209076  33.0045319  31.1903687  37.4411469  32.3679352  31.2384911
  36.1466942  30.1117687  31.5660725  35.8343010  30.6653633  32.4515343
  35.4610977  29.2653961  31.5245895  37.5361481  29.6394367  31.8775654
  37.8483276  28.9571114  31.0869484  38.3036232  30.4134407  31.8754025
  37.6714821  29.0915813  32.8101082  34.6942749  32.1985054  28.5002842
  34.0993309  33.2685471  28.6770668  35.1190834  31.8630447  27.2792034
  35.5503693  30.9627228  27.1258564  35.1217079  32.7338791  26.1265602
  35.3660736  33.6890945  26.5912743  36.0236511  32.4157219  24.9590168
  35.7930908  31.4118462  24.6024017  35.8726158  32.9851685  24.0419445
  37.4945641  32.4412155  25.3353729  37.6463356  32.1353531  26.3705120
  38.0114365  31.7295723  24.6915531  37.9783287  33.8286057  24.9395714
  39.0067940  33.9385529  24.2573891  37.4535255  34.8588715  25.4307404
  33.7226105  33.0303345  25.5151157  33.6244736  33.8440399  24.5843353
  32.6074524  32.4676552  26.0262375  32.7307854  31.5794048  26.4908905
  31.2231636  32.8497543  25.6830235  31.2905579  33.4130745  24.7523079
  30.3276291  31.5293865  25.4558163  30.4037170  30.8689957  26.3196411
  29.2850399  31.8389492  25.3831749  30.7195110  30.7870274  24.1482601
  31.6787701  30.2890224  24.2893772  29.9491806  30.0376396  23.9662876
  30.7613754  31.8190155  22.9912949  29.8258190  32.6615791  22.8962440
  31.7536411  31.7759342  22.1980343  30.5345287  33.6034966  26.7681885
  29.6839981  34.4159050  26.5238361  30.8219337  33.2525406  28.0794773
  31.4659500  32.4873886  28.2205009  30.2011337  33.7605629  29.3491611
  29.2730675  34.2860298  29.1240330  29.7808743  32.5912361  30.2635727
  30.6406364  32.1082611  30.7279472  29.2078819  33.0863647  31.0475540
  28.8765602  31.5903130  29.5008202  27.6239662  31.7821407  29.3929081
  29.4109192  30.5414925  29.0410480  28.8686886  29.9183846  28.4598217
  30.4077663  30.3978405  29.1169395  31.0675659  34.7749939  30.0877800
  30.7067738  35.3914566  31.0532551  32.3449173  34.9816895  29.6344490
  32.6734962  34.3354645  28.9312229  33.3113594  35.9780006  30.0970669
  34.1865654  35.6966171  29.5114574  32.8399963  37.3613396  29.7185307
  31.9918308  37.7780342  30.2617455  33.6431580  38.0341263  30.0191841
  32.7168732  37.5570717  28.2165756  33.4563255  37.0208931  27.1894932
  34.4212494  36.7274551  27.2434902  32.7987137  37.1769981  26.0505295
  33.1933632  37.0833549  25.0495892  31.6121483  37.7219124  26.3408928
  30.9136963  38.0193176  25.6746979  31.5631962  38.0381279  27.6685848
  30.8044720  38.5507088  28.2413082  33.5815201  35.7717781  31.6365509
  33.3987694  36.6971931  32.4477654  33.7800941  34.5732765  32.0818596
  33.8193436  33.8350296  31.3937073  33.6099930  34.1226273  33.4787331
  32.9779320  34.8579025  33.9766960  33.0592690  32.6660309  33.6544876
  33.7921829  31.9981632  33.2018394  32.7073898  32.2648010  35.0414581
  32.3003502  33.1227531  35.5765724  31.8395729  31.6067371  35.0855789
  33.6156349  31.9207783  35.5362701  31.9826698  32.3321609  32.7982903
  31.3256321  33.0254593  32.8944016  34.8811646  34.2300758  34.3393364
  35.9145164  33.9283142  33.7452354  34.8532372  34.6043015  35.6324120
  33.9796944  34.7624054  36.1141090  36.0637283  34.5753250  36.5478859
  36.8553467  34.1669197  35.9196777  36.3634644  35.9630356  37.0190811
  37.3223495  36.0149727  37.5347786  36.2852974  36.5901108  36.1309547
  35.2587929  36.4577332  38.0363312  34.3017006  36.4154015  37.5164413
  35.3880234  35.8440590  38.9278488  35.4212151  37.9027634  38.3864479
  35.4657440  38.4867249  37.4671478  34.5906181  38.2178726  39.0180397
  36.6913681  38.0447845  39.2968254  36.6588783  37.3552094  40.1403465
  37.5913696  37.8283844  38.7212639  36.7701607  39.4048958  39.7675438
  36.7740173  39.9921875  38.9458542  35.9370918  39.7069855  40.2521477
  37.5049286  39.6110382  40.4291496  35.9446831  33.4938164  37.6696930
  34.7906494  33.3108101  38.1021652  37.0195656  32.9834671  38.2475243
  38.3964958  32.9501839  37.7243042  38.8133430  33.9357986  37.9314346
  38.4129410  32.7532539  36.6523666  39.1645508  31.7706966  38.4393654
  40.2495308  31.8619881  38.4902649  39.0990639  30.8424778  37.8717194
  38.3521881  31.4575920  39.6547508  38.6572952  32.0510826  40.5165977
  38.4924355  30.4108562  39.9245148  36.8837013  31.9110546  39.2326775
  36.3604851  31.0868111  38.7479401  36.1589546  32.2338142  40.5461884
  35.2797508  31.5274601  40.9561157  36.3805046  33.4348412  41.0694351
  37.1394234  33.9837608  40.6915092  35.8067627  33.8721161  42.2524567
  35.8833389  32.9874191  42.8845596  36.4852905  35.0907784  42.8950882
  36.5622864  35.8715630  42.1384163  35.8599243  35.4282265  43.7216148
  37.8707390  34.6042061  43.2995300  37.7788658  33.9463348  44.1637459
  38.4199562  34.2273483  42.4367218  38.7850456  35.7434196  43.8605614
  40.0257225  35.6067963  43.7834892  38.3084641  36.6725349  44.5399666
  34.2564201  34.0615501  42.1720428  33.6637650  34.1191940  43.1922531
  33.5523567  33.9829903  41.0095978  34.0914116  33.8125648  40.1726532
  32.0559692  34.1532059  40.8313103  31.7722626  34.6606522  41.7533226
  31.7591648  35.0886993  39.6851425  32.3995285  34.7697067  38.8627853
  30.7645473  34.8458710  39.3111534  32.0152359  36.5510712  39.9575882
  32.1283073  37.0009956  41.1186409  31.9425468  37.3223953  38.9929466
  31.2706490  32.8207703  40.7317505  30.0410347  32.8343658  40.8296242
  32.0652809  31.7746639  40.4901123  33.0454788  31.9204521  40.2949829
  31.6728573  30.3800659  40.5996094  30.7271576  30.2970715  40.0640068
  32.6693535  29.4973373  39.8468590  33.6479416  29.2983665  40.2837563
  32.0012207  28.1067295  39.6891479  31.9794464  27.6895618  40.6959305
  31.0465565  28.2099075  39.1733284  32.6139107  27.4270229  39.0969429
  32.9497833  29.9384480  38.3527069  33.5650711  30.8368511  38.4015923
  33.5291977  29.1890621  37.8134499  32.0551834  30.0897388  37.7486267
  31.4472198  29.9546032  42.0362091  32.3363991  30.0188255  42.9368820
  30.2523899  29.4403057  42.3327408  29.5805225  29.4392796  41.5786247
  29.8583813  28.8504810  43.6131935  30.1386719  29.5377960  44.4113998
  28.3266430  28.5120220  43.7114182  28.0607224  27.6414261  43.1118774
  27.9325600  27.9622536  45.0545654  28.1970596  26.9049015  45.0665817
  28.3530045  28.3745365  45.9718170  26.8426743  27.9526825  45.0419960
  27.4346352  29.7068596  43.2125854  27.7783585  30.1229763  42.2655907
  26.4153023  29.3553104  43.0529861  27.4346333  30.4073086  44.0477333
  30.6180439  27.5994167  43.8708153  31.1316986  27.3111038  44.9729614
  30.5968857  26.6748161  42.8572807  30.0400219  26.9677925  42.0672379
  30.9646111  25.2656116  42.8466301  32.0197868  25.2272491  43.1172409
  30.0513496  24.5305519  43.8613815  30.5754070  23.6173649  44.1434364
  30.0949402  25.0713272  44.8067703  28.5853806  24.2330704  43.5141182
  28.1333637  25.1343746  43.1000748  28.6042976  23.4072437  42.8029556
  27.6892338  23.8427582  44.7172508  27.8990231  24.3166943  45.8127098
  26.6103382  23.1092014  44.4936905  25.9813099  22.8924618  45.2535896
  26.3010235  22.7380886  43.6067314  30.6511955  24.6131420  41.5162811
  29.8048115  25.0953102  40.7672043  31.3891239  23.5494328  41.1859322
  32.0718613  23.1872425  41.8361511  31.3637447  22.7710323  39.9692421
  30.5430660  23.1939564  39.3898239  32.6034546  23.0725060  39.0722237
  32.7073326  24.1466446  38.9188194  33.4741516  22.7586784  39.6479836
  32.6882019  22.2420464  37.7715759  32.9577599  21.2357540  38.0922279
  31.6979733  22.3288002  37.3243332  33.8272285  22.9191914  36.5760574
  35.2793503  23.5236416  37.4505386  35.7395515  22.7515965  38.0671844
  36.0208321  23.8916836  36.7414207  34.9435959  24.3356037  38.0955849
  31.1744328  21.2618217  40.1877556  31.6316643  20.6405964  41.0933113
  30.5592442  20.5721111  39.2282906  30.1510849  21.1049232  38.4735603
  30.4180126  19.0954399  39.1640511  31.0885105  18.6194210  39.8795509
  28.9573536  18.6421852  39.5244751  28.3624859  19.0892944  38.7280273
  28.8712769  17.5599709  39.4269867  28.5089874  19.0827141  40.9609947
  28.6589909  20.1618767  40.9928246  27.0426216  18.6448593  40.9775238
  26.5613575  18.6930161  41.9543343  26.4925079  19.2351608  40.2447052
  26.9936123  17.6042862  40.6567345  29.2346210  18.4719944  42.1484756
  29.3380718  17.3982468  41.9920578  30.2152634  18.9418964  42.2235222
  28.7223225  18.7398796  43.0725327  30.7945061  18.7424374  37.7439003
  30.3340607  19.3116703  36.7626991  31.6795826  17.7677822  37.6119308
  32.1854668  17.4642754  38.4317284  32.0970345  17.1243324  36.3161125
  31.7386684  17.7623940  35.5083046  33.6187325  17.2557640  36.2685509
  34.0708504  17.0784512  37.2443848  34.0280418  16.4839249  35.6167603
  34.1135826  18.6781673  35.8382225  33.4219246  19.3858719  36.2952385
  35.4547043  18.9950771  36.3865738  35.4253769  19.1636353  37.4630623
  36.0202484  18.0672951  36.3000641  35.9747581  19.8734264  36.0042877
  34.2306404  18.8198566  34.2901573  35.1355743  18.4050121  33.8461952
  33.4465065  18.3149376  33.7259827  34.2231979  19.8979568  34.1297188
  31.6269093  15.6671371  36.0876083  31.0973988  15.0612221  37.0208054
  31.8399601  15.1253538  34.9065742  32.2715874  15.7534199  34.2437553
  31.4711514  13.7286825  34.5661430  31.8155155  13.1026649  35.3893166
  29.9645958  13.5342226  34.3425598  29.4420891  13.6449146  35.2927361
  29.4861355  14.2592468  33.6841393  29.7313366  12.1960993  33.9079819
  28.9036121  12.0602999  33.4410400  32.2791290  13.2695818  33.4060478
  32.5985451  14.0526743  32.4929352  32.5315628  11.9779510  33.2207336
  32.2382545  11.3035231  33.9129868  32.8758240  11.3676863  31.9303074
  32.5222435  11.9703684  31.0937328  34.3882141  11.2457848  31.8535042
  34.7077789  10.8094654  32.7998695  34.7119141  10.5475035  31.0816727
  34.8406601  12.2328234  31.7578773  32.1957169   9.9353437  31.7623997
  31.8921795   9.2724199  32.7879372  31.8038979   9.5137434  30.5620327
  32.1333504  10.0532513  29.7743187  30.9456291   8.3262463  30.3774319
  29.9795990   8.4351206  30.8704128  30.5606956   8.2590485  28.8410473
  30.0511112   7.3199592  28.6253281  29.6837482   9.4551516  28.4510784
  28.7193604   9.1845512  28.8810005  29.9105492  10.4462776  28.8439274
  29.4532967   9.4422169  27.3857937  31.6380558   8.3843908  27.9641953
  32.0819206   7.5336246  27.9362125  31.6748123   6.9829960  30.7909374
  32.9121017   6.9633989  30.7388496  30.8253441   5.8877091  31.0262642
  29.3257885   5.7233357  30.8475246  29.0755100   5.7569175  29.7871780
  28.7324085   6.4336591  31.4232330  28.9780884   4.2644229  31.1719151
  29.2517128   3.7428701  30.2547379  27.9691067   4.1572394  31.5701199
  30.0492573   3.9714010  32.2390480  30.1199780   2.8967085  32.4067802
  29.8317680   4.5588484  33.1310730  31.3747883   4.6074295  31.6669598
  32.0122414   4.9039536  32.4999275  32.3101196   3.7857258  30.8007736
  32.6159515   2.6700611  31.1667099  32.8365135   4.2644038  29.7196579
  32.5225525   5.1742210  29.4134445  33.8102150   3.6536462  28.9135513
  33.9780197   2.6068320  29.1667728  33.4099464   3.7665706  27.4229832
  34.2540932   3.4089420  26.8333988  32.5159187   3.1445689  27.3790245
  32.8256416   5.0775080  26.8642883  32.3800392   5.1707602  25.6599445
  32.8338547   6.0822258  27.5660591  35.1690941   4.3548527  29.0979099
  36.2657623   3.8554828  28.7717190  35.1860161   5.4968243  29.8197899
  34.2796478   5.8398609  30.1042557  36.2900467   6.2746196  30.3053932
  37.1899719   5.9064221  29.8127861  36.1895752   7.7132492  29.8738613
  35.3751831   8.2164545  30.3950577  37.0432968   8.2424364  30.2972050
  36.0507736   8.0262442  28.3673668  35.2476120   7.4424324  27.9176998
  35.8114967   9.5224056  28.2978191  36.5760994  10.0781269  28.8406467
  36.0213737   9.6850414  27.2406521  34.7952461   9.7934179  28.5839787
  37.3020439   7.6205282  27.5747261  37.1297951   7.5848866  26.4990120
  38.1271629   8.2126236  27.9705791  37.4316368   6.5641289  27.8099403
  36.5094719   6.1242242  31.8210182  35.5426025   6.2151198  32.6327934
  37.7502594   5.9141765  32.2523689  38.4059982   6.1253548  31.5137806
  38.3027573   5.4790630  33.5607338  37.6598473   5.9105773  34.3279114
  38.1753807   3.9569585  33.6830177  38.9368362   3.5218642  33.0357285
  38.3605576   3.7085159  34.7280502  36.7969093   3.3358457  33.3959160
  35.5953331   3.5124793  34.1485748  35.4492073   4.1328940  34.9320488
  34.6237907   2.8111868  33.5442276  33.5795670   2.6763370  33.7846603
  35.1615219   2.1727006  32.5064812  34.6450882   1.5613251  31.8903503
  36.5207329   2.3927460  32.4388046  37.2644348   2.0225885  31.7486649
  39.7744484   5.8468065  33.8856926  40.2061462   5.5588255  34.9972496
  40.5173416   6.4562249  32.9437065  40.1851311   6.7031779  32.0224304
  41.9732246   6.7435393  33.1476631  42.5309830   5.8130617  33.2535858
  42.4956131   7.3165145  31.8237133  42.3052444   6.6918402  30.9509869
  42.0640221   8.2997684  31.6365204  43.5580559   7.5490270  31.8962135
  42.2858238   7.5856462  34.4468422  43.1081848   7.1495938  35.2230644
  41.5852547   8.7009287  34.5267715  41.1190987   8.9105864  33.6556549
  41.5772552   9.8078213  35.5433464  41.8343849   9.4140749  36.5266838
  42.7817535  10.7475405  35.1899223  43.6948204  10.1676331  35.0553246
  42.5058975  11.3844843  33.7810173  43.2035751  12.2073812  33.6254768
  42.5588264  10.5857687  33.0411835  41.5318718  11.8687334  33.8508835
  43.0836143  11.7550135  36.3180618  43.0575371  11.2422991  37.2795944
  44.0951347  12.1334467  36.1706696  42.2586403  12.4651861  36.2617722
  40.1649742  10.5009146  35.6425667  39.3188095  10.6246090  34.7551613
  39.9800148  11.0266991  36.8471069  40.6555138  10.8035421  37.5640488
  38.9291649  12.0614567  37.0902290  37.9700966  11.6478748  36.7783852
  38.8832245  12.3838358  38.6109009  39.8406754  12.6453934  39.0614319
  38.2247009  13.2412758  38.7496452  38.4286728  11.3284340  39.4739799
  37.0907784  11.0706816  39.7850685  36.2944145  11.6780453  39.3809471
  36.7510338  10.0357351  40.6209488  35.7328300   9.7223597  40.7983131
  37.6873512   9.2307434  41.2112122  37.3857231   8.4123411  41.8481102
  39.0492859   9.4452581  40.9850235  39.7276268   8.8617001  41.5897751
  39.3910332  10.5681810  40.2404518  40.4406967  10.8160772  40.1842804
  39.2674370  13.3244352  36.3710060  40.3848000  13.8841505  36.5363693
  38.3881302  13.8856936  35.4822083  37.0564766  13.2646990  35.1414223
  36.5570335  12.9690084  36.0640411  37.1583366  12.5488300  34.3257904
  36.3031235  14.4553986  34.5239258  36.0307503  15.1590090  35.3105965
  35.5022697  14.1836634  33.8362579  37.4352875  15.1341829  33.6829948
  37.1841621  16.1273823  33.3107224  37.5920677  14.5241604  32.7933884
  38.6071281  15.0463161  34.6269264  39.5417404  14.9458075  34.0751152
  38.8972855  16.3803482  35.2720833  39.2599144  17.2949772  34.5154762
  38.7164421  16.5351048  36.6365433  38.2234039  15.7718258  37.0774689
  38.8694344  17.8080845  37.3229790  38.5047264  18.5157185  36.5784378
  38.0835495  17.7449970  38.6440468  38.6820793  17.2127590  39.3833542
  37.8357887  18.7487278  38.9893608  37.1922722  17.1340332  38.5010300
  40.3209114  18.2360115  37.4924202  40.4899216  19.4423847  37.6738892
  41.3611526  17.4511089  37.1961136  41.1773453  16.4807262  36.9847260
  42.7367592  17.9494858  37.0202217  43.0715637  18.5161724  37.8890533
  43.5623932  16.7237720  36.9340248  43.4026413  16.0063248  37.7389145
  43.3596535  16.1770630  36.0130997  45.0881767  16.8322811  36.7891655
  45.2497749  17.1465015  35.7580223  45.3945122  17.5709953  37.5298157
  45.7582130  15.4871473  37.0221176  45.6923714  15.1390133  38.0529251
  45.3074265  14.7497320  36.3579483  47.2276955  15.5822811  36.7388725
  47.4556961  16.0023441  35.7592468  47.7484665  16.3092937  37.3620453
  47.8727226  14.2868547  36.9689560  47.6199074  13.5329542  36.3462067
  48.8754730  14.3824043  36.8950119  47.6150131  13.9878845  37.8986359
  42.9947929  18.9403782  35.8817444  44.0531158  19.6114731  35.8009148
  42.0420494  19.1260090  34.9217911  41.2722130  18.4774094  34.8395462
  42.1364861  20.2447624  33.9325790  43.1502037  20.3927517  33.5603180
  41.2744484  19.9150238  32.7091522  41.4018898  20.5304565  31.8185940
  41.4250526  18.8638687  32.4632034  40.2328911  20.0293369  33.0094795
  41.6013184  21.6150055  34.4648170  41.8914032  22.6401405  33.8831940
  41.0916176  21.6790390  35.6703529  41.0664368  20.8624058  36.2641335
  40.4999580  22.8810368  36.1887131  39.9742546  23.3662090  35.3663063
  39.4997139  22.4874287  37.3017578  40.0628700  21.8745403  38.0055542
  38.9114647  23.7413273  38.0433540  39.6323853  24.3397999  38.6003227
  38.3716774  24.3462124  37.3147621  38.3383636  23.3158493  38.8671417
  38.3750420  21.6846523  36.6566124  37.7751884  22.2896423  35.9767151
  38.6486206  20.7989197  36.0832634  37.7064819  21.3462753  37.4482117
  41.7016945  23.7490101  36.8249702  41.9391174  24.8920326  36.4628067
  42.5455055  23.1246967  37.7007065  42.1479683  22.3284798  38.1783066
  43.8919792  23.5497932  38.1165504  43.8403320  24.5874348  38.4462929
  44.3752289  22.7493153  39.3816681  45.3779488  23.0914288  39.6378098
  43.7410889  23.0376682  40.2200127  44.5181656  21.2240887  39.1345444
  43.5710564  20.8575096  38.7386856  45.2886429  21.0975895  38.3739777
  44.9975204  20.5171490  40.3449059  46.0688744  20.6091480  40.5233345
  44.5071983  20.9858856  41.1981201  44.6982498  19.0405540  40.3092422
  45.4243469  18.3644485  40.1201248  43.5172958  18.5134983  40.3966408
  42.3742180  19.1247158  40.5174789  41.5589676  18.5620003  40.7144966
  42.3841171  20.0526371  40.9161835  43.4244080  17.2305698  40.1944847
  42.5291214  16.7849426  40.3358383  44.2544098  16.6765499  40.0387421
  44.9207954  23.4237461  36.9543610  46.1133270  23.4948368  37.2229233
  44.4559975  23.3758488  35.6649323  43.4578972  23.4042053  35.5129700
  45.2454224  23.8019619  34.4674644  46.3036652  23.8398685  34.7259026
  45.1632080  22.8061562  33.2847595  44.9643135  21.8694401  33.8054352
  44.2235641  23.0137901  32.7728462  46.4397736  22.7092819  32.3933907
  46.1574707  22.2622452  31.4402046  46.9241676  23.6857166  32.3997498
  47.4921188  21.7945957  33.0733604  48.1057816  22.2128754  34.0948982
  47.7682266  20.7298126  32.4514961  44.9904251  25.2812634  33.9920273
  45.4161987  25.6464157  32.8707123  44.2971725  26.0910339  34.8208466
  43.9904213  25.7548218  35.7224922  43.9375687  27.4744759  34.5306702
  44.6562386  27.8969822  33.8284607  42.5739174  27.5591812  33.8438950
  41.9298363  26.8513432  34.3656464  42.0992088  28.5285053  33.9961243
  42.4841270  27.0809097  32.4059029  42.7725830  26.0375805  32.2779922
  41.0574265  27.2604218  31.8398094  40.8982239  28.3387222  31.8444290
  40.9830856  26.8438091  30.8353157  40.3678894  26.6365757  32.4085426
  43.3349342  27.9484806  31.5209293  43.0852776  29.0019913  31.6469536
  44.3978996  27.8523331  31.7421913  43.1899681  27.6238136  30.4905510
  44.0163918  28.4024792  35.7470741  43.7493057  28.0535183  36.8917809
  44.5093575  29.5986328  35.4313660  44.7015915  29.8051834  34.4615784
  44.7947197  30.6757126  36.4905853  45.6073914  30.3481026  37.1389160
  45.4302864  31.9003372  35.8012848  46.4042206  31.6998024  35.3548088
  44.8622284  32.2787247  34.9514389  45.5185699  32.9889107  36.6716118
  46.0484161  33.6246185  36.1850510  43.5704956  31.0318890  37.3309631
  42.4647827  31.2843494  36.8061714  43.7719803  30.9992924  38.6801758
  44.7241020  30.7580566  38.9154778  42.7434883  31.1269150  39.7418785
  43.2122726  31.2387848  40.7195435  42.1681900  32.0471802  39.6406593
  41.7974701  29.9307213  39.8678284  41.0930023  29.8711910  40.8558655
  41.6228371  28.9940968  38.9034119  42.3090973  28.9572849  38.1632843
  40.5200500  27.9810181  38.8863411  39.6289024  28.5787487  39.0778618
  40.3256493  27.3749142  37.4893799  41.2768021  27.0703239  37.0527611
  39.6268311  26.5497856  37.6269226  39.6334038  28.4125271  36.6187401
  40.2471046  29.3699055  35.9678497  41.3192596  29.4982319  35.9881859
  39.3522034  30.2524033  35.3647346  39.7519493  31.0157681  34.8378792
  38.0237579  29.7678242  35.5441513  36.7803688  30.2409649  35.1371193
  36.7389336  31.1046124  34.4899750  35.7163200  29.4805508  35.4565620
  34.7439194  29.8132820  35.1247063  35.7913589  28.2850018  36.2217178
  34.8847313  27.8062572  36.5611649  37.0512428  27.8731499  36.6626778
  37.0308151  26.9631996  37.2440338  38.2321510  28.5862312  36.3601379
  40.5135193  26.8889694  39.9722404  39.4361610  26.5033035  40.4645653
  41.7380295  26.5494957  40.4339447  42.5327950  26.9845161  39.9876213
  41.9222527  25.6473045  41.6039352  41.5670815  24.6479015  41.3526421
  43.4407120  25.5669041  41.9207230  43.7288361  24.6722851  42.4727592
  43.8738708  25.3991642  40.9346504  44.1283836  26.7292938  42.6055870
  43.6521645  26.8489704  43.5787239  45.1849670  26.4722023  42.6806831
  44.1425362  28.0947704  41.8721542  44.0686226  28.1576405  40.6595039
  44.2884445  29.2376480  42.4986916  44.6148186  30.0121784  41.9386177
  44.0673485  29.2161427  43.4839592  41.0751648  25.9322891  42.8274612
  40.9053078  24.9609032  43.6141129  40.5659828  27.0959625  43.1008377
  40.7717705  27.9565735  42.6139107  39.8177223  27.3844471  44.3462601
  40.0709496  26.6728725  45.1321564  40.1122818  28.7751007  44.9110069
  39.7318993  29.5024242  44.1937866  39.5055771  28.8305054  45.8148537
  41.5393715  29.0303574  45.3731728  42.0930710  28.3687611  46.5085258
  41.5601273  27.5742798  47.0096970  43.3412933  28.7235565  47.0189247
  43.7567139  28.0997658  47.7965546  43.9858093  29.8438072  46.3972855
  45.1409035  30.3318081  46.9257851  45.4313240  29.9238853  47.7448425
  43.4419937  30.4891644  45.2611847  43.9139023  31.3600941  44.8308525
  42.2266426  30.0703487  44.7324753  41.7469749  30.5953751  43.9196587
  38.2498322  27.2745209  44.0290375  37.3775520  27.3412495  44.9459000
  37.8361244  27.0263023  42.7894707  38.5683060  27.0438595  42.0939827
  36.5249176  26.5187798  42.2943192  35.7590942  27.1536274  42.7399521
  36.3410988  26.5922813  40.7870407  37.0787163  25.9680557  40.2826958
  34.9795265  26.0527515  40.3690643  35.0006180  24.9749031  40.5299873
  34.3005753  26.4161243  41.1404800  34.7061119  26.4180393  39.3791580
  36.4615898  28.0750141  40.2633591  37.5125504  28.3604774  40.2175293
  35.9634514  28.0423603  39.2943954  36.0321388  28.7419357  41.0109482
  36.3262405  25.0950985  42.8812675  36.9909897  24.1637936  42.4765091
  35.4659882  24.9519711  43.9538574  34.5594749  25.8326626  44.6237755
  33.8948593  26.3144321  43.9066391  35.1089325  26.6102295  45.1544228
  33.7321854  25.0351772  45.6035614  32.7972260  24.7750187  45.1073112
  33.4424629  25.5678711  46.5093193  34.6188545  23.8758278  45.9243584
  34.1188011  22.9871349  46.3094139  35.4112129  24.2130566  46.5925980
  35.3533020  23.6259403  44.6011581  36.3404617  23.2226391  44.8269119
  34.6530800  22.7026939  43.5752945  33.8845863  23.1433086  42.6716576
  34.8555870  21.3488178  43.7334709  35.3678055  21.1121635  44.5711632
  34.4723854  20.3661842  42.7377739  33.5236244  20.6884518  42.3087044
  35.5286484  20.3899651  41.6272354  35.3383636  21.3164883  41.0855293
  37.0080070  20.5363903  42.0413933  37.2350006  19.5844002  42.5212822
  37.7199364  20.7146740  41.2354965  37.1510735  21.3141117  42.7915802
  35.4316292  19.3287716  40.5011864  36.0784912  19.5816612  39.6611176
  35.7960815  18.3823013  40.9005203  34.4380531  19.1613617  40.0853920
  34.3773079  18.9667950  43.3187485  35.0259132  18.5581932  44.2803421
  33.5633736  18.1610756  42.6999779  33.0080070  18.5150757  41.9342384
  33.6585197  16.7073326  42.7857132  34.6894341  16.3893032  42.9411926
  32.7896156  16.2476902  44.0124588  32.5118561  17.0837841  44.6542587
  31.4612389  15.5418243  43.8103676  30.8939476  15.5583906  44.7409668
  30.8832111  16.1118431  43.0830002  31.5489216  14.5147638  43.4560127
  33.4905052  15.3024473  44.6877899  33.7649918  14.5261841  44.1941605
  33.1810341  16.0547142  41.4206467  32.6497765  16.8274670  40.5790977
  33.2508202  14.7415342  41.1767921  33.5185051  14.1901674  41.9795609
  33.0322037  14.0846882  39.8995781  32.6572304  14.8018284  39.1693687
  34.3797150  13.6072836  39.2627373  34.9055176  12.9525433  39.9576797
  34.0412865  12.9617233  38.4522934  35.5088806  14.9146156  38.7814369
  35.6823807  15.1535892  40.0843964  31.9986420  12.9691706  39.9217186
  32.2981644  11.9363079  40.5252151  30.8057728  13.0564413  39.2698097
  30.6284657  13.8256502  38.6397476  29.6833687  12.0960522  39.4520988
  29.7009830  11.7931194  40.4990082  28.3257828  12.8662004  39.1836739
  27.4484997  12.3195972  39.5296516  28.4023666  13.7321453  39.8412247
  28.0066185  13.1137657  37.6820946  28.9669361  13.2845554  37.1955490
  27.6115932  12.1488152  37.3643990  26.7441444  14.3316898  37.2017670
  27.5882683  15.8731432  37.6155701  27.7886105  15.8787527  38.6869850
  28.5299759  15.8134365  37.0699310  26.9819221  16.7409859  37.3561630
  29.8441505  10.8911219  38.6201706  30.4643478  10.9360342  37.5932693
  29.1752682   9.7941380  38.9875259  28.7570934   9.7675247  39.9065056
  28.9616909   8.6427469  38.0957069  29.8805828   8.4873247  37.5303917
  28.7105026   7.3465161  38.9240646  29.5084724   7.1660523  39.6443253
  27.8046913   7.4865503  39.5139771  28.7017841   6.1467476  37.9870224
  28.7122040   5.3047957  38.6791992  27.7348976   6.1743484  37.4845543
  29.7478905   6.0669518  36.9170341  30.8832493   5.6831741  37.1673622
  29.4165440   6.3202453  35.6402779  28.4700584   6.4378257  35.3079453
  30.1276512   6.2156444  34.9307137  27.8818779   9.0549002  37.0405197
  26.7584515   9.4578781  37.3527451  28.2180424   8.9383793  35.7128754
  29.1938019   8.8285084  35.4763947  27.3020725   9.0727377  34.6042480
  26.6841297   9.9240780  34.8896942  28.1167393   9.3217440  33.3238297
  29.0258236   9.8471422  33.6164589  28.7093792   8.4308519  33.1160088
  27.2945175   9.7823343  32.1476746  27.8429279   9.5016584  31.2484684
  26.3625870   9.2173119  32.1288528  27.0500202  11.2631283  31.9759407
  26.5807419  11.7098303  30.8936043  27.4924049  12.0840254  32.7924461
  26.3801327   7.8177776  34.5432892  26.7654629   6.7220874  34.8869057
  25.1624641   8.0117121  34.1509438  24.8656425   8.9179955  33.8183060
  24.2764187   6.8218451  33.9888153  24.5303078   6.1015253  34.7664909
  22.8060207   7.1430712  34.3029747  22.2041073   6.2393546  34.2075958
  22.7480145   7.3850827  35.3641891  22.2638626   8.2183762  33.3563232
  22.7381878   9.1791105  33.5565605  22.4323006   8.0004930  32.3016891
  20.4801731   8.5664482  33.6383858  19.5046558   7.0923386  33.1289330
  19.9835453   6.1483130  33.3888931  18.5057945   7.1413512  33.5624886
  19.4803829   7.0382595  32.0405388  24.4487057   6.3149056  32.5525169
  24.7859058   7.1998634  31.6953945  24.4028969   5.0339661  32.2552109
  24.1422920   4.4292970  33.0210838  24.3655281   4.4631839  30.8434639
  24.9388294   5.1114564  30.1807671  25.0146904   3.0995536  30.9059086
  25.8311176   3.1390748  31.6270065  24.2403412   2.4809799  31.3596172
  25.5331745   2.5277822  29.5303707  25.7547684   3.2982934  28.5431881
  25.6594353   1.3166666  29.3983574  22.8884258   4.4940605  30.3998528
  21.9927368   4.1807051  31.1446114  22.6906490   4.7994976  29.0934658
  23.5076942   4.8612971  28.5029430  21.3724155   4.9004130  28.4137287
  20.6465950   4.4179134  29.0683117  20.9959812   6.4181600  28.3478947
  20.7716141   6.7809849  29.3509483  22.0245628   7.2823606  27.5666046
  22.8746605   7.5100589  28.2097130  22.4941769   6.8563471  26.6799965
  21.6534595   8.2535295  27.2391720  19.6574459   6.7654071  27.7265892
  19.5027905   7.8383632  27.6128006  19.7298126   6.5058951  26.6704082
  18.7773571   6.2902226  28.1598835  21.3762970   4.0937176  27.0572720
  22.4343033   4.0459142  26.4370499  20.2124996   3.6479104  26.5810013
  19.5287228   3.4863262  27.3065624  20.0326748   3.1490691  25.2736492
  20.6415901   2.2476022  25.2052307  18.5514488   2.7859726  25.0366631
  18.3401546   2.0633407  25.8248615  17.4563923   3.8823683  24.9967690
  17.3607883   4.3614683  25.9711533  17.6321125   4.6539807  24.2472095
  16.4297390   3.5178761  24.9617157  18.4183426   2.0531073  23.8900337
  17.5083733   1.7482536  23.9149666  20.3911858   4.2826099  24.2880974
  20.0701599   5.4906754  24.4715424  21.0565567   3.9121940  23.1655445
  21.3382225   2.9608107  22.9767761  21.4751549   4.9483676  22.1395512
  21.8385639   4.5091443  21.2105103  20.6021156   5.4728818  21.7512417
  22.5192890   5.9106812  22.6681194  22.6653957   7.0658746  22.2177505
  23.3499794   5.5505953  23.7332249  23.2194748   4.5902882  24.0176163
  24.3433266   6.4215612  24.4552383  23.8869514   7.3375664  24.8304272
  24.8022461   5.8663230  25.2732868  25.5781937   6.8832250  23.6079597
  26.0481548   6.1290321  22.7817783  25.9530296   8.1630611  23.7099018
  25.5353966   8.7389717  24.4268456  27.1840477   8.6707859  23.0955200
  27.2526970   8.3361683  22.0604267  27.1406441  10.2057819  23.2096176
  26.3201237  10.6156158  22.6206474  26.9658031  10.5422869  24.2315254
  28.4255047  10.9297066  22.6455803  29.3914719  10.6465988  23.0637417
  28.5838718  10.7639561  21.1146240  27.8103695  11.3250771  20.5902805
  29.5293484  11.1820726  20.7691517  28.4873810   9.7131062  20.8416843
  28.2587337  12.4717674  22.9482479  28.9916496  13.0261126  22.3620453
  27.2306786  12.8133965  22.8278599  28.4809093  12.6074419  24.0067043
  28.4699306   8.1048145  23.7243080  28.6713104   8.0102510  24.9273148
  29.4528828   7.6929598  22.8810806  29.3387890   7.9402900  21.9085007
  30.6934128   7.0811095  23.3186550  30.5570526   6.5206728  24.2435417
  31.1499157   6.0809402  22.3043575  31.3825436   6.5521307  21.3493881
  32.0435486   5.6641359  22.7688980  30.1682243   4.9630303  22.2178326
  30.0612183   4.5357680  23.2148762  29.2610188   5.3455305  21.7501011
  30.6710510   3.9719894  21.1916180  30.8357372   4.5400782  20.2760563
  31.6296654   3.6614854  21.6072426  29.6330090   2.9127603  21.0894127
  29.5234604   2.3784392  22.0331287  28.6817989   3.4114265  20.9033070
  29.9832325   2.0512590  19.9925880  30.6983261   1.3923627  20.2657242
  29.1429634   1.5412701  19.7603016  30.2006664   2.5452015  19.1388645
  31.7955246   8.1250534  23.6930695  31.9041443   9.1140690  22.9655819
  32.6012955   7.9137354  24.7712345  32.4736443   7.0560598  25.2891121
  33.7668419   8.6573629  25.2095547  34.0728683   8.1271410  26.1113968
  34.9227371   8.4560032  24.1922417  34.7184448   9.0694656  23.3147278
  35.9192238   8.7385931  24.5317326  35.2028465   6.9860854  23.9322929
  35.4792404   6.5276704  24.8817997  34.2734833   6.5325055  23.5878391
  36.2642059   6.7756801  22.8209133  35.7763481   7.0926871  21.8991737
  37.1527252   7.3844786  22.9882507  36.5996170   5.2970977  22.6899872
  36.8320160   4.8810472  23.6702881  35.7490807   4.6740756  22.4133358
  37.6766510   5.1159778  21.6716156  37.3137016   5.3298144  20.7536602
  38.4877129   5.6840715  21.8704929  37.9455338   4.1424274  21.6707516
  33.5549774  10.1508894  25.4793587  34.4216728  11.0215740  25.1397038
  32.3988533  10.3916254  26.1013851  32.0035706   9.6159906  26.6134834
  32.0111160  11.7902498  26.3538704  32.5981293  12.4174862  25.6829758
  30.5333691  11.8929796  25.9805508  30.3106251  11.6171494  24.9498215
  29.9261894  11.2029934  26.5665131  29.8981380  13.5832605  26.1918716
  31.0248909  14.2824316  26.3546085  32.4252701  12.3054476  27.7739105
  32.4196014  11.5686035  28.8001022  32.8811760  13.5644760  27.8377323
  32.8632660  14.1108475  26.9884644  33.0667267  14.3002157  29.0998535
  33.0753822  13.6657915  29.9861565  34.5084229  14.8220005  29.1894341
  34.6859016  15.5349684  28.3842773  34.7308235  15.6092777  30.5629063
  34.0069466  16.4236908  30.5917511  34.5569725  14.8970098  31.3694725
  35.7579422  15.9657383  30.6407795  35.5238914  13.6624899  28.9964924
  36.4282112  13.9014006  29.5561619  35.0792694  12.7104244  29.2862873
  35.9280205  13.5036583  27.5288773  35.0371132  13.4783573  26.9013901
  36.6409836  14.2443380  27.1666927  36.3599892  12.5042477  27.4769936
  32.0284462  15.3757629  29.2540703  31.7279797  16.1125393  28.2950382
  31.4751148  15.5178757  30.4325600  31.8739491  14.9679232  31.1799431
  30.5138149  16.5852642  30.8036079  30.4847870  17.3013401  29.9823322
  29.0586319  16.0963593  31.0132561  28.9484425  15.6015511  31.9782028
  28.4020729  16.9434071  31.2121353  28.5189075  15.2646494  29.8718376
  28.8100262  15.7433901  28.9368744  29.0087624  14.2924681  29.8170052
  26.9781666  15.1412334  29.7861214  26.5837364  16.1547585  29.8588791
  26.5710239  14.6304283  28.9135303  26.4909458  14.4510288  31.0521469
  26.7362137  13.4874706  31.2296276  25.9557686  14.9992533  32.1023979
  25.4022160  16.1848831  32.1138954  25.0241680  16.5254784  32.9863510
  25.0997009  16.5022430  31.2040234  25.8844013  14.3119526  33.1888008
  25.4995403  14.6682148  34.0519676  26.3091412  13.4042902  33.0629234
  30.8709621  17.4766445  32.0641327  31.6455669  17.1137295  32.9162903
  30.3690147  18.6678963  32.0625801  29.7695599  18.8683147  31.2748070
  30.6074429  19.7826309  32.9862328  30.9371948  19.3873520  33.9470215
  31.7094765  20.7184505  32.4081421  32.5291443  20.0374966  32.1789017
  31.3875942  21.6596508  31.2340698  30.9255047  21.1502686  30.3884296
  30.7425766  22.5050964  31.4733906  32.3193092  22.0333977  30.8094311
  32.2370148  21.6543846  33.4727936  33.2400017  22.0620880  33.3467140
  31.5829411  22.5083237  33.6490822  32.1835251  21.1881847  34.4566116
  29.3257103  20.5651035  33.3329468  28.4511395  20.7220688  32.4999504
  29.1007957  20.8710461  34.6067276  29.7784538  20.5025311  35.2587051
  27.9214764  21.7320938  35.1176605  27.6899872  22.4140301  34.2994461
  26.7151432  20.8566055  35.2837410  26.4391804  20.5158558  34.2858238
  26.9393406  19.9786377  35.8895531  25.5183525  21.5876160  35.9872704
  25.7270584  21.4687691  37.0504837  25.4673977  22.6382236  35.7013855
  23.8843594  21.0207386  35.6070137  23.0159607  22.0728054  36.7345581
  22.9142017  23.1091881  36.4125977  22.0737896  21.5395508  36.8612633
  23.4128876  22.1432076  37.7472763  28.2783127  22.5029221  36.3829422
  28.8351307  21.9916840  37.3235779  27.9176636  23.7791176  36.4797173
  27.5011234  24.1797886  35.6514320  28.4218483  24.7178345  37.5284843
  28.4078979  24.2090626  38.4923630  29.8849449  25.2273445  37.2404099
  30.3465900  25.5916805  38.1581497  30.5631866  24.4491615  36.8903770
  29.8914433  26.3319435  36.2587128  29.4894733  26.0591393  35.2829590
  29.2859249  27.1102715  36.7230988  31.5625648  27.1615963  36.1878433
  32.5378342  25.9788036  35.1446877  33.5895119  26.0673943  35.4171295
  32.1829033  24.9524364  35.2379265  32.3955536  26.1955090  34.0859642
  27.4420528  25.8597431  37.7711143  26.6199799  26.2163486  36.9596062
  27.5353546  26.5529041  38.8927689  28.0170059  26.2808018  39.7377968
  26.6962509  27.6903496  39.2169075  26.0770264  27.9692249  38.3643265
  25.7506409  27.4292355  40.4673042  25.5707378  28.4083614  40.9112129
  24.4699936  26.7788010  39.9950676  24.0444813  27.3697548  39.1840172
  24.5070286  25.7451744  39.6510506  23.8110332  26.8738937  40.8581009
  26.4558868  26.6631584  41.3425941  26.4173107  25.7642326  41.0078621
  27.5003147  29.0009651  39.5651588  28.5541248  28.9025612  40.2262383
  27.0924549  30.1716652  39.0004692  26.3612251  30.0889206  38.3086891
  27.8742218  31.3408031  38.8733902  28.6528568  31.3997955  39.6338844
  28.5862675  31.4261799  37.4457626  27.7971096  31.5423012  36.7028961
  29.5873089  32.6576157  37.5216446  29.1332645  33.5961952  37.8394814
  30.4047546  32.5466461  38.2340813  29.9875832  32.7949791  36.5171471
  29.3786335  30.1822186  37.1286469  30.1435070  30.4048901  36.3846779
  29.9524689  29.8824272  38.0055351  28.8049488  29.3399811  36.7418404
  26.9618740  32.5366516  39.1450005  25.7487717  32.4697342  38.8115768
  27.3456726  33.6421013  39.8485146  28.2654247  33.6379852  40.2658157
  26.6489449  34.8881531  39.9982567  25.6000614  34.6100464  40.1012154
  27.1087494  35.6893997  41.2193985  26.4414291  36.5438423  41.3321304
  26.8858604  35.1032448  42.1109390  28.5084057  36.2514153  41.2624550
  29.2166328  35.4249115  41.3207893  28.8146763  36.6566238  40.2980347
  28.7132473  37.0808678  42.5352783  27.9975967  37.1832886  43.4868927
  29.7283192  37.8348389  42.5022125  29.7793427  38.3302574  43.3808823
  30.4271984  37.7547607  41.7774658  26.8671379  35.6304169  38.6338768
  28.0009422  35.8801613  38.1283798  25.7154293  36.1695747  38.1198921
  24.8699608  36.0752602  38.6643066  25.6469250  36.9407539  36.8240509
  26.4030838  37.7217255  36.9041290  25.8896523  36.0853233  35.5922508
  26.8763103  35.6220970  35.5978355  24.8811016  35.0018539  35.2728157
  24.8280296  34.3170319  36.1191673  23.8926830  35.4610252  35.2557335
  25.0337849  34.3454742  34.4160995  25.8679352  36.8752785  34.4254913
  26.2525043  36.2225609  33.8358574  24.2639141  37.5688248  36.7585564
  23.2363396  36.9876518  37.0452499  24.2236824  38.7941360  36.1583862
  25.1210117  39.1056175  35.8150482  22.9366856  39.5070877  35.8006248
  22.2711926  39.4273033  36.6601944  23.1613522  41.0084839  35.4390678
  23.9445190  41.4612160  36.0471687  23.6384220  41.2085876  34.4796600
  21.8797741  41.8576546  35.5275917  20.8463783  41.4326439  36.1032219
  21.9035187  42.9560738  35.0366554  22.3164082  38.7990799  34.5436058
  21.1730862  39.2000198  34.1545715  22.9468384  37.8282356  33.8800964
  23.8257141  37.4763603  34.2320366  22.3946667  37.1385689  32.6731529
  21.8513584  37.9500656  32.1890068  23.6280575  36.6777534  31.8016758
  24.1825867  36.0474167  32.4968605  23.2161541  35.9460030  30.5424747
  22.6277752  35.0538788  30.7570114  22.5320797  36.5670853  29.9642029
  24.0989380  35.6934738  29.9550877  24.5208683  37.8580933  31.2569675
  23.8653679  38.5868454  30.7801571  24.9690685  38.3349190  32.1286621
  25.2609940  37.5415001  30.5220661  21.4694290  36.0357018  33.0578804
  21.8835182  35.1793785  33.8446465  20.2089901  36.0576057  32.6719856
  19.5179825  37.2203674  32.2213249  19.6792412  37.4142189  31.1608887
  19.7747231  38.1802406  32.6694641  18.1038265  37.1271019  32.7735100
  17.3323250  37.6806488  32.2382774  18.1714382  37.4931946  33.7979622
  17.7513180  35.6520882  32.7908936  17.2082577  35.2707672  31.9261513
  17.0321083  35.5064697  33.5968933  19.1892185  35.0442657  32.9670410
  19.3177280  34.7533340  34.0096092  19.2922363  33.7123184  32.1528702
  19.9159470  33.6969566  31.1248798  18.6919670  32.6038971  32.6709175
  18.2113228  32.6164474  33.5591316  18.9995956  31.2150822  32.2522812
  20.0030823  30.9767437  32.6048584  18.0097084  30.2123032  32.9920540
  18.3093147  29.1918583  32.7532501  18.1110573  30.3669472  34.0662575
  16.4999371  30.4446106  32.6517754  16.3953209  31.5186348  32.8054962
  16.3424129  30.1765347  31.6070633  15.4422541  29.8481312  33.5491219
  14.3293810  29.5760098  33.0628586  15.7389278  29.3805389  34.7618942
  16.6945210  29.3051205  35.0800972  14.9480124  29.1167774  35.3319664
  18.8634357  31.1044388  30.6697636  19.7312183  30.5561066  29.9866543
  17.7991219  31.6342926  30.0108356  17.1791859  32.2147636  30.5574894
  17.6516190  31.5689907  28.5506630  17.7753963  30.5199947  28.2815971
  16.2114868  32.1404381  28.2191525  16.1246815  32.2297096  27.1362877
  15.5101004  31.3390331  28.4513283  15.9702415  33.5555611  28.7468262
  16.0227680  33.7748260  29.9866199  15.7219219  34.4907951  27.9450054
  18.6906929  32.3732567  27.7593422  18.8919106  32.1540260  26.5458870
  19.2581711  33.4849854  28.2921371  18.8409691  33.8053513  29.1543522
  20.3392506  34.2332191  27.7667103  20.1587524  34.2914085  26.6933346
  20.3699150  35.6878357  28.2960224  20.5824642  35.7162056  29.3647213
  21.1634502  36.2531166  27.8072910  19.1524620  36.6033173  28.1154118
  18.2838268  36.2340965  28.6606216  19.2741985  37.6141739  28.5045719
  18.7216034  36.7902985  26.6893520  18.7596054  35.8884697  25.8698559
  18.2305050  37.9245071  26.2556496  18.1049442  38.6680222  26.9275990
  17.8149319  37.9361725  25.3351803  21.7344646  33.6043854  27.8902626
  22.7394180  34.0417480  27.2468662  21.8604488  32.5801506  28.6507645
  21.0642242  32.1500015  29.0992050  23.1224327  31.9206467  28.9274044
  23.8246021  32.6959877  29.2338448  23.1224880  30.9428959  30.1334534
  22.2035980  30.3654919  30.0317307  24.2992535  29.9993553  30.2547722
  24.1811810  29.3300953  29.4025688  25.2141571  30.5917416  30.2663822
  24.3565521  29.3540421  31.1313515  22.9867496  31.6075993  31.5604477
  22.0582752  32.1738892  31.6336002  23.0003166  30.7755623  32.2644577
  24.1116829  32.6327934  31.9778824  25.0680866  32.1112137  32.0145378
  24.3476791  33.4363098  31.2801971  23.8714924  33.0773735  32.9436760
  23.6286469  31.2629509  27.6521358  22.7967358  30.8091488  26.8808270
  24.9579639  31.0570660  27.4507751  25.5378819  31.3520107  28.2233047
  25.6081924  30.1457539  26.3982220  24.8324661  29.7261696  25.7576771
  26.4872761  30.9424381  25.5096607  27.2785072  31.2604580  26.1885700
  27.0148678  30.3121395  24.7937889  25.7848969  32.0655441  24.8320427
  24.9103260  31.8541355  24.2167892  25.5125542  32.8956375  25.4838657
  26.8470097  32.6042557  23.8622322  27.6607189  33.0642090  24.4229641
  27.2780437  31.8965721  23.1540699  26.1883507  33.6216621  23.0685158
  25.1818485  33.6829414  23.1259441  26.6498508  34.1401253  22.0040188
  27.8469353  34.0099869  21.4835472  28.0199432  34.7055969  20.7720032
  28.5952435  33.5659828  21.9963818  25.9648705  34.9916801  21.3379593
  25.0473995  35.2558060  21.6674824  26.4054089  35.4181786  20.5353851
  26.3353405  28.9590321  27.0684795  27.3867073  29.0271130  27.6586075
  25.6397038  27.7822018  26.8886871  24.8365917  27.7373409  26.2778683
  26.2944050  26.4648647  27.0844498  26.9021130  26.4099140  27.9876499
  25.1196022  25.4118614  27.2682724  24.4627800  25.3021278  26.4053440
  25.4499683  24.4079647  27.5350113  24.1766987  25.8740196  28.4418068
  24.4413357  25.9211292  29.8152084  23.3978500  26.3898964  30.4440670
  23.3138599  26.7865047  31.4450912  22.4324379  26.6431541  29.5419502
  21.5135536  27.0394211  29.6787853  22.8948822  26.2567024  28.3561497
  22.3963280  26.3614540  27.4038506  27.1510143  25.9859810  25.9412766
  27.0254707  26.5496635  24.8281574  28.0027237  24.9831867  26.1236362
  28.0028553  24.5361042  27.0292950  29.0711613  24.6091328  25.0716248
  28.7278709  24.9276714  24.0873566  30.4368591  25.1749172  25.4531803
  30.6596355  24.8673611  26.4748840  31.5061455  24.7374477  24.4846935
  31.6464977  23.6565361  24.4800491  31.2419662  25.0454445  23.4730377
  32.4135780  25.2620602  24.7837734  30.2706699  26.6592064  25.2767162
  29.5024414  27.0033436  25.9691696  31.1279793  27.2142467  25.6575699
  29.9357548  26.9671307  24.2862015  29.1634483  23.1215668  24.7850266
  29.4118385  22.2951164  25.6818752  28.9898357  22.7403507  23.5691147
  28.8247852  23.4146309  22.8354912  29.0471077  21.3502445  23.0849495
  29.2156048  20.5769253  23.8344078  27.6054497  20.9372253  22.6782970
  27.3357220  21.6776409  21.9252148  27.6826305  19.9197807  22.2949581
  26.5124302  21.0249424  23.7494106  26.3013954  19.9963627  24.7233810
  26.9068241  19.1168137  24.5613708  25.2604847  20.1993084  25.6258907
  24.9653358  19.3367119  26.2048683  24.5681400  21.4082413  25.7791576
  23.5834732  21.5900040  26.6569157  23.2056713  20.7195683  26.8025436
  24.8541431  22.4102554  24.8812389  24.3737755  23.3765240  24.9256840
  25.8050671  22.2218456  23.9076786  26.0207767  23.1011639  23.3188858
  30.0081425  21.1930313  21.9453049  29.8212833  21.7865620  20.9507122
  30.9963074  20.3097229  22.0981426  31.1419640  19.8527069  22.9869747
  32.1466675  20.2437820  21.1882038  32.0848923  20.8910561  20.3133755
  33.4653358  20.6982327  21.8763485  33.6817818  19.9237404  22.6121540
  34.3069115  20.6139679  21.1887741  33.4067039  22.0771809  22.5158520
  32.7783089  21.9702110  23.4000320  34.8292427  22.5812607  22.8800163
  34.7390213  23.4903412  23.4745998  35.3556824  21.7807674  23.3997993
  35.4144440  22.9290123  22.0287170  32.8654861  23.1850796  21.5885944
  33.0079575  24.0842800  22.1879578  33.5007820  23.2829647  20.7083015
  31.8357754  23.0368443  21.2632904  32.3618355  18.8262806  20.5826721
  31.8833923  17.8281345  21.1879959  33.0976677  18.7752895  19.5089283
  33.4678383  19.6634007  19.2017937  33.6391182  17.5033283  18.9107895
  34.1907730  17.8029804  18.0197296  34.6088371  16.7627716  19.8319283
  34.2741966  16.7232037  20.8685341  34.7493286  15.7562180  19.4379559
  35.9893150  17.4275417  19.8541222  35.9324646  18.5112572  19.7519836
  36.4497948  17.0778294  20.7781143  36.8606453  16.9430447  18.6431980
  36.2720413  16.6684036  17.5513363  38.1434402  16.8277740  18.7613373
  32.4664116  16.5847874  18.4282684  31.7832127  16.9815197  17.5223503
  32.0942459  15.4616165  19.0478573  32.7285233  15.1554613  19.7717800
  30.9768639  14.5969257  18.7404957  30.5568218  14.9060869  17.7833691
  31.3228436  13.1606178  18.4904022  31.9668789  12.7425537  19.2640572
  30.4545937  12.5016489  18.4892693  32.0647011  12.9900379  17.1026306
  31.2766876  13.2403698  16.3923702  32.8331680  13.7446194  16.9348068
  32.6462822  11.6054773  16.9103870  31.9058704  10.8625154  17.2068615
  32.8872604  11.5191050  15.8508730  33.9825592  11.3648996  17.7122364
  33.9968071  11.9483604  18.6328182  34.0287361  10.3091459  17.9793549
  35.0970955  11.7286444  16.8515797  35.1472969  11.1569357  16.0204754
  34.9667664  12.7108231  16.6555214  35.9426537  11.6793909  17.4017696
  29.7312260  14.8357372  19.7239990  28.6488476  14.4319859  19.3119926
  29.9987965  15.4298410  20.8919315  30.8922710  15.8915539  20.9848080
  28.8567924  15.7701454  21.8045826  28.2342968  14.9058895  22.0362282
  29.5590839  16.2166672  23.1371288  30.1016655  17.1334991  22.9066124
  28.7704754  16.4711895  23.8452339  30.1883354  15.3658695  23.3984470
  27.8688679  16.8464355  21.3487740  26.8812542  17.2141514  21.9914761
  28.0227318  17.3149929  20.0770893  28.7028770  16.9181442  19.4446239
  27.0613251  18.3049202  19.4573116  26.9610271  19.1224518  20.1712303
  27.6289463  18.7679386  18.0854416  26.8666229  19.4732876  17.7546158
  28.9706917  19.5322437  18.2872562  29.3951035  19.8287239  17.3280468
  28.8043842  20.3889675  18.9403038  29.7570076  18.9567585  18.7757492
  27.6956940  17.6593285  17.0267544  26.8346519  16.9910336  17.0365906
  27.7244911  18.0608597  16.0138149  28.4572105  16.9143524  17.2574196
  25.6356239  17.8398819  19.2734318  24.7342625  18.6566486  19.2535133
  25.3718414  16.5217609  19.1387386  26.1550808  15.8893318  19.0570145
  24.0628853  15.8839235  19.1970425  23.3644657  16.3845348  18.5264435
  24.1743011  14.4198322  18.8732109  23.1654129  14.0124702  18.8076324
  24.5342712  14.2240143  17.3878174  24.0347424  14.9979668  16.8050938
  25.6163349  14.2433062  17.2579460  24.1085300  13.2610025  17.1059456
  25.0067978  13.5045290  19.7588634  24.7213249  13.6846371  20.7952805
  24.8844681  12.4691324  19.4409142  26.0692062  13.7478428  19.7451916
  23.3203278  15.9777422  20.5373631  22.0957069  15.7096386  20.5695553
  23.9850216  16.4973583  21.5968533  24.9318829  16.8037701  21.4246216
  23.3092365  16.7289219  22.8728123  22.5333500  16.0092716  23.1339703
  24.3294983  16.6369610  24.0483284  25.1302795  17.3721809  23.9689732
  23.7336025  16.9034119  24.9212666  24.9963951  15.3122158  24.2792568
  25.7261448  15.0728922  23.5057659  25.8836918  15.4530268  25.4817944
  25.2942181  15.4787006  26.3982868  26.5968513  14.6298933  25.4375992
  26.4856548  16.3611641  25.4496040  23.9691238  14.2067642  24.5400200
  24.4654541  13.2869949  24.8495140  23.1392536  14.5949049  25.1305790
  23.3239651  13.9938087  23.6876583  22.7972984  18.1883335  22.9220581
  21.8640270  18.4365578  23.6505527  23.3487339  19.0963402  22.0550728
  24.1512070  18.7615128  21.5412350  22.9942436  20.5399590  22.0355339
  23.4067554  20.9520893  22.9564514  23.6485481  21.1908493  20.7818336
  24.7116394  21.0167732  20.9480648  23.3121052  20.6322002  19.9084339
  23.3413448  22.6416321  20.5754719  22.3434925  22.8568268  20.1932678
  23.5802021  23.2185078  21.4689274  24.2033043  23.1831741  19.4374142
  24.0095596  24.2356682  19.2304897  25.2487316  23.0726166  19.7254429
  23.9696007  22.4435368  18.1346569  23.0394497  22.1932144  17.8309155
  24.9158916  21.9394550  17.3282471  26.1965046  22.0768661  17.5476952
  26.5040836  22.6275597  18.3365135  26.8190670  21.8237743  16.7937317
  24.5212612  21.2321815  16.3191147  23.5577240  21.1685085  16.0230656
  25.2378368  20.9046326  15.6871891  21.4082146  20.7135811  22.0128307
  20.7348175  20.3379288  20.9484634  20.6649876  21.2910862  23.0047092
  21.0787067  21.3195171  24.3903179  21.5046024  22.2945976  24.6268196
  21.7756233  20.5376701  24.6921883  19.8329754  21.3630657  25.1764030
  19.9498806  21.8378468  26.1505775  19.5512676  20.3106956  25.2118645
  18.7955017  21.9902420  24.3194580  18.9860897  23.0629978  24.3506584
  17.7728653  21.7262402  24.5889378  19.1922054  21.4646187  22.9103737
  18.6689777  20.5092564  22.8701687  18.6329479  22.3638859  21.7897301
  17.5287590  22.0617752  21.2363300  19.4149590  23.4091434  21.4199467
  20.2269840  23.5180359  22.0105858  18.9524269  24.5324593  20.5954037
  19.6644001  25.3417149  20.7575741  18.9994297  24.1714363  19.1040211
  19.9998074  23.8336983  18.8333244  18.2235985  23.4129772  18.9994678
  18.5759220  25.3927860  18.2615509  19.0328503  26.4988117  18.6560287
  17.9557533  25.2648430  17.2042637  17.5908833  25.1006451  21.0375900
  16.5957432  25.0439186  20.3610420  17.4982014  25.5726185  22.3471222
  18.3590088  25.8526249  22.7951260  16.2236881  26.0620747  22.9923744
  15.4387131  25.3059521  22.9783001  16.4398212  26.3978939  24.4676208
  17.1007175  27.2404633  24.6710777  15.3990040  26.5570602  24.7495155
  16.9945316  25.1660595  25.2156658  17.9679852  24.8341198  24.8546906
  17.1333504  25.4400826  26.7485943  17.7830811  26.3130360  26.8110409
  16.1626587  25.7756157  27.1136742  17.5411339  24.6221542  27.3425694
  16.0475693  23.9591961  25.1440868  16.2479134  23.3469257  24.2648315
  15.0179548  24.2889042  25.0052128  16.1691360  23.2762032  25.9848309
  15.6761723  27.2518024  22.2769375  16.3377285  28.1486797  21.8318081
  14.3706913  27.3084869  22.2164192  13.8394318  26.5224991  22.5629559
  13.5796795  28.3588028  21.6386223  14.1014585  29.2822838  21.8896942
  13.5240955  28.1749210  20.1081924  13.1297855  29.0673943  19.6222744
  14.5661650  27.9263725  19.9071579  12.8225412  26.9422226  19.7145634
  12.8278732  26.9346390  18.7546082  12.1563282  28.4778767  22.0808125
  11.5876150  27.6086617  22.6987324  11.5081091  29.6366844  21.7851200
  11.9413462  30.4031811  21.2902546  10.1511869  29.8436279  22.0023613
   9.9088507  29.6312141  23.0436363   9.7106524  31.2954521  21.6130753
   9.9926767  31.4957466  20.5794201   8.6217070  31.3274021  21.6489296
  10.2375307  32.4385071  22.4951115  11.3269863  32.4229469  22.5258408
   9.6244402  33.7644691  22.0750332   9.7381124  34.5910912  22.7763691
   8.5707645  33.5256615  21.9306736   9.9983158  34.1397362  21.1224098
   9.8614779  32.1920166  23.9520264   9.9824276  33.1293564  24.4950466
   8.8005095  31.9485817  24.0084667  10.5785484  31.4449329  24.2922840
   9.2798958  28.8678875  21.1594753   8.2210865  28.4310207  21.6278629
   9.7440987  28.4459114  20.0016975  10.5775814  28.8827934  19.6348991
   9.1241827  27.3344173  19.2989235   8.0914516  27.6211605  19.1005630
   9.7515774  27.2445374  17.9517117  10.8271704  27.2582703  18.1278152
   9.5003595  25.9758453  17.2392864   9.9610405  26.1212597  16.2621861
   9.9310942  25.1422272  17.7939472   8.4290848  25.8523102  17.0805016
   9.4562807  28.2990780  17.0728588   9.8495874  29.0879288  17.4531517
   9.1585207  26.0107079  20.1269093   8.1687365  25.3305874  20.1955204
  10.2274790  25.6511745  20.8161259  11.0993624  26.1139355  20.6021805
  10.2749271  24.3761253  21.5361423   9.7709312  23.6044655  20.9542217
  11.7727222  24.1103458  21.8772945  12.2190380  25.0033703  22.3147984
  11.7064819  23.3482704  22.6537991  12.4607267  23.4461422  20.7456131
  11.7885523  22.6905804  20.3389072  12.6879835  24.1989098  19.9907646
  13.7622366  22.7750797  21.4070683  14.4008837  23.5138969  21.8911972
  13.3856421  22.1507435  22.2173042  14.4132442  21.9838963  20.2655048
  15.0735168  21.1870708  20.6078644  13.6829348  21.5618172  19.5751438
  15.2259951  22.8481827  19.4243870  15.5107374  22.4546375  18.5388680
  14.6165428  23.5900078  19.1107445  16.0330296  23.1414280  19.9561787
   9.5027008  24.3574753  22.8907585   9.1596355  23.2634087  23.3907719
   9.1880093  25.5519466  23.4339619   9.3738871  26.4503956  23.0116577
   8.6084881  25.6991558  24.7760849   9.1816549  25.1269646  25.5055904
   8.7382536  27.1781673  25.2591095   9.7959166  27.4391537  25.2225513
   8.1680670  27.8458443  24.6132030   8.2987442  27.3493748  26.7203693
   8.6254663  26.5217285  27.5428391   7.5205975  28.3507023  27.1136436
   7.4355826  29.1472378  26.4984970   7.3911138  28.6148262  28.0798588
   7.2092328  25.2221451  24.7792187   6.5337505  25.5093040  23.7564774
   6.7783933  24.4818420  25.8027687   7.4277477  24.2566357  26.5428505
   5.3982506  23.9403343  26.0164566   5.0904393  23.5028400  25.0667439
   5.5351539  22.7322826  27.0452442   6.1888180  22.9709187  27.8842182
   4.2244582  22.4888783  27.8365784   4.2722788  21.6103840  28.4800549
   4.0994978  23.2856998  28.5697632   3.3900900  22.3922405  27.1418877
   6.0274110  21.5600071  26.3224850   6.8400044  21.8032780  25.8729191
   4.5451574  25.0840378  26.4035530   4.9903264  26.0154362  27.1339912
   3.3558230  25.1291294  25.8362713   3.2513797  24.3654785  25.1835613
   2.2347550  26.0091209  26.1993217   2.7265401  26.9816990  26.1809006
   1.1199312  25.9813786  25.1830502   0.8291816  24.9351997  25.0877838
   0.1846889  26.3849983  25.5710087   1.4251306  26.6587887  23.8674698
   2.3119686  26.1382484  23.5060062   0.6286702  26.3346214  23.1976395
   1.6127589  28.1338234  23.8976231   2.6285632  28.6392498  23.3504982
   0.6964895  28.8871231  24.3403225   1.6594232  25.7466068  27.6216393
   1.5775517  24.6457615  28.0545578   1.1692643  26.7745686  28.3343582
   1.2938498  27.7083950  27.9702854   0.3999381  26.6471539  29.5465126
   0.9417086  26.0999012  30.3179379   0.2889978  28.0038548  30.2031498
  -0.2846966  28.6605015  29.5490913  -0.4350599  27.8935890  31.0104179
   1.4705671  28.8643169  30.6952744   2.1918416  29.0241680  29.8938293
   0.9638902  30.2157688  31.2643585   0.4698029  30.8390350  30.5190296
   0.1520168  30.0355682  31.9689808   1.7689682  30.6991253  31.8178177
   2.0552850  28.0558758  31.9015884   2.2505240  27.0283794  31.5946121
   2.8305116  28.6079483  32.4329453   1.3288007  27.8981113  32.6987343
  -0.9280003  25.9394073  29.3856125  -1.6726002  26.2423134  28.4084530
  -1.2010349  25.0289593  30.1717548  23.1637001  38.2692680  49.5032043
  22.4148903  37.6885834  49.8527679  23.0036335  39.1486244  49.9735336
  23.0128975  38.4020271  48.5133896  24.4704227  37.6706390  49.8656960
  25.2086353  38.4261169  49.5966263  24.6087570  37.4650955  51.3883629
  24.2282257  38.4021492  51.7948456  23.8789558  36.6856995  51.6075249
  25.9544086  37.1785202  52.0413246  26.6960831  36.9352455  51.2805138
  26.3357353  38.0224838  52.6161423  26.1009197  35.7713013  53.2008400
  25.9529305  36.5718651  54.7397461  25.0943050  37.2426338  54.7090988
  25.8313808  35.7950134  55.4946136  26.8841305  37.1100540  54.9167290
  24.9619846  36.3726845  49.1773949  24.1685886  35.4468727  48.9096146
  26.2864952  36.2323761  48.9827957  26.8247299  37.0419350  49.2566910
  26.8846779  35.0920868  48.2306175  26.4396343  35.1252670  47.2361641
  28.3840733  35.3424988  47.9610481  28.4195709  36.3822517  47.6358490
  28.9779949  35.3058281  48.8742905  29.0339775  34.3872986  46.8245354
  29.9942856  34.8751755  46.6575432  29.1306038  33.3504677  47.1466217
  28.0767536  34.2183647  45.2595215  29.2389278  33.2580910  44.1451492
  29.5315781  32.3450928  44.6637001  28.6460400  32.9802017  43.2737389
  30.0805359  33.9112015  43.9143982  26.5735321  33.6302414  48.8696823
  26.3801785  33.4166336  50.0570564  26.7551613  32.5626602  48.0497131
  27.2306519  32.6509399  47.1630249  26.6914463  31.1380005  48.4367180
  26.7038879  31.2069302  49.5244637  25.3827133  30.3754501  48.1324005
  25.6114216  29.3473282  48.4130363  24.1629429  30.7968006  48.9291458
  24.0260143  31.8762703  48.8652267  23.2687912  30.3121624  48.5370712
  24.3550873  30.4145889  49.9316902  25.0921078  30.3099537  46.5838661
  24.7953873  31.3032436  46.2470665  26.0378780  30.1725845  46.0597038
  24.0431671  29.2957020  46.1034203  23.0504570  29.6276398  46.4074745
  23.9322758  29.2615681  45.0196152  24.1922569  28.2539921  46.3875389
  28.0072823  30.4478149  47.9573669  28.5222912  30.7528286  46.8943367
  28.6046562  29.5419827  48.6941681  28.1178589  29.3702507  49.5622902
  29.8731670  28.8654003  48.4125633  30.1703987  28.9631290  47.3684387
  30.9987221  29.4397297  49.3232765  30.6536541  29.3588600  50.3540459
  31.8233433  28.7316704  49.2410889  31.4092884  30.8516827  48.8561363
  30.5734234  31.5511494  48.8693581  32.1661644  31.2257767  49.5455551
  31.9377975  30.9612255  47.4511909  32.7737083  30.2621517  47.4257889
  31.2648544  30.5776062  46.6843185  32.3926163  32.2717743  47.2001686
  32.4953804  33.0058174  47.8862610  32.7486153  32.6626930  45.9828148
  32.9490814  31.8359299  45.0256157  33.0962563  30.8569031  45.2254829
  33.1344604  32.1709633  44.0910110  32.9460411  33.9539566  45.8253212
  33.1313667  34.2464523  44.8765297  32.8441925  34.5693550  46.6196823
  29.6906319  27.3767147  48.6338577  28.8840084  26.9036732  49.4898682
  30.4800415  26.6290703  47.8163414  30.8331814  27.0461178  46.9669495
  30.6709518  25.2285500  48.0480347  29.7490177  24.7669182  48.4016380
  30.9534492  24.7732296  47.0988312  31.7738686  24.8584938  49.0191154
  32.8369598  25.4396591  49.0474129  31.6484661  23.7377300  49.8521690
  30.7837639  23.2178688  49.8059616  32.7116089  23.1389809  50.6931152
  33.6203842  23.5706959  50.2737694  32.3292732  23.5381050  52.1559944
  31.6053486  22.8072319  52.5163612  33.5091057  23.1895409  53.1277618
  33.1409149  23.4404011  54.1225510  33.6599884  22.1133099  53.0437088
  34.4586716  23.7126522  53.0147247  31.6719894  24.8958721  52.4196892
  32.3836060  25.7080002  52.2708549  30.8980694  25.1026306  51.6805000
  30.9160919  25.0951786  53.6646461  30.1411343  25.8505287  53.5343170
  30.6327057  24.1282253  54.0803413  31.5708981  25.5041256  54.4341202
  32.8034172  21.5706253  50.6508179  31.8037376  20.8698616  50.7452431
  34.0072365  21.2270222  50.3527489  34.6862450  21.9685783  50.4483681
  34.5290565  19.8257351  50.1595612  33.6374817  19.2883453  49.8364449
  35.3835297  19.8046703  48.8593712  35.9582443  20.7295761  48.8108597
  36.1715050  19.0576305  48.9549026  34.7282104  19.6417637  47.5176239
  34.2488327  20.6079903  47.3604622  35.4109612  19.6001205  46.6689682
  33.7224197  18.4266396  47.2996788  32.7430992  18.7051163  47.6888885
  33.4012451  18.2370453  46.2754745  34.1975403  17.1696682  47.7713051
  33.6773262  16.6872063  48.4901314  35.3080750  16.5872803  47.4443130
  36.0596123  16.9101505  46.4288826  37.0262947  16.6176529  46.4201889
  35.6653481  17.4124737  45.6463699  35.9286652  15.6775465  48.1858788
  36.6290131  15.1103430  47.7299194  35.4206848  15.2393007  48.9408607
  35.0587311  19.0690956  51.3404427  35.6242561  19.6797581  52.2628517
  34.8865395  17.7512932  51.3537102  34.2752419  17.3524399  50.6556168
  35.6721153  16.8723164  52.1830444  36.6575890  17.3376560  52.1629982
  35.2899170  16.8667374  53.2038231  35.6376915  15.4923611  51.6888237
  34.8883247  15.2261906  50.7677193  36.5440750  14.6105318  52.3069000
  37.2340546  14.9123240  52.9799118  36.5145378  13.1699381  52.1899796
  35.4435730  12.9758482  52.1311035  37.1611710  12.6724081  50.9131584
  38.2437286  12.5593739  50.9714241  36.7382584  11.6944180  50.6834183
  36.9884415  13.3516130  50.0783272  36.9895592  12.3961706  53.4639854
  37.7346191  12.9269552  54.2116051  36.3461647  11.2401152  53.7280045
  35.7098618  11.0453873  52.9682007  36.6936798  10.3124495  54.8435822
  37.7149429  10.4926577  55.1792183  35.8458939  10.5502625  56.1052742
  35.9038582  11.5862408  56.4391708  34.4217377  10.2165995  56.0406113
  33.8965569  10.7484226  56.8339920  33.9619713  10.4727135  55.0860863
  34.3471794   9.1461630  56.2322044  36.3329010   9.7489204  57.1457596
  36.7985382  10.2660837  57.8070641  36.6487579   8.8707857  54.4488640
  35.9915848   8.5740156  53.4744415  37.3364487   7.9336815  55.0971451
  37.8012962   8.2172356  55.9478035  37.5030098   6.5250430  54.6965446
  36.9180717   6.2070007  53.8335266  38.9486160   6.2232833  54.2927284
  39.0201187   5.1716089  54.0152931  39.2346497   6.8069172  52.8384743
  38.5669746   6.4444261  52.0568695  39.2479553   7.8960128  52.8808403
  40.2062035   6.3419061  52.6713028  39.9672394   6.4717016  55.2121315
  40.0596237   5.7375550  55.8237648  37.1791840   5.5435023  55.8075867
  37.0902138   5.8755131  57.0053864  36.9609604   4.3033776  55.4457893
  36.9663467   4.0789547  54.4610519  36.6073303   3.1977053  56.4104614
  36.8621330   3.3929448  57.4521255  35.0414429   2.9359136  56.4621124
  34.7507019   2.2959452  57.2951851  34.2331314   4.2722321  56.6488152
  34.4977913   4.7754016  57.5788040  34.2480164   4.9127698  55.7670059
  33.1680069   4.0441217  56.6885452  34.5688553   2.2890496  55.1251068
  33.4980774   2.0863471  55.1036606  34.7824631   3.0748494  54.4005432
  35.1208000   1.3944881  54.8366318  37.3786850   1.9640458  56.0870552
  37.8390770   1.7879244  54.9902573  37.8053436   1.1857187  57.1303864
  37.6692352   1.4682965  58.0904503  38.4605637  -0.0662434  56.8380318
  38.9741898  -0.0237755  55.8775673  39.3913460  -0.4178254  58.0315857
  38.8777390  -0.5493516  58.9839554  39.8325844  -1.4007159  57.8662415
  40.5580711   0.5541993  58.0623131  40.2239456   1.5428045  58.3771439
  41.3012390   0.1657429  58.7586670  41.2464752   0.6989743  56.6760979
  41.4076271   1.8748064  56.2517204  41.8357697  -0.2673434  56.1363220
  37.4484673  -1.1610304  56.5645981  37.7591133  -2.2007983  55.9513016
  36.1463165  -1.0077372  56.9265671  35.8992844  -0.1765276  57.4444160
  35.0878258  -1.9814396  57.0474434  35.3196869  -2.8031254  56.3698196
  34.8670692  -2.4220564  58.5150604  34.5540771  -1.5758032  59.1266098
  33.9972954  -3.0782428  58.5469742  36.0486259  -3.2683902  59.1016808
  36.0342789  -4.2278171  58.5845795  37.0281639  -2.8205955  58.9340820
  35.9233208  -3.5758150  60.5253868  34.9103394  -3.8393412  60.8295593
  36.5407982  -4.4418840  60.7636108  36.5239639  -2.4381444  61.2265701
  37.5104446  -2.2609470  61.1018448  35.9870338  -1.5402092  62.0167847
  34.7423439  -1.6609839  62.3279610  34.2832108  -2.5528762  62.2103500
  34.3823395  -1.0104309  63.0115395  36.6795311  -0.5362494  62.4040375
  37.6484985  -0.5799700  62.1224518  36.2308350   0.2257269  62.8920555
  33.8111610  -1.4083301  56.4715233  33.5571098  -0.2573878  56.8168182
  33.0900612  -2.1768398  55.6364174  33.4355278  -3.1147394  55.4911728
  31.7296791  -1.8544900  55.1737366  31.6868114  -0.7824389  54.9814606
  31.4392281  -2.6333930  53.8991928  32.3644028  -2.5866284  53.3247681
  31.2718086  -3.6817856  54.1460609  30.2815590  -2.2329013  53.0546646
  29.7301331  -1.1560783  53.2439766  29.8956299  -2.9571905  52.1203461
  30.6406746  -2.1661327  56.1956367  29.9675236  -3.2370660  56.1302986
  30.4509907  -1.2588317  57.1535225  30.9458351  -0.3786999  57.1779480
  29.4582882  -1.3620501  58.1613731  28.6128807  -1.8269889  57.6542053
  30.0646267  -2.1125708  59.3863220  30.2062950  -3.1210272  58.9976692
  31.3596897  -1.4883937  59.9541245  31.8819656  -2.1218472  60.6711044
  32.0818443  -1.2663629  59.1684456  31.1120510  -0.5937427  60.5254173
  29.1507416  -2.0720468  60.4715538  28.5945988  -2.8516436  60.5388832
  28.8927574   0.0299837  58.4978104  29.6519127   1.0265818  58.5292320
  27.6444359   0.1128549  58.9420128  27.1875000  -0.7552012  59.1824074
  26.9972687   1.3413261  59.3897781  27.2834721   1.9966846  58.5671654
  25.4237900   1.0657402  59.4682732  25.0658913   0.6750157  58.5157242
  25.1434422   0.3740778  60.2626991  24.5893898   2.3246782  59.7244682
  24.9426765   2.6663423  60.6973763  25.0043240   3.1362460  59.1267319
  23.1145210   2.2538977  59.5125618  22.5480595   1.6948756  58.5338478
  22.3527298   2.8772817  60.2860794  27.5550232   1.8511159  60.7596436
  27.4736652   3.0159607  61.1390953  28.2945271   1.0032362  61.5185318
  28.2624779   0.0387729  61.2203979  29.1391373   1.3445461  62.6860123
  28.5244923   1.9654673  63.3377571  29.6028099  -0.0145799  63.4091568
  30.2887211  -0.5970054  62.7940063  30.1574612   0.3321977  64.2810593
  28.4174900  -0.9851732  63.8197975  27.8980064  -1.3223227  62.9228210
  28.9121265  -1.7681701  64.3945618  27.3545990  -0.3320094  64.8180313
  27.8111019   0.3360662  65.7550354  26.1825771  -0.4451803  64.5220947
  30.4221039   2.0900373  62.3199921  31.0116692   2.7330091  63.1889038
  30.7743454   2.0542748  61.0390244  30.2434597   1.5029148  60.3800392
  31.8737278   2.8308809  60.5097618  32.3628387   3.4081647  61.2943764
  32.9894485   1.9780718  59.7706146  32.4828033   1.4029646  58.9955902
  33.7063293   2.6621156  59.3164520  33.7248459   1.0865097  60.8056641
  33.0529747   0.2837756  61.1094856  34.5879402   0.7004933  60.2633018
  34.3498840   1.8334750  61.9797745  34.4498405   1.2488030  63.1204033
  34.8577423   2.9470420  61.7577095  31.3682995   3.9688566  59.6005669
  31.5829964   5.1040707  59.9234962  30.6400661   3.6367271  58.6042976
  30.3063431   2.6875820  58.5156860  30.2838802   4.6548443  57.5346985
  31.2528286   4.9864450  57.1614952  29.5389996   4.0426264  56.3463783
  28.6923714   3.5362236  56.8099289  29.1215763   5.0301409  55.2628593
  30.0002651   5.5648994  54.9022560  28.7844296   4.4909329  54.3775978
  28.3780937   5.7071362  55.6835823  30.4480247   2.9802356  55.6748047
  31.1674595   3.4840822  55.0293198  30.9700203   2.3007457  56.3485374
  29.5851402   1.9493194  54.8361511  30.2746582   1.2747113  54.3286285
  29.0868988   1.2933314  55.5499687  28.9162121   2.4079154  54.1079178
  29.5016994   5.8317795  58.0721130  29.9219589   6.9663148  57.8727036
  28.4683323   5.5049429  58.8866806  28.2011242   4.5461011  59.0579185
  27.5712662   6.5443063  59.2904587  27.4533405   7.2856174  58.5001068
  26.1863422   5.9208860  59.6299858  25.7192593   5.6320038  58.6884537
  26.4281635   4.9922829  60.1470146  25.1057472   6.7819166  60.2568741
  25.0914707   7.7131381  59.6905518  23.7616253   6.1296911  60.0690498
  23.0083160   6.8755274  60.3227196  23.6569042   6.0121713  58.9904747
  23.6462555   5.2033458  60.6317825  25.2503700   7.2212410  61.7480659
  26.0532169   7.9576378  61.7835197  24.3709755   7.7729759  62.0802650
  25.4471989   6.3078766  62.3094254  28.2120037   7.3992667  60.4022903
  28.2622490   8.6583424  60.2387314  28.9046135   6.7167711  61.2918739
  28.9073296   5.7086191  61.2308617  29.6639977   7.4024224  62.3483200
  29.0291176   8.1660061  62.7977333  30.1179409   6.3458548  63.3875313
  30.6593971   5.5820060  62.8294449  30.8719044   6.8354168  64.0039444
  28.9793167   5.6911802  64.2338562  28.3391647   5.0666142  63.6107826
  29.4371204   4.9346104  64.8711395  28.1222610   6.6167316  65.0409012
  28.5148182   7.6888084  65.5234756  26.9003754   6.2383175  65.1827545
  26.6031017   5.5065513  64.5532684  26.3732243   6.7479973  65.8773346
  30.8931122   8.2617216  61.9089241  31.0291386   9.3993626  62.3316841
  31.6370869   7.8255758  60.8843460  31.3471451   6.8967118  60.6137085
  32.7884483   8.6009130  60.3436775  33.4177361   9.0089293  61.1346436
  33.7185822   7.6171713  59.5025215  33.0083122   7.0766029  58.8768959
  34.2094574   8.2669153  58.7779694  34.7387695   6.6558356  60.1527328
  34.2272301   6.1669888  60.9818611  35.0609589   5.8981986  59.4383926
  35.9711075   7.4576612  60.6087112  36.5638046   7.8714366  59.7928696
  35.6282196   8.3745184  61.0882034  36.8705177   6.5429344  61.4767036
  36.2898941   6.1215425  62.2973175  37.4362602   5.8184824  60.8908653
  37.8366547   7.3817029  62.1960106  38.4923897   7.8573985  61.5928230
  37.3824959   8.1172581  62.7183113  38.4436531   6.9092917  62.8505936
  32.2393494   9.7947531  59.5162354  32.8251610  10.8884077  59.6556358
  31.1636448   9.6059866  58.7477303  30.8058414   8.6669626  58.6461906
  30.4965267  10.7090807  57.9631424  31.2284927  11.1671276  57.2979202
  29.2916470  10.2006397  57.2029915  28.5941811   9.8428764  57.9603882
  28.6686764  11.2945652  56.2820930  29.4337101  11.8317957  55.7215576
  27.8502865  10.9157267  55.6698685  28.1398125  12.0727539  56.8323898
  29.5175743   9.1293640  56.3603821  29.5807590   8.3305120  56.8890038
  30.0799942  11.7721643  58.9971390  30.5092621  12.9131994  58.9066963
  29.5200348  11.3777122  60.1733208  29.2772141  10.4089155  60.3235588
  29.0911884  12.2866526  61.2554131  28.3854275  13.0612307  60.9553566
  28.3439541  11.4764690  62.3050995  27.7132912  10.7217159  61.8353004
  29.0892830  11.0061903  62.9465256  27.4125729  12.2758007  63.2232399
  27.9050865  13.1369753  63.6748009  26.6675034  12.8220177  62.6447754
  26.7574749  11.5476274  64.3771210  26.2704964  12.2993689  64.9982758
  26.0400333  10.8305244  63.9781914  27.6484184  10.6780090  65.3044205
  28.3291035  10.0804148  64.6980820  28.2627544  11.3248844  65.9307175
  26.8390884   9.7217321  66.1078491  27.4629631   9.0318937  66.5015564
  26.3219929  10.1804838  66.8442383  26.1624870   9.2773275  65.5038528
  30.1829758  13.1236916  61.8502007  30.0593510  14.2973909  62.0572929
  31.3605423  12.5795898  62.0457458  31.4283543  11.5800858  61.9173126
  32.5499611  13.2653646  62.5454140  32.2564812  13.7646189  63.4688416
  33.5736465  12.2524786  63.0664406  33.0886421  11.5770884  63.7712250
  33.8860321  11.6585026  62.2075424  34.8572731  12.8400965  63.6352234
  35.5127831  12.0341959  63.9652710  35.3375435  13.5164757  62.9281502
  34.5149536  13.5765934  64.9352875  34.2585411  13.0487194  66.0187073
  34.4163170  14.8451920  64.8122711  34.2255745  15.5194683  65.5396423
  34.5031166  15.2474632  63.8899155  33.1729469  14.2275257  61.4822540
  33.6772537  15.3188763  61.8460464  33.1405983  13.9149036  60.2146835
  32.6715317  13.0716105  59.9164619  33.5028343  14.8358278  59.0709572
  34.5144501  15.2078419  59.2332687  33.4477348  14.0818834  57.7864304
  33.8200798  13.0585699  57.8342781  32.4036980  13.8601503  57.5652428
  34.0735512  14.8226480  56.5656548  33.5879097  15.7933245  56.4654655
  35.5341835  15.1048985  56.7050438  35.6345291  15.8913240  57.4530869
  36.0996437  14.2045555  56.9453430  36.0154076  15.5283031  55.8234253
  33.7457695  14.1117821  55.2711067  33.9815254  13.0486174  55.2242050
  32.6646004  14.1650581  55.1433105  34.1630173  14.6772232  54.4378738
  32.5167618  16.0961819  59.0382233  32.9251251  17.2273445  59.0730362
  31.2474270  15.7674780  58.9697304  31.1727695  14.7652979  58.8689308
  30.1625061  16.7423058  58.9813232  30.2427158  17.4540768  58.1597099
  28.8512974  16.0351295  58.9272003  28.8460426  15.3629799  59.7852707
  28.0244999  16.7360783  59.0420303  28.5580616  15.2391691  57.6586075
  29.3617630  14.5260897  57.4750710  27.2413120  14.4875431  57.8672829
  26.8350315  14.0682249  56.9468422  27.4115772  13.6367884  58.5270767
  26.5218849  15.1678486  58.3230476  28.3876724  16.1997566  56.5129433
  27.6616859  16.9642048  56.7898216  29.3299465  16.6451645  56.1938286
  27.9654388  15.6157360  55.6951790  30.3380852  17.6432686  60.2210236
  30.4445705  18.8342915  60.0509682  30.4809799  17.1669064  61.4839859
  30.3645859  16.1842785  61.6864586  30.5614738  17.9699192  62.6885872
  29.6166229  18.5131130  62.7058678  30.6957855  17.0328445  63.8837509
  29.8501835  16.3530045  63.9880333  31.5452328  16.4275436  63.5672836
  30.9025002  17.6601124  65.2193985  31.9509087  17.9542179  65.1699753
  30.2596245  18.5248222  65.3839951  30.7186356  16.7307816  66.3640213
  29.9448643  17.0145912  67.2923508  31.4278355  15.7733688  66.4222031
  31.7645664  18.8662167  62.5310860  31.7073269  20.0624485  62.8867722
  32.8560791  18.3338165  61.9019470  32.6821976  17.4299145  61.4862213
  34.1244774  19.0981159  61.8178825  34.3227730  19.5439644  62.7925606
  35.2851868  18.0745430  61.5633926  35.2752304  17.4148006  62.4310036
  34.9714890  17.4550362  60.7232094  36.6610527  18.7400322  61.5142250
  37.2864151  17.8677177  61.3242416  36.8057098  19.2920341  60.5855293
  37.1742363  19.6070232  62.6964531  36.4059219  20.3370571  62.9511032
  37.3224373  18.9615650  63.5621986  38.4532394  20.3845406  62.3010635
  38.3397331  20.9414272  61.3709602  38.6902161  21.0864983  63.1005592
  39.6142426  19.4640446  62.1789055  40.3230896  19.9534626  61.6515465
  39.9050674  19.1859264  63.1052818  39.4044037  18.5728092  61.7525635
  34.1930351  20.1448288  60.6801529  34.8462830  21.1202888  60.7456474
  33.4420624  19.8553619  59.6438675  32.9730988  18.9636555  59.7148056
  33.2016754  20.7874317  58.5721321  34.1572342  21.1856670  58.2309380
  32.4695816  20.0826206  57.3360710  31.6957951  19.4042816  57.6955261
  31.8017178  20.9969101  56.3438721  31.3918171  20.4227180  55.5129738
  31.0857372  21.5552540  56.9469681  32.5263748  21.7249451  55.9792633
  33.5514297  19.2682209  56.6494904  34.1194344  20.0422020  56.1333313
  34.1606903  18.7305241  57.3759727  33.0605316  18.2372437  55.5821686
  32.6698456  18.7720108  54.7164307  33.8678131  17.5958004  55.2286873
  32.3125992  17.7108517  56.1751328  32.2966766  21.9077625  59.0725365
  32.4929543  23.0941162  58.8266182  31.3339157  21.6417274  59.9172592
  31.1539135  20.6864071  60.1912346  30.4336205  22.6992188  60.4791679
  30.1097641  23.4134960  59.7221832  29.1208057  21.9925327  61.0202713
  29.4099922  21.1017685  61.5779572  28.2209740  22.8644333  61.8715630
  28.6878414  23.3108845  62.7495232  28.2505875  23.8307610  61.3681412
  27.1794796  22.5722427  62.0057793  28.2909431  21.4689217  59.8266602
  27.8010254  22.3445282  59.4007568  28.9459515  21.1372948  59.0209999
  27.2528763  20.3650894  60.3054314  26.7612991  20.6759281  61.2272987
  26.5527191  20.2250271  59.4818649  27.7771053  19.4355698  60.5274353
  31.1390438  23.5416298  61.4754486  30.8086548  24.7883186  61.5454254
  32.0615692  23.0046844  62.2524414  32.1506500  22.0052872  62.1368141
  32.8003693  23.8169308  63.2597427  32.0215454  24.3437920  63.8110695
  33.4756393  22.8494987  64.1690598  32.7643242  22.0877075  64.4881287
  34.2070427  22.2614231  63.6146965  34.2434921  23.4355259  65.3502579
  34.3886414  22.6669006  66.1093674  35.1773796  23.8174381  64.9378281
  33.5401344  24.5575924  66.0504837  34.2318344  25.5582447  66.4854507
  32.2749557  24.4073811  66.3983078  33.8573303  24.7796440  62.6411362
  34.0637360  25.9016304  63.1049271  34.4900742  24.3254642  61.5462494
  34.3588333  23.3804588  61.2148285  35.4662743  25.0674820  60.7214317
  36.1965408  25.5120258  61.3975868  36.2307396  24.1188202  59.7900772
  35.5302238  23.4171810  59.3372192  36.6593895  24.7356167  59.0001907
  37.3797989  23.2437077  60.2385368  37.1123047  22.8200798  61.2065697
  37.6350021  22.4175034  59.5749435  38.6686554  24.1131706  60.4417114
  38.5974693  25.2017937  61.0572777  39.7796745  23.6179447  60.0594406
  34.8256111  26.1817417  59.9505844  35.2966309  27.3263016  59.9188347
  33.7262917  25.9647694  59.2223358  33.4179039  25.0100651  59.1059990
  33.0455437  27.0737591  58.4443665  33.8109665  27.7425728  58.0507774
  32.3375130  26.5695992  57.1313019  31.6852169  25.7353878  57.3895721
  31.8030205  27.4379730  56.7461510  33.3376541  25.9563599  56.1920319
  33.9503441  26.5398712  55.3710670  33.7400246  24.7402763  56.4780159
  34.6556664  24.4449539  56.1706314  33.2786484  24.2904129  57.2557373
  32.1305885  27.9487534  59.2940979  31.6724453  28.9864750  58.8084717
  31.8995342  27.4641418  60.5398636  32.1848640  26.5233307  60.7712975
  31.0198994  28.1841221  61.4348564  30.9779434  27.6881065  62.4045525
  31.5187225  29.6170464  61.8082581  31.2066879  30.2927971  61.0119553
  31.1473141  29.8993988  62.7933693  32.9772263  29.6775475  61.8342323
  33.8234138  28.8717632  62.5402756  33.5664978  28.0820217  63.1150818
  35.0939331  29.0881100  62.0953560  36.0076065  28.5834332  62.3726768
  35.0382576  30.0531979  61.2262039  35.8672523  30.2442551  60.6818123
  33.7596512  30.4369946  61.0157127  33.4217453  31.2528210  60.3939018
  29.5465279  28.0859947  60.9654694  28.7687435  29.0175667  61.1493073
  29.0626659  26.9810791  60.4054718  29.6885300  26.1967411  60.2905197
  27.7864685  26.8894730  59.6474800  27.7459908  27.7162971  58.9383774
  27.8413391  25.6560059  58.7586136  27.8404007  24.7011204  59.2842484
  26.7148914  25.6440926  57.7787666  26.8035717  24.8082905  57.0847397
  25.7569275  25.5035515  58.2794189  26.8234177  26.5382385  57.1648979
  29.0122662  25.7575836  57.9779854  29.0498562  26.6425495  57.6078186
  26.5186787  26.8199100  60.5106277  26.3541126  25.8751507  61.2528687
  25.5539742  27.7702599  60.3571510  25.8233719  28.5243378  59.7416077
  24.1708412  27.6961613  60.7792740  24.1556149  27.3380871  61.8086662
  23.6522141  29.1225624  60.9429893  24.3673687  29.6949844  61.5337410
  23.5116329  29.6020947  59.9742889  22.2961979  29.2587700  61.6712685
  21.8738670  30.2010593  61.3222351  21.6090527  28.4849091  61.3291130
  22.3244400  29.2633114  63.1795425  22.3793545  28.2566395  63.5939102
  23.0491028  30.0049572  63.5155830  21.0947475  29.8564529  63.7247353
  21.3073673  30.2816601  64.7055969  20.7546558  30.6616650  63.0735283
  19.9492054  28.9706974  63.7484970  19.1205120  29.4396725  64.0852814
  19.7257595  28.5302143  62.8675041  20.0778770  28.3437309  64.5298157
  23.2734280  26.8162022  59.8258972  23.2583408  27.0657520  58.5832138
  22.5651264  25.7449226  60.2765770  22.4171333  25.4119968  61.6859474
  22.1287041  26.3394241  62.1807098  23.3455753  25.0086288  62.0901604
  21.2244148  24.3710327  61.6460037  20.2838039  24.9207401  61.6802559
  21.2584076  23.5943947  62.4100571  21.1259670  23.8131695  60.2426682
  20.0776653  23.6925240  59.9695244  21.6948624  22.8847542  60.2927246
  21.7884235  24.8856068  59.3547478  22.4474010  24.3774452  58.6507454
  20.7984524  25.5925636  58.4773102  20.5619545  25.1625175  57.3468895
  20.2611427  26.7557297  58.8284187  20.4748478  27.0753365  59.7623825
  19.3090038  27.5985775  58.0278893  18.6466084  26.9181404  57.4927826
  18.3698788  28.3953037  58.8844109  18.9117432  29.0747604  59.5423050
  17.7289333  28.9333725  58.1860046  17.5775757  27.4893227  59.8311348
  16.7486629  28.1423836  60.1041145  17.0584049  26.6856842  59.3089027
  18.2645683  26.9800320  61.1017075  17.6610699  26.1409149  61.7894669
  19.4198246  27.4092541  61.4239502  19.9413013  28.4983578  56.9328651
  19.2530937  29.0251789  56.0747986  21.2617016  28.6130352  56.9457207
  21.8341846  28.1234932  57.6185570  22.1131859  29.1837578  55.8852310
  21.5101738  29.9657784  55.4237938  23.3157673  29.9912052  56.4626503
  24.0890923  29.4460888  57.0038681  23.7478638  30.4974442  55.5994492
  22.8655434  31.1084900  57.3859444  21.7518196  31.7360268  57.2468987
  23.6715641  31.4042740  58.3294449  22.5910301  28.0704975  54.8219833
  23.3197308  28.4048901  53.8419075  22.1905308  26.8090763  54.9741287
  21.5975075  26.5883694  55.7613449  22.6317921  25.6764278  54.1034813
  23.6348343  25.8733978  53.7250366  22.6953392  24.3188190  54.8037262
  21.7268600  23.9623280  55.1545296  23.1393757  23.2889423  53.8449745
  24.0343876  23.5680027  53.2889442  23.3205376  22.3076077  54.2834549
  22.3343964  23.1133270  53.1313400  23.5489712  24.3437977  56.0569382
  24.6058712  24.4814682  55.8286743  23.2109146  25.1503181  56.7075882
  23.3972034  23.4560947  56.6709785  21.5996761  25.6496925  53.0065765
  20.4585190  25.2380390  53.1928444  22.0939636  25.8332119  51.7732086
  23.0686436  26.0878925  51.7008247  21.1779385  25.7146034  50.6077499
  20.2423801  26.2433147  50.7902145  21.8265648  26.2744141  49.3341293
  22.6518345  25.6029396  49.0971642  20.8750343  26.0836506  48.1185265
  21.3585567  26.5110531  47.2400970  20.4886150  25.0892620  47.8949814
  19.9699726  26.6651173  48.2942009  22.1733150  27.7553082  49.4075890
  22.3760853  28.2059784  48.4360504  21.4262962  28.3164597  49.9689903
  23.0857162  27.8450089  49.9971428  20.7069702  24.2360077  50.4249344
  19.4975395  23.9020996  50.4812317  21.6686611  23.2879791  50.1652527
  22.6367626  23.5734940  50.1283073  21.4705849  21.7849636  50.0518951
  20.6292915  21.5201836  50.6923790  21.1058655  21.3812904  48.5751266
  20.7993832  20.3524933  48.3860588  20.1952744  21.9184036  48.3097305
  22.1665306  21.6878586  47.4990578  22.7418079  22.4704762  47.9937019
  22.7508335  20.7691364  47.4476662  21.5982513  22.2070160  46.1531906
  20.6040897  22.8656292  46.0580597  22.2772980  21.8551464  44.9963264
  22.9738541  21.1422195  45.1595573  21.9534283  22.2777138  44.1380386
  22.7580414  21.0183716  50.5919075  23.8278790  21.6474667  50.5124817
  22.7213116  19.7769394  50.9204903  21.7707233  19.4662876  51.0618286
  23.8936310  18.9126987  51.1655579  24.7917023  19.4807243  50.9228134
  23.9353943  18.4564056  52.6486626  23.8863945  19.2687759  53.3737526
  23.1938400  17.6749802  52.8146973  25.3383846  17.9064713  52.9532814
  25.4999390  17.0155010  52.3465042  26.0486088  18.6873913  52.6815376
  25.6336651  17.3776245  54.6241035  26.0339432  18.8929291  55.4590187
  25.3538475  19.6321259  55.0357513  25.8594208  18.6925488  56.5161324
  27.1086445  18.9209900  55.2791862  23.9650822  17.7462997  50.1641693
  22.9820480  17.0638046  49.9751434  25.1793365  17.4052887  49.8003387
  25.8832779  18.1226349  49.9002342  25.4659328  16.3273678  48.8778419
  24.5844002  15.6877460  48.9212646  25.6773891  16.8900757  47.5043259
  24.8108044  17.4665375  47.1805649  26.5053387  17.5855293  47.6419754
  26.0876751  15.9550343  46.3387756  27.0236034  15.4693289  46.6148643
  25.0394707  14.8571644  46.1477089  24.1847591  15.3729792  45.7100983
  25.4788418  14.0767326  45.5264359  24.7065449  14.3591824  47.0583534
  26.3392124  16.6022739  44.9940910  25.5147400  17.1925316  44.5941620
  27.2356739  17.2208843  45.0362358  26.5584221  15.7920551  44.2986794
  26.5220814  15.3533220  49.3707237  27.6054974  15.7659369  49.6472244
  26.2300854  14.0429411  49.3534203  25.3305931  13.7597857  48.9917068
  27.1927814  13.0181837  49.6712875  28.1581936  13.4865351  49.8629265
  26.8531704  12.3919849  50.9922333  25.8667374  11.9284143  51.0046158
  27.5105801  11.5252991  51.0613251  26.9730148  13.2819290  52.2092590
  27.7044983  14.0423269  51.9357033  25.6624928  14.0117455  52.4622345
  24.9597416  13.2069283  52.6778793  25.7689667  14.6136465  53.3647194
  25.2797050  14.4923105  51.5618782  27.3292046  12.4460344  53.4462318
  28.1935635  11.8096132  53.2566109  27.6290817  13.1463757  54.2257805
  26.4833965  11.8282576  53.7479973  27.3992004  12.0962486  48.5418816
  26.6224403  12.0166292  47.5681648  28.5135098  11.3533354  48.5671616
  29.1857052  11.4468307  49.3151665  28.9792061  10.4690046  47.5390587
  28.0849209   9.9967699  47.1324310  29.7461147  11.2647524  46.5052490
  29.0689354  11.9385977  45.9804077  30.5887337  11.8437643  46.8831978
  30.1650391  10.4559946  45.3821640  30.7786827  11.0296164  44.9174042
  29.7854309   9.3608379  48.1622734  30.2425289   9.4956522  49.3044548
  29.9676266   8.2005377  47.5258293  29.5386753   8.1505575  46.6128120
  30.8494434   7.1696529  48.0233994  31.6153755   7.7105994  48.5791245
  30.1060638   6.1412802  48.8803711  29.5580750   6.5404315  49.7338829
  29.5234013   5.4706264  48.2488441  30.7593575   5.4174418  49.3675766
  31.5076065   6.4065146  46.8818359  30.9337635   6.2626739  45.8107452
  32.6682014   5.8123822  47.0570259  33.2580643   6.0628023  47.8376999
  33.2542381   4.9082904  46.0623093  33.1772957   5.4029198  45.0940514
  34.7219200   4.6802607  46.4773941  35.1068611   3.9837098  45.7325859
  35.5444908   5.9294167  46.2705345  35.0478668   6.7062788  46.8518677
  36.5746689   5.7596593  46.5836029  35.4651833   6.2790017  45.2411652
  34.9104042   4.2519174  47.8181038  34.6556206   3.3293893  47.7430725
  32.5584641   3.5489357  45.8559494  31.7244987   3.2033987  46.7407188
  32.6509399   2.8537951  44.7115479  33.3381920   3.4511321  43.5381165
  34.3123322   2.9621518  43.5451050  33.4340134   4.5360222  43.5820656
  32.5492363   2.9491627  42.3289680  33.1607780   2.9324887  41.4268341
  31.6566372   3.5578425  42.1844902  32.1376114   1.5631731  42.8205833
  32.9486542   0.8574504  42.6409607  31.2270908   1.1827699  42.3576088
  31.8816586   1.6811625  44.3049240  30.8377781   1.9816463  44.3951035
  31.9217091   0.4095335  45.1435966  31.2107067  -0.5327770  44.7607651
  32.5450821   0.4999928  46.3332939  32.9355316   1.3975155  46.5824966
  32.8157539  -0.5775099  47.2826920  32.3834610  -1.4975924  46.8894081
  34.3528214  -0.7837110  47.4291496  34.5974731  -1.6088238  48.0980568
  34.7512245  -1.1137322  46.4697456  35.1764565   0.4725800  47.7499695
  36.4237823   0.2931840  47.8484535  34.7362251   1.6139395  47.8703613
  32.0976448  -0.4887982  48.6486549  32.1575279  -1.5022272  49.3821869
  31.3125877   0.4684626  48.9432564  31.1540833   1.2546822  48.3293839
  30.5650463   0.5982366  50.1964912  30.9740562  -0.0849350  50.9408646
  30.6306515   2.0839415  50.7211418  30.4023991   2.7520297  49.8906860
  29.8816719   2.2535810  51.4946785  32.0448151   2.4796796  51.1945801
  32.6154747   2.6770592  50.2871170  32.1252747   3.8333883  51.8803406
  33.1809425   4.1047602  51.8849907  31.6055050   4.6020370  51.3083954
  31.5317039   3.8540390  52.7943153  32.7684975   1.5140133  52.1572075
  32.9116707   0.6468256  51.5125504  33.8085022   1.7480681  52.3845863
  32.1329002   1.4023169  53.0356407  29.0868664   0.2192849  49.9981270
  28.4282875   0.8111004  49.1318855  28.5815220  -0.7370281  50.6665344
  29.1645088  -1.2196268  51.3353577  27.2351074  -1.2821246  50.3719711
  26.7001247  -0.5794989  49.7330551  27.2723713  -2.6151421  49.5291748
  27.6322098  -3.4627430  50.1124344  26.3100929  -2.7937634  49.0493698
  28.1393909  -2.4450510  48.3642464  28.0922337  -1.4332337  47.3765068
  27.4547501  -0.6502696  47.4025841  28.9863377  -1.7029238  46.4126434
  29.2269764  -1.0801587  45.5637283  29.5721703  -2.8634551  46.7264938
  30.1315002  -3.4660263  46.1398468  29.0539188  -3.2828467  47.9877472
  29.2395020  -4.2360845  48.4602890  26.3393459  -1.4041436  51.5994911
  25.1631279  -1.6043165  51.3166542  26.8567619  -1.2063034  52.8776665
  27.8327084  -0.9519662  52.9318962  26.1176167  -1.3614033  54.1019402
  25.6908016  -2.3641975  54.1202888  27.1253433  -1.1537414  55.2795830
  26.5774994  -1.3368102  56.2039452  27.9927540  -1.8111026  55.2197838
  27.5477734  -0.1501797  55.2294235  24.9608135  -0.3653266  54.2578583
  23.8708897  -0.7391238  54.6465530  25.2805424   0.9367134  53.9790154
  26.2191620   1.1605210  53.6806755  24.3884716   2.0385618  54.3095512
  23.3203259   1.8622847  54.1826973  24.4911098   2.3828669  55.7887192
  24.2875195   1.4937103  56.3854218  25.8935833   2.7204370  56.2411919
  25.8469677   3.1715870  57.2323494  26.3370495   1.7251014  56.2684975
  26.3456936   3.4371331  55.5555954  23.5588665   3.5921147  56.0925865
  24.0842228   4.5315924  55.9208832  22.6403847   3.5543010  55.5068703
  23.3106575   3.6101401  57.1537971  24.7071533   3.2974563  53.3796005
  25.9197731   3.5688975  53.0950127  23.7249126   4.0668192  52.9866905
  22.8037453   3.6526966  52.9940262  23.9663887   5.3619990  52.3729935
  24.6591129   5.2515655  51.5387077  22.5837269   5.8712225  51.8523903
  21.9018402   5.8991227  52.7023048  22.6750393   6.9111176  51.5387268
  21.9184551   5.1325474  50.6796074  20.7734890   4.4068484  50.9593620
  20.3858223   4.3185835  51.9635162  20.0607147   3.8220589  49.8850899
  19.2530270   3.1524150  50.1412506  20.6178741   3.8692396  48.5974197
  20.1296139   3.4445891  47.7327385  21.7160282   4.6919007  48.3421516
  22.1080704   4.6948400  47.3358269  22.3641129   5.2945809  49.3650360
  23.2377052   5.8866830  49.1355705  24.6552238   6.2880564  53.3984222
  24.1288223   6.5204225  54.5097923  25.8049850   6.9557581  53.1130295
  26.4996319   6.9626746  51.8295479  25.8463078   7.0272174  50.9594307
  27.0221539   6.0290098  51.6213608  27.3826160   8.2105608  51.8271255
  26.7085781   8.9830580  51.4569664  28.2826710   7.9768314  51.2584572
  27.6906872   8.4788837  53.2958946  27.8384724   9.5507555  53.4276161
  28.5644531   7.8800211  53.5527916  26.4817562   7.8844562  54.0420456
  26.9242020   7.4102821  54.9181175  25.5949993   9.1024113  54.4750938
  25.6841030   9.6273317  55.6026001  24.6486683   9.3870735  53.6295128
  24.6536484   8.8489761  52.7748032  23.7206593  10.4914742  53.7940788
  24.2254963  11.4534721  53.8823967  22.7911758  10.6542273  52.5817299
  23.3464603  11.1055641  51.7595024  22.4894066   9.6468515  52.2949715
  21.9071503  11.2428160  52.8270111  22.8178673  10.3792229  55.0048790
  22.1887112  11.3974562  55.3867035  22.7329330   9.1923637  55.6064262
  23.3397923   8.4472656  55.2955360  21.7815952   8.8302116  56.6645660
  20.7569180   9.1522236  56.4789772  21.7191448   7.2720528  56.7376671
  21.3520393   6.9379520  55.7672501  22.7379074   6.9010386  56.8498001
  20.9283276   6.6551423  57.9384689  21.2874680   6.9695382  58.9184036
  19.8972263   7.0085001  57.9303474  20.8924427   5.1481371  58.0199242
  20.5439644   4.8518167  57.0305519  21.9384308   4.8443699  58.0615616
  20.0044174   4.6489534  59.1797600  20.3045292   4.8785219  60.2021713
  19.0424423   5.1515265  59.0791283  19.7183609   3.2475300  59.1547241
  19.3495312   2.8626783  58.2968445  20.5208969   2.6674078  59.3534584
  19.0721855   3.0298171  59.8998184  22.2383270   9.5353737  57.9506493
  21.4923134   9.7120447  58.8933678  23.5200348   9.8896418  58.0244560
  24.0964642   9.5500765  57.2678032  24.1369953  10.5780287  59.1431885
  23.9065475  10.0148716  60.0475388  25.6426010  10.4266806  58.8643875
  25.8955116   9.3686581  58.7956047  25.8219471  10.9699440  57.9365921
  26.1663818  10.9397030  59.6709595  23.8167038  12.0796824  59.4591789
  24.0898609  12.5053701  60.5521240  23.3075485  12.8219852  58.4366188
  23.4061146  12.3684597  57.5395622  23.3049431  14.3169756  58.4568367
  24.2696781  14.6943121  58.7959595  23.0171700  14.8894329  57.0622940
  22.0253544  14.5655603  56.7468452  23.0379963  16.5209236  57.0026474
  22.4973240  16.9831924  57.8285294  24.0306168  16.9712410  56.9978600
  22.4983501  16.8240891  56.1054420  23.8812637  14.3445196  55.9652634
  24.9163799  14.5769024  56.2155418  23.7114220  13.2763815  55.8298531
  23.6280136  14.9601746  55.1021652  22.2782078  14.7335958  59.4872665
  22.5147114  15.5702610  60.3372803  21.1755924  14.0771627  59.5734940
  21.0189419  13.4008331  58.8399162  20.0411739  14.4620733  60.4240990
  19.9542599  15.5311918  60.2303581  18.7495594  13.9447355  59.9703941
  17.9812527  14.4961805  60.5123444  18.5278778  14.2096386  58.9365730
  18.5473671  12.4145689  60.1609573  19.3551960  11.8779840  59.6633720
  18.5377026  12.0907640  61.2017097  17.3090420  11.8716879  59.4353561
  17.3260536  12.0514822  58.3604240  17.3172245  10.7884874  59.3140373
  16.0977917  12.4237623  59.9573669  15.5838728  12.9786844  59.2880058
  15.5515003  12.3812246  61.1078720  16.0450611  11.7232218  62.1217499
  16.9485054  11.2999058  61.9646111  15.6212950  11.6498260  63.0356064
  14.4364138  12.9884043  61.3362770  13.9382181  12.7395687  62.1788826
  14.0046186  13.5463486  60.6135406  20.2436943  14.1553888  61.9232063
  19.3342247  14.4864655  62.6449471  21.2554760  13.4744749  62.2936668
  22.0333824  13.3498449  61.6616592  21.5846310  13.1316729  63.6779480
  20.6395187  12.8127890  64.1174698  22.6511345  12.0061064  63.6935959
  23.4924679  12.4016647  63.1245689  22.9315376  11.8017664  64.7268982
  22.2200565  10.7243986  62.9941292  21.7739334  10.9365034  62.0224915
  23.0945473  10.0987749  62.8153496  21.2802238   9.9665661  63.9035568
  21.7493458   8.9678230  64.4830475  20.0946159  10.2988739  64.1131439
  22.1123848  14.3984604  64.3876572  22.0182285  14.4613438  65.6062546
  22.5788250  15.4085693  63.6360245  22.5490246  15.2783966  62.6348915
  23.0816174  16.6535625  64.1108551  23.6085701  16.4289436  65.0382004
  24.0190735  17.3307896  63.1146889  23.5038280  17.4515648  62.1617775
  24.3050690  18.2610722  63.6054840  25.2120667  16.4488277  62.9007530
  24.8725681  15.4831429  62.5261955  26.0630379  17.2611752  61.8592606
  26.9916077  16.7127018  61.7010155  25.5461597  17.3037891  60.9005508
  26.2205009  18.2619476  62.2614517  26.1623707  16.2726021  64.1118927
  26.3867226  17.2587490  64.5184479  25.6917171  15.6697388  64.8885117
  27.0400352  15.6628084  63.8975182  21.9838867  17.5991192  64.5865631
  20.8998241  17.5412617  64.0243607  22.2060394  18.4655457  65.5977631
  23.0694771  18.2518177  66.0761948  21.2331829  19.3719521  66.2847519
  20.4546986  18.6946068  66.6358490  21.8274040  20.0823421  67.4378204
  22.4700699  20.8793221  67.0637894  21.0347004  20.5729256  68.0026703
  22.5303860  19.1310844  68.2627945  23.3706779  18.8812313  67.8715363
  20.5652847  20.2925091  65.2899933  21.2646084  21.0865116  64.6446609
  19.2882614  20.1057758  65.0386124  18.7879486  19.4504280  65.6219711
  18.4897785  20.9640980  64.1447144  17.4974785  20.5185566  64.0745010
  18.3774834  21.9728565  64.5420761  18.9583015  20.9782715  62.6675186
  18.6616516  21.8551540  61.8871956  19.6965427  19.8923569  62.3025475
  19.7365761  19.1433830  62.9789696  20.1247425  19.5294285  60.9295845
  19.9889126  20.4759350  60.4063492  21.5345478  18.9576931  60.7722702
  21.7247391  18.0177841  61.2904396  21.7027645  18.6294651  59.7465668
  22.6907349  19.9040318  61.0019073  23.1957436  20.3065510  62.1759834
  22.9134331  19.9841328  63.1673241  24.0036411  21.4464016  61.9566002
  24.3947983  21.8361778  62.8022766  24.1626072  21.6462479  60.6001816
  24.7514553  22.6673279  59.8799477  25.2961979  23.4493942  60.3879128
  24.9354839  22.4684448  58.4765472  25.5522575  23.1700516  57.9345665
  24.2701054  21.4394932  57.7852097  24.5870228  21.1182709  56.8039932
  23.4079876  20.5905762  58.4816132  22.8998814  19.7584991  58.0169868
  23.3137112  20.7311668  59.9166756  19.0220184  18.6347809  60.2076263
  19.0861263  18.5345554  58.9892197  18.0470409  18.0323906  60.9266586
  18.1685181  18.0740814  61.9284592  17.0982742  17.0917873  60.3975716
  17.7201500  16.3451748  59.9036674  16.3735733  16.4040508  61.5952339
  15.6642647  15.6560154  61.2410851  17.1443520  15.9058962  62.1833191
  15.5184059  17.3657207  62.4455719  16.1650906  18.1488056  62.8414001
  14.6805487  17.7984180  61.8988838  15.0075808  16.6146736  63.6087646
  15.4672661  15.6174803  64.0908127  14.0937710  17.2378654  64.3610001
  13.6922731  18.1143456  64.0598602  13.7769918  16.8077106  65.2181549
  16.1149807  17.6781807  59.3456802  15.1669931  17.0491047  58.9240799
  16.3406372  18.9389954  58.8249626  17.1418400  19.4450264  59.1743965
  15.4269724  19.5611324  57.8372803  14.7602282  18.7909985  57.4494095
  14.5669928  20.7080917  58.4797592  15.1868095  21.6008320  58.5630913
  13.7663441  21.0243511  57.8111458  14.0939398  20.2563362  59.8447495
  12.8511572  19.6146832  60.0112457  12.2597036  19.3433266  59.1493034
  12.3012333  19.3700542  61.2566338  11.2851391  19.0047703  61.2794228
  12.9670086  19.7336674  62.4169960  12.5215521  19.5741272  63.6484032
  11.5915775  19.3477192  63.5743256  14.1436138  20.5214176  62.2667160
  14.6075573  20.9317417  63.1514702  14.7104464  20.7574520  61.0022430
  15.5184622  21.4459248  60.8034515  16.2383976  20.0804462  56.5623360
  15.6510735  20.4083195  55.5568504  17.6029778  20.0582066  56.6010857
  18.0199432  19.8227997  57.4903679  18.4544621  20.4080868  55.4392166
  18.1973991  21.4216175  55.1313629  19.8978500  20.3649368  55.9002914
  19.9491234  19.6887722  56.7536812  20.9626465  19.8286228  54.9468269
  20.9837494  18.7470837  54.8129387  20.9319038  20.3338757  53.9814873
  21.9407730  20.0253983  55.3857498  20.3636456  21.7432499  56.4577179
  20.1189213  21.7810898  57.5192223  21.4487743  21.8061981  56.3762817
  19.7852821  22.5480499  56.0039635  18.2357311  19.3575916  54.3303947
  18.1097660  18.1805820  54.6657829  18.0782223  19.8043556  53.0763817
  18.0915432  21.1409836  52.6197739  19.0896053  21.5773792  52.6588936
  17.4350529  21.8094368  53.1768188  17.6522961  21.0536842  51.1821861
  17.9811630  21.8127327  50.4724045  16.5654602  21.1165562  51.2363701
  18.0089912  19.6165028  50.7420578  19.0778904  19.6598244  50.5330696
  17.3765392  19.2899456  49.9165497  18.0809746  18.8410034  51.9822426
  17.2088032  18.2127266  52.1630440  19.3172512  17.9477234  51.9849663
  20.3838844  18.5056534  52.0592117  19.1863976  16.6530552  51.6855125
  18.3191395  16.1556549  51.8288918  20.2881680  15.6952143  51.7118988
  21.2127533  16.2684994  51.6441650  20.4828701  14.7848015  52.9427948
  19.7067547  14.0208254  52.9884605  21.8089886  13.9822321  52.8730049
  22.6864510  14.6285057  52.8951912  21.9650707  13.4443245  53.8080940
  21.8469238  13.2902117  52.0317078  20.3901119  15.5031204  54.2865372
  19.3631077  15.7579536  54.5481186  20.7385349  14.8188953  55.0601883
  20.9972324  16.4083862  54.2871895  20.1507645  14.8496895  50.4867287
  19.0377636  14.3928280  50.1470833  21.2705956  14.6935453  49.6994286
  21.9570522  15.4199190  49.8452339  21.3303852  13.8818245  48.4677048
  20.4691906  13.2136745  48.4630280  21.3904037  14.7358875  47.1749992
  21.7659073  14.1690140  46.3230896  19.9842262  15.3027105  46.9349022
  19.7223892  15.7748032  47.8818283  20.1117992  16.1483078  46.2590370
  19.3329582  14.5295134  46.5273247  22.2952976  15.8272524  47.3871574
  21.9380550  16.3738785  48.0908470  22.5187092  12.9531784  48.5459785
  23.6406975  13.1943007  48.9952469  22.3837090  11.7244139  48.1125183
  21.5370445  11.5179863  47.6019821  23.5057507  10.7533007  47.9462929
  24.4122524  11.1481752  48.4050217  23.1950455   9.5069075  48.6515656
  22.2546234   9.5088081  49.2026558  23.0907516   8.7584095  47.8660889
  24.5793896   9.1731405  49.7466202  25.3858032   9.3584728  48.6976891
  23.7250843  10.6608496  46.4271202  22.7719765  10.7583303  45.7062645
  24.8582382  10.1706505  45.9924316  25.5248585   9.8351641  46.6729965
  25.1889038   9.7197886  44.6379013  24.3788834   9.2556448  44.0752831
  25.5180931  10.8717384  43.7432404  25.6603298  10.3739815  42.7840157
  24.8091030  11.6985893  43.7013435  26.9520359  11.4255590  44.0123253
  26.9275379  12.1467171  44.8292885  27.5590534  10.5374069  44.1878891
  27.6314907  12.2485199  42.5331078  29.3217030  12.8249569  42.9065704
  29.2384758  13.3812504  43.8402328  29.9383030  11.9650612  43.1682701
  29.7128315  13.4900913  42.1366920  26.3040180   8.6732674  44.7189140
  26.9131470   8.4879522  45.7586975  26.6793594   8.0766516  43.5521317
  26.1811180   8.4885302  42.7761040  28.0340519   7.5481887  43.3708153
  28.4579983   7.3847876  44.3616066  27.9271030   6.2425480  42.5016518
  27.0455856   5.7310324  42.8881531  27.8237877   6.4369154  41.4341087
  29.0826912   5.3093133  42.6966019  29.3112087   4.8664470  41.7271957
  29.9625702   5.8587561  43.0313072  28.7486401   4.2573090  43.7522202
  27.8766518   3.3733664  43.5240898  29.2608738   4.2670231  44.8829575
  30.0538006   4.8743052  45.0332222  28.9061108   3.6474187  45.5973358
  29.0214005   8.5737362  42.6452904  28.5857849   9.2838154  41.7584229
  30.2843914   8.5825720  43.1069603  30.4448624   8.0471344  43.9481850
  31.4439716   9.1770773  42.4807396  31.1378689  10.1637230  42.1329918
  32.6355591   9.2504091  43.4918709  32.2273750   9.3845758  44.4936142
  33.2067833   8.3227577  43.5274544  33.6016998  10.4211454  43.1149635
  34.5853500  10.2935371  43.5669022  33.7989922  10.5612202  42.0521584
  33.1378441  11.8389673  43.5905914  33.7938805  12.7890940  43.2256966
  32.1223145  11.9805298  44.2411652  31.8898640   8.4045982  41.2382851
  31.9324055   7.1746011  41.2101212  32.3852348   9.0730886  40.1446724
  32.3058662  10.0773640  40.0723343  32.9800682   8.4827642  38.9509048
  32.1521912   8.1169071  38.3435631  33.6556129   9.5711946  38.0814285
  32.8801231  10.3308620  37.9833679  34.4913254   9.9114790  38.6928978
  34.2084808   9.1317883  36.7646027  35.0822449   8.5056210  36.9450264
  33.4918442   8.5449104  36.1900558  34.9351273  10.4771128  35.8071632
  36.0397148   9.4454823  34.7083778  36.8159752   9.0626373  35.3709106
  35.5267944   8.5814724  34.2858810  36.5504913  10.0533791  33.9616051
  33.8575249   7.3363981  39.1218681  34.8377190   7.4607792  39.8249855
  33.5692024   6.2560534  38.4030991  32.7658386   6.1633482  37.7980270
  34.4887009   5.1176772  38.4271545  34.5676231   4.7828517  39.4614487
  33.7434311   3.9503574  37.6407890  32.7998352   3.9260442  38.1858978
  33.5382462   4.2383676  36.6097450  34.3416862   2.4929011  37.7855263
  35.2842865   2.2160316  38.6133270  33.9051895   1.5724747  37.1085892
  35.8487091   5.3668470  37.7248459  36.0245285   5.4951100  36.5260468
  36.9135551   5.1842051  38.5098114  36.8194695   4.7671676  39.4248657
  38.3449821   5.4054136  38.1875191  38.5579681   5.3632250  37.1193619
  38.8237648   6.8318429  38.6411285  38.4827538   7.0261564  39.6580162
  40.3202133   7.0306387  38.6621246  40.7704849   6.4064941  39.4340057
  40.6698227   6.7347469  37.6730194  40.4287758   8.0833120  38.9232635
  38.2044296   7.8913269  37.7601395  38.4565010   7.6336331  36.7314720
  37.1293907   7.9241805  37.9371033  38.6630783   8.8621235  37.9480324
  39.2405586   4.2419019  38.7356834  39.2017860   3.8723166  39.9213333
  40.1646576   3.8052621  37.8962402  40.2182045   4.1841888  36.9615517
  41.3222198   2.8087296  38.2034836  40.8580780   1.9691772  38.7210045
  41.8294182   2.1462097  36.9304695  41.1896782   1.3496836  36.5504990
  42.1881180   3.1554482  35.8396072  42.3304329   4.1405392  36.2839546
  43.0527725   2.7894313  35.2859802  41.3575249   3.2883608  35.1463890
  43.0557785   1.4544456  37.1558571  42.8358269   0.6891581  37.6921043
  42.3971252   3.5432243  39.0720291  42.8598175   4.6354513  38.6798820
  42.6687584   2.9545481  40.1992722  42.2207069   2.1070449  40.5172119
  43.6785202   3.4080932  41.2290306  44.0187035   2.5908499  41.8650246
  44.5894165   3.6565330  40.6843719  43.2516365   4.5011792  42.2202835
  44.1038017   4.9172878  42.9684448  42.0539932   4.9601254  42.2205276
  41.3522835   4.6998506  41.5423241  41.5905685   5.9703751  43.2284584
  42.3694916   6.7316937  43.2706223  40.6168022   6.3366714  42.9033394
  41.4599266   5.2920332  44.6251335  41.2307243   4.0662541  44.6917000
  41.6752434   6.0447903  45.6962395  42.0165443   6.9707541  45.4812737
  41.6015587   5.7415786  47.1124306  42.4130249   5.0785656  47.4124947
  41.7368164   7.0645981  47.9119606  42.6752319   7.5989127  47.7637062
  40.9567833   7.7712855  47.6286812  41.5112839   6.8585048  49.4354973
  40.6280594   6.2692485  49.6820641  42.6987457   6.1199641  50.1003342
  43.5948257   6.7399468  50.1280022  42.4522171   5.8812137  51.1348991
  42.9888000   5.2080941  49.5783577  41.3697472   8.1994057  50.1665001
  41.3082275   7.9730396  51.2309570  42.1867790   8.8558226  49.8670387
  40.4084930   8.6301727  49.8862686  40.2430038   4.9836493  47.4030495
  39.2229767   5.6804352  47.6093750  40.3304443   3.6261880  47.5317764
  41.1866112   3.1257443  47.3403740  39.1334572   2.7441452  47.8398819
  38.4202995   2.7545590  47.0156250  39.6363792   1.2760741  47.8588524
  40.3706741   1.2780966  48.6644020  38.8441734   0.5908386  48.1604538
  40.2715187   0.6855575  46.6211548  39.4541512   0.3452476  45.9853783
  40.8012772   1.4471558  46.0489426  41.1595078  -0.5165237  46.8749123
  41.9021454  -0.1806772  47.5986557  40.5649185  -1.3124447  47.3233223
  41.8483009  -1.0170758  45.6043739  40.9703941  -1.3746704  45.0663147
  42.2542610  -0.1326366  45.1133881  42.8811531  -2.0351951  45.8615799
  43.6616402  -1.6212283  46.3510399  42.6983223  -2.8204231  46.4699287
  43.2162552  -2.2464147  44.9324951  38.4943466   3.0655415  49.2381630
  39.1828499   3.6017456  50.1111946  37.2643776   2.6716318  49.4491920
  36.8117867   2.2000632  48.6792030  36.4503517   2.8840201  50.6754684
  35.4188271   2.6324801  50.4289169  36.9217873   1.8407326  51.7921104
  37.9120483   2.2326050  52.0243149  36.3383064   1.9339530  52.7080612
  36.9625473   0.3658334  51.3412056  35.9328728   0.2110768  51.0188370
  37.6714058   0.2937170  50.5163307  37.2471352  -0.5195426  52.5964050
  37.9889221  -0.0244961  53.2231293  36.3003120  -0.6135548  53.1281815
  37.7222710  -1.8679819  52.0186653  37.1382904  -2.0731180  51.1214523
  38.7747192  -1.8145909  51.7400894  37.3990707  -2.8730171  53.0226974
  37.8810501  -3.7139194  52.7386589  37.7674789  -2.5756269  53.9148483
  36.4248962  -3.1053579  53.1534691  36.3886909   4.3270459  51.1494980
  36.5363731   4.5915947  52.3121796  36.1133080   5.2507095  50.2060966
  35.9763107   4.9302745  49.2581253  36.0295181   6.7031684  50.4877853
  36.4444733   6.9017367  51.4759598  36.9301720   7.3615036  49.4203606
  37.9331703   6.9350567  49.4049606  36.3883133   7.3195186  48.4755173
  37.1142960   9.1212225  49.9398651  37.4539261   8.8604536  51.2053871
  34.5894852   7.2169023  50.4674568  33.8522797   6.9197483  49.5424652
  34.1465874   7.9879584  51.4605675  34.8071518   8.1145163  52.2140503
  32.9428406   8.7066736  51.5283661  32.2179031   8.3746958  50.7851601
  32.3442039   8.6127071  52.9525719  33.0058784   9.1185493  53.6557159
  31.0287800   9.4178953  52.8700638  30.4855232   9.2904396  53.8064041
  31.1077690  10.5022430  52.7922859  30.4398212   9.0854769  52.0152397
  32.0184097   7.1974759  53.4107323  30.9388962   7.0840249  53.5101128
  32.1906929   6.4960222  52.5944061  32.6821022   6.8156390  54.7463722
  32.3488350   5.8517532  55.1310158  33.7639542   6.9324160  54.6826057
  32.3186188   7.4672413  55.5409775  33.2513313  10.1866713  51.1913376
  34.2817726  10.7498894  51.6570206  32.4864502  10.9153862  50.3501892
  31.6523972  10.5404644  49.9213638  32.7642059  12.3589382  49.9931831
  33.5545540  12.8205748  50.5850792  33.0151558  12.3927708  48.5257263
  32.4451904  11.6051340  48.0329132  32.8024712  13.4220953  48.2369957
  34.5396194  12.2081947  48.1930428  35.1377144  13.0616283  48.5124702
  34.8463478  11.2625628  48.6400414  34.6052055  11.9760609  46.6549950
  34.1788063  11.0163260  46.3631210  34.1181259  12.8918295  46.3199997
  36.0659485  11.8674679  46.1618080  36.5206261  12.7566948  46.0113182
  36.7673569  10.7789154  46.1191444  36.4604149   9.7162361  46.8382111
  35.6276016   9.6856718  47.4088211  37.1858063   9.0229158  46.9531670
  37.8739624  10.7500172  45.3975754  38.1484985  11.5205698  44.8051414
  38.2489319   9.8184071  45.2898674  31.5123539  13.2019768  50.4248276
  30.4663372  12.7186823  50.7756767  31.8043194  14.5522776  50.4796257
  32.7290268  14.8541727  50.2078209  30.7730675  15.5800962  50.6541100
  29.8003311  15.1839962  50.3625755  30.4661312  15.8035870  52.1213150
  30.1860142  14.8181849  52.4936295  31.6264725  16.1717777  52.9259491
  31.7724247  17.2502270  52.8647652  31.5240822  16.0280762  54.0015717
  32.4985352  15.6255779  52.5664062  29.3448467  16.7636738  52.4428482
  28.4624348  16.4655666  51.8766403  29.0579586  16.7804260  53.4942818
  29.6125202  17.7350368  52.0270271  31.0486164  16.8389130  49.9164886
  32.1869392  17.2255917  49.7964211  29.9700737  17.3825512  49.3884544
  29.1185284  16.8401451  49.4161224  29.9029293  18.7531624  48.8571701
  30.7933407  19.3569031  49.0325775  29.6121006  18.7254162  47.3846931
  30.4476223  18.1760559  46.9508667  28.6825848  18.1684799  47.2666855
  29.4406738  20.0907364  46.7253876  28.9820423  19.9269848  45.7502251
  28.7459278  20.7251091  47.2758484  30.8871784  21.1041622  46.2767563
  31.5118465  20.1084747  44.9173164  31.6525459  19.0646610  45.1979408
  30.8205070  20.1157074  44.0746422  32.4710274  20.4976749  44.5758553
  28.6518230  19.4474125  49.5240822  27.4579601  19.1812840  49.2838135
  28.9430122  20.3978157  50.4346046  29.9249649  20.6087856  50.5411873
  27.8906841  21.2089443  51.1406021  26.9206009  20.7647953  50.9174995
  28.1769085  21.3233852  52.7223167  28.2423592  20.3378239  53.1832771
  29.1023636  21.8861580  52.8444939  27.1032047  22.1685753  53.3797188
  27.2942390  23.2242069  53.1867142  26.1692276  21.7612190  52.9926186
  26.9772301  21.9490891  55.1676559  28.6373501  22.4546471  55.9054565
  28.4915848  22.3382111  56.9793739  29.4225616  21.8139687  55.5041122
  28.8529892  23.4926510  55.6521835  27.7384853  22.6234035  50.4723091
  28.7793331  23.2347527  50.1814957  26.5186634  23.2471333  50.3498459
  25.6351700  22.7752838  50.4798431  26.3499947  24.5812244  49.7439384
  27.2827969  25.1041183  49.5328445  25.6119957  24.4098949  48.4307976
  24.5813465  24.2310448  48.7371902  25.5660400  25.6334343  47.6609001
  26.6027985  25.7948551  47.3656349  25.0198231  25.6114540  46.7178917
  25.1719322  26.4690151  48.2393303  26.0453434  23.3058052  47.6320877
  26.7481461  23.7168312  47.1234360  25.7271652  25.5178719  50.7917709
  24.6576023  25.1637402  51.2523804  26.4130802  26.6294003  51.1166496
  27.1138859  26.9819813  50.4805260  26.0243664  27.4562588  52.3092728
  25.0306740  27.1470127  52.6333771  26.8876991  27.2461452  53.5449677
  26.3778763  27.6324883  54.4275322  27.0988235  25.7274990  53.8895149
  27.8395214  25.2482834  53.2493401  27.6921082  25.7121124  54.8037796
  26.1883049  25.1621151  54.0880051  28.2594757  28.0408516  53.4911957
  28.0111694  29.0959930  53.6057892  28.7840729  27.8134117  54.4191895
  28.9058800  27.7859211  52.6513939  26.0589352  29.0291557  51.8435593
  26.8739872  29.3548813  50.9822769  25.2302551  29.8248215  52.4418182
  24.6332893  29.4178677  53.1475945  25.1366367  31.3194065  52.3073273
  25.5175915  31.6581593  51.3438873  23.6870422  31.7740726  52.6153259
  22.9386082  31.2107372  52.0580063  23.6450081  31.8227005  53.7034302
  23.4485683  33.1864319  52.0507851  23.9650497  33.8894310  52.7043457
  23.8690567  33.2493896  51.0471306  21.9871044  33.5805397  51.8728867
  21.5209484  33.5850143  50.7698555  21.1722488  33.8458557  52.8596039
  21.5075531  33.7657509  53.8089485  20.1990147  34.0114670  52.6463242
  26.1032047  31.8968296  53.3504486  26.0194607  31.7654438  54.5686455
  27.1505013  32.6627426  52.8218384  27.2279797  32.6637077  51.8148155
  28.3186398  33.1129494  53.4718513  28.0954094  33.4901123  54.4698601
  29.2654018  31.9658089  53.8176460  28.7492695  31.1758003  54.3631668
  29.9585514  31.2430801  52.6195831  30.5554485  31.9794121  52.0814133
  30.5402470  30.4211369  53.0368881  29.1137371  30.7582664  52.1303558
  30.2558460  32.4692307  54.6897926  30.5751724  31.6965523  55.1615944
  29.0326958  34.1734047  52.6651421  29.1203270  34.1669273  51.4609642
  29.5339088  35.1763268  53.3687935  29.4201794  35.2645264  54.3684883
  30.3986988  36.1544914  52.7815590  30.2654629  36.2537613  51.7042961
  30.0771351  37.5720787  53.4212112  30.7639503  38.2938118  52.9790726
  29.1106987  37.8911591  53.0309677  30.0910454  37.6175270  54.9553261
  30.6205158  36.7320557  55.5973549  29.7024670  38.6934509  55.4884987
  31.8893700  35.8039093  52.8970871  32.6979141  36.6311684  52.4595985
  32.3030281  34.6486969  53.4332008  31.6321049  34.0960503  53.9475517
  33.6334343  34.0953827  53.3815117  34.2820854  34.8106422  53.8872375
  33.7498207  32.8101425  54.1731110  32.9686089  32.1778145  53.7512436
  35.1302299  32.2355576  53.9682045  35.9507675  32.8915520  54.2588615
  35.2349854  31.3460655  54.5894394  35.2920799  31.9173985  52.9383125
  33.4572487  32.9518776  55.6823082  33.3043442  32.0308533  56.2448273
  34.2088547  33.5230370  56.2272530  32.5155602  33.5007248  55.6725082
  34.1801910  33.9528160  51.9125366  33.4635315  33.3244133  51.0814285
  35.3148384  34.6124039  51.5074387  36.1506653  35.3580208  52.4200554
  36.6765633  34.6138535  53.0181732  35.6212616  36.0388794  53.0865936
  37.0773697  36.1858444  51.6379318  37.9878616  36.4146957  52.1917648
  36.5756187  37.1113319  51.3554039  37.3957596  35.2595978  50.4604073
  38.2625008  34.6712074  50.7614937  37.5993271  35.8799515  49.5875854
  36.0687065  34.4844627  50.2222252  35.4112129  34.8530273  49.4348488
  36.4936562  33.0365868  49.8330688  36.6827164  32.1798363  50.6557846
  36.6319199  32.8380890  48.4912567  36.6222343  33.6422729  47.8802757
  36.6709900  31.5473785  47.8945923  35.7912712  30.9397392  48.1066437
  36.6520081  31.7129803  46.4138069  35.8295708  32.3101883  46.0200539
  37.4620628  32.3752174  46.1082726  36.7653770  30.4515572  45.5065079
  37.6865273  29.8905563  45.6641808  35.9598961  29.7377663  45.6791649
  36.5748024  30.7274876  44.0668449  37.4539566  31.2713509  43.4321632
  35.4015884  30.4222164  43.5327797  34.7528343  29.8488064  44.0528030
  35.4543686  30.4210758  42.5241623  37.8913765  30.7189255  48.3606300
  37.8596153  29.5362282  48.6650848  39.0629807  31.3195152  48.5170174
  39.1328659  32.3029060  48.2975616  40.3238335  30.6640244  49.0851173
  40.4565468  29.6469116  48.7163734  41.5152855  31.4510555  48.6252594
  42.4224319  30.8685341  48.7860603  41.3846169  31.5463409  47.5473251
  41.6710510  32.7176819  49.3879280  40.7381439  33.5250053  49.3848495
  42.8684883  33.0215912  49.7393036  40.3442955  30.4200516  50.6160660
  41.1150780  29.5315533  50.9905701  39.5103340  31.1581879  51.3741417
  38.8701859  31.7724304  50.8914261  39.4594727  31.1244698  52.8020630
  40.4261551  30.7526951  53.1417847  39.2068024  32.4369659  53.5250435
  38.1707802  32.7406044  53.3748169  39.4955254  32.2689857  54.5626030
  40.1813469  33.5100098  53.0195770  41.2020912  33.1279755  53.0044174
  39.8642769  33.7453156  52.0036049  40.1441422  34.7608910  53.9070816
  39.3166733  35.0101967  54.8010216  41.1232986  35.6111984  53.6837883
  41.8360977  35.2027550  53.0962601  41.2226830  36.4050751  54.3002167
  38.3517494  30.1739159  53.3104134  38.3746300  29.8471260  54.5644913
  37.4472504  29.5957336  52.4282150  37.4412689  30.0726299  51.5379143
  36.6073875  28.5363369  52.7639236  36.0580635  28.7183838  53.6876183
  35.7350235  27.9790516  51.5435791  36.3837967  27.6951370  50.7149773
  34.9936523  26.7128334  51.9730682  34.4434357  26.2952461  51.1298714
  35.7269363  25.9134102  52.0794525  34.4722786  26.8300076  52.9230843
  34.7209167  29.0982552  51.0761604  35.3476715  29.9077396  50.7019768
  34.1564293  28.7878170  50.1969070  33.7730026  29.6964645  52.1356850
  33.3172646  30.5852909  51.6993599  33.0196075  28.9580555  52.4099998
  34.3357887  29.9276371  53.0400810  37.4301071  27.3537464  53.2500229
  38.3135376  26.8714886  52.5636635  37.0631180  26.8052998  54.4329872
  36.3734283  27.3042545  54.9765625  37.7351646  25.6890392  55.0618019
  38.7568207  25.6029682  54.6917915  37.9164581  25.8197689  56.5251312
  36.9411392  26.0111294  56.9726105  38.2798233  24.8787098  56.9380188
  38.8862648  26.9299316  56.9542770  39.8454247  26.7146263  56.4833755
  38.4583015  27.8846016  56.6484146  39.1184120  26.9598675  58.5146790
  38.1119270  27.0582008  58.9214020  39.5524101  25.9906654  58.7604408
  39.8782616  28.0375214  59.0145302  40.2329712  28.7324848  58.3731995
  40.0430603  28.4315376  60.2088394  39.6823311  27.7262459  61.2372894
  39.7692070  28.1088371  62.1679802  39.0928688  26.9131413  61.1300583
  40.5719833  29.5772247  60.4907265  40.7115211  29.9161282  61.4318810
  41.0107956  30.0384903  59.7066422  37.2941208  24.3125935  54.6398201
  36.5159607  23.6400986  55.3972092  37.8057442  23.8355579  53.4756470
  38.3795128  24.4669418  52.9350510  37.6250725  22.3725986  53.0965767
  36.5553589  22.1850090  53.0037346  38.2456551  22.3529205  51.6738052
  39.2562790  22.7582970  51.7228851  38.1511116  21.3930340  51.1660805
  37.5580330  23.3591633  50.7869072  36.2718048  23.2149506  50.2078323
  36.1964989  24.3478565  49.4240494  35.3834839  24.6472988  48.7792702
  37.2602119  25.1090679  49.5230789  37.3370781  26.0021057  49.0575905
  38.1426888  24.4384232  50.2888489  39.1519203  24.7680244  50.4868889
  38.3026962  21.4191360  54.1216927  39.3958511  21.7525463  54.6030807
  37.6761284  20.3332672  54.4113884  36.7403603  20.2017479  54.0548248
  38.2252998  19.3528156  55.4129295  39.2510147  19.5982590  55.6881828
  37.2849083  19.2925034  56.6935081  36.3936996  18.7069302  56.4677734
  37.8486061  18.4709415  57.8468056  37.2649040  18.5486565  58.7640572
  37.9859543  17.4217224  57.5853233  38.8804359  18.7748508  58.0230255
  36.9177170  20.6481533  57.2568893  36.2599068  20.5628471  58.1218224
  37.8632774  21.0510693  57.6197548  36.4457817  21.3099022  56.5306206
  38.4010353  17.9190102  54.8680115  37.4121513  17.4781513  54.4195442
  39.5811806  17.2213745  55.0937805  40.3670998  17.6971245  55.5134087
  39.7497025  15.8369951  54.6683311  38.8240433  15.3013258  54.4578171
  40.6140900  15.8481474  53.4188347  41.5295982  16.4132195  53.5938721
  41.0032883  14.8520880  53.2079048  39.8802910  16.3263054  52.1124039
  39.5660286  17.7118397  51.9156151  39.8603859  18.4230442  52.6732063
  38.9267235  18.1239777  50.7645340  38.7611618  19.1841259  50.6417580
  38.7342300  17.1818142  49.7065926  38.4693527  17.6498375  48.4971809
  38.7455063  17.0292931  47.8187561  39.0927124  15.8205376  49.8669319
  38.9576378  15.1116438  49.0634232  39.6211395  15.3895578  51.1145287
  39.7639580  14.3330297  51.2870140  40.4064865  14.9874249  55.8333588
  41.3718796  15.3929443  56.5302429  39.8610344  13.8195038  56.0660286
  39.0627213  13.5094700  55.5306053  40.1830597  12.9861250  57.2433968
  40.9651337  13.4494228  57.8449097  38.9265060  13.0996819  58.1601372
  37.9973030  12.9036188  57.6251183  38.9541550  12.3812456  58.9793968
  38.7123337  14.5483599  58.7160797  38.2672653  15.2236118  57.9852943
  37.6277580  14.3977709  59.8864708  36.7565041  13.9265413  59.4315414
  37.9451599  13.7905798  60.7342186  37.2967529  15.4288225  60.0108795
  39.8522415  15.1471624  59.3773117  39.4335251  15.9123678  60.0309448
  40.2794189  14.3855886  60.0297203  40.5921898  15.4793215  58.6491318
  40.6767540  11.5892429  56.8509445  40.4764328  11.1423674  55.7190018
  41.2788086  10.8900890  57.8020554  41.3354073  11.2619371  58.7394066
  41.7736282   9.4558821  57.5793839  42.3775368   9.0922861  58.4107628
  40.5135841   8.5652514  57.4515839  40.1412468   8.8881607  56.4793739
  40.8455124   7.5273914  57.4793854  39.3453178   8.8030148  58.3913269
  38.9211388   9.7881966  58.1974449  38.5458450   8.1567469  58.0289955
  39.7074242   8.3429976  59.8068161  39.6531143   7.1036592  59.9759026
  39.8229523   9.2075262  60.6947861  42.7625313   9.3306055  56.4679413
  43.7817039   9.9515886  56.4276657  42.5746880   8.4229021  55.4832458
  41.8703156   7.7503176  55.7508011  43.4395294   8.1990881  54.3563919
  44.4768486   8.2446718  54.6880417  43.2290573   6.7899036  53.8315773
  42.1714935   6.5562549  53.7088318  43.7190208   6.7268481  52.8599434
  43.8273544   5.6326900  54.7404556  44.9010773   5.7409916  54.8937035
  43.2607613   5.7329688  55.6662102  43.6308899   4.2469220  54.1986427
  42.5707436   4.0241680  54.0779610  44.1331253   4.1428270  53.2368584
  44.2933578   3.3856704  55.2551460  45.3697014   3.5508940  55.2073326
  43.9765778   3.6227322  56.2708015  44.0768509   1.9729449  54.8839493
  43.1808243   1.6417130  55.2118530  44.2746353   1.8725797  53.8986015
  44.6985893   1.4519801  55.4857292  43.3341484   9.3712053  53.3082390
  44.2912064   9.6020288  52.5715828  42.1897545  10.1244030  53.3428345
  41.4646645   9.8393583  53.9855614  41.8715248  11.1293268  52.3237419
  41.9143639  10.6740322  51.3343086  40.3902512  11.5235844  52.4453850
  40.3118553  12.2420301  51.6294250  39.8250084  10.6445866  52.1356087
  40.0690765  11.9656973  53.3885078  42.7410774  12.3770876  52.3453369
  42.7679558  13.1683178  51.3923416  43.5618324  12.5302620  53.3573608
  43.4937820  11.9096060  54.1512527  44.5659103  13.6511126  53.4056358
  44.0291939  14.5955839  53.4951477  45.4255791  13.5520525  54.6625710
  44.6976204  13.6261015  55.4704666  46.1612167  12.2586365  54.7620773
  47.0723534  12.1642179  54.1713028  46.3992691  12.1416245  55.8193092
  45.5471077  11.4287806  54.4123535  46.4427605  14.7142429  54.7450943
  46.8913116  14.8510170  55.7290649  47.1128349  14.6174030  53.8908577
  45.9205399  15.6440420  54.5195732  45.3580360  13.7120037  52.0982170
  45.4988594  14.8160048  51.4705849  45.7531853  12.5337877  51.5028152
  45.7166481  11.7458992  52.1336861  46.5632172  12.4312277  50.2590790
  47.4035645  13.1252394  50.2428360  47.0641594  10.9562082  50.1900826
  47.3434448  10.6019897  51.1823692  46.0398483   9.9453621  49.7109451
  46.3517151   8.9193249  49.9061203  45.0668983  10.1783600  50.1435928
  46.0116463   9.8626604  48.6244507  48.4031258  10.9517241  49.4000320
  49.1015816  11.5120363  50.0215759  48.8043671   9.9382601  49.4003258
  48.2506866  11.3486910  48.3964005  45.7850075  12.7470875  48.9707413
  46.3495407  12.7664680  47.8791084  44.4256516  12.8552189  49.0264397
  43.8958473  12.7097874  49.8739433  43.6260300  13.3259420  47.8641624
  44.0192490  12.7918644  46.9991493  42.1251793  13.1916513  48.0967827
  41.8964920  13.8830957  48.9077721  41.6431427  13.6177731  47.2169151
  41.6558075  11.7508354  48.3910866  42.1417427  11.2256756  49.2133827
  40.1061783  11.8024282  48.7576103  39.9637909  12.4893427  49.5918655
  39.6007729  12.1292400  47.8488426  39.7615891  10.8047686  49.0297012
  41.7274742  10.8820925  47.1284256  42.7483902  10.6989431  46.7933350
  41.0238533  10.0569229  47.2384758  41.2897644  11.4324465  46.2955856
  44.0737000  14.7756624  47.6155472  43.8532410  15.2369642  46.4892006
  44.5495567  15.5851660  48.5468864  44.8928833  15.0433664  49.3270645
  44.6320992  17.0263119  48.6034431  44.4534225  17.3466492  47.5770073
  43.3910370  17.4790001  49.3439369  43.4043465  16.8558655  50.2381592
  43.3931541  18.5133686  49.6877022  42.0156212  17.2497272  48.6548653
  41.9391937  16.1676674  48.5480537  41.2039185  17.5800266  49.3030510
  41.8527260  17.8936119  47.2717552  42.5128899  17.4304771  46.5384140
  40.8712959  17.6433487  46.8689346  42.1003647  19.3572540  47.3078766
  43.0580673  19.6780052  47.3026619  41.1506882  20.2710781  47.5993080
  39.8513947  20.0247536  47.7896423  39.1038017  20.6945858  47.9015770
  39.4999084  19.0855274  47.9097214  41.4581642  21.4965611  47.6328049
  40.7729607  22.2383575  47.6512604  42.4477348  21.6513805  47.5028763
  45.9035225  17.5763454  49.1641312  46.0461578  18.1944542  50.2585030
  47.0899620  17.3390388  48.4526749  47.3092422  16.1972141  47.5234413
  47.0618935  16.3342438  46.4707565  46.8351784  15.2809525  47.8753357
  48.7891846  15.9444227  47.5873375  49.0908012  15.6097136  46.5948143
  48.9249115  15.2873793  48.4463921  49.3527107  17.3142776  47.7636337
  49.3036118  17.8602295  46.8214951  50.3066788  17.4174843  48.2807426
  48.4232025  17.9098816  48.7867775  48.6325264  17.5608120  49.7979317
  48.5221443  19.4573116  48.6878510  49.4135818  20.1053257  49.1670799
  47.4375648  20.1255302  48.1491585  46.5627975  19.6478653  47.9856682
  47.2618446  21.5240746  48.3117027  48.2533379  21.9751625  48.2722435
  46.4043198  22.0756378  47.1300812  46.4284821  23.1526279  47.2962418
  46.9447708  22.0227623  46.1849785  45.0029068  21.4217529  46.9923248
  44.7954750  20.2758884  47.3455963  44.0549355  22.1853790  46.5877800
  46.6731720  21.9599857  49.6956406  46.8861732  23.0921841  50.1320724
  45.9739342  21.0848064  50.4463005  45.8725471  20.1395264  50.1053162
  45.3557281  21.3659515  51.8195915  45.2923927  22.4513149  51.8975410
  43.9447746  20.8000870  51.9314461  43.9128418  19.7115383  51.9777565
  43.5776215  21.1481628  52.8969231  42.9635963  21.3196259  50.8512764
  43.2836418  20.9615746  49.8727722  41.5293045  20.7684650  51.0284386
  41.2593079  20.6965675  52.0820198  40.8179359  21.3805237  50.4739685
  41.5096169  19.7714329  50.5883865  42.8100471  22.7933979  50.7625351
  43.8223305  23.1907349  50.6883125  42.3874969  23.1719666  49.8318176
  42.4868584  23.2824421  51.6814957  46.1320000  20.9021034  53.0092697
  46.0884285  21.4829388  54.1523247  46.7831841  19.7588100  52.9033661
  46.7236023  19.3273201  51.9921227  47.6631546  19.3456020  53.9242935
  47.1197510  19.4622860  54.8619499  47.8136063  17.8484573  53.7927856
  46.9186668  17.2270393  53.7608490  48.4328346  17.6741943  52.9128456
  48.4894371  17.2635078  54.9283676  48.1677322  17.5200043  55.7957306
  48.9664116  20.1990089  54.0033569  49.4175491  20.4773026  52.8997841
  49.4762802  20.4599152  55.1705818  49.1336212  19.8912811  55.9317322
  50.5938911  21.2770309  55.4783287  50.4822159  21.6299572  56.5035477
  51.8292732  20.4270535  55.2919769  51.9691544  20.2667294  54.2229462
  52.7009811  20.9956589  55.6158981  51.7210999  18.9817505  55.8497086
  50.8806648  18.5805054  55.2833405  53.0258484  18.2359371  55.6033363
  53.7242622  18.3292046  56.4349747  52.8877525  17.1550026  55.6279678
  53.4143715  18.4701729  54.6122322  51.3344650  18.8746681  57.3633766
  51.5464592  17.8566666  57.6902237  51.8379669  19.6062908  57.9952927
  50.2672653  19.0635185  57.4796524  50.5671577  22.5878906  54.6318855
  51.6241417  23.1076374  54.2550163  49.3973122  23.2259426  54.4097862
  48.5358009  22.9542141  54.8615189  49.2407837  24.5761871  53.7000694
  49.7331505  24.4615116  52.7343903  47.7458382  24.7831898  53.3648872
  47.3389320  23.9078846  52.8585548  46.9435120  25.2146587  54.6007042
  47.1200523  24.5598698  55.4540443  47.0384483  26.2672081  54.8675919
  45.8921127  25.0700874  54.3521729  47.6390152  26.0017357  52.5079346
  47.9498940  25.7292805  51.6414909  49.8727074  25.7664852  54.4629288
  49.8410378  25.8379784  55.6730995  50.4274101  26.6956406  53.7113686
  50.4010353  26.4954128  52.7217636  51.0073814  27.9980850  54.1000404
  51.7200508  27.7685814  54.8922081  51.8977776  28.5676785  52.9996605
  52.6235504  27.8015690  52.7268448  51.2544518  28.7438259  52.1375656
  52.6271057  29.8556919  53.2907257  53.0509186  30.1189213  52.3216057
  51.9462395  30.6389923  53.6238441  53.7150078  29.6930866  54.4435768
  53.2718048  29.3812618  55.3893242  54.3999672  28.8943081  54.1591682
  54.4980202  31.0131302  54.6320572  54.9546013  31.1706429  53.6549034
  53.7310371  31.7870960  54.6034737  55.4475250  31.1154728  55.7624016
  54.9215240  30.8957062  56.5961418  56.0862808  30.3355923  55.7001534
  55.9267654  32.0029602  55.7095222  50.1208229  29.2041836  54.6557274
  50.5334625  29.8937626  55.5799294  48.8963432  29.2603245  54.1126976
  48.6455803  28.4882259  53.5117989  47.8204994  30.2430477  54.3194962
  48.1304779  31.1610870  53.8202820  46.7028046  29.7782288  53.3979797
  47.0200806  29.7568016  52.3553963  46.3255768  28.7884197  53.6550598
  45.4816971  30.6299782  53.4711189  45.2993164  31.4535255  54.3543015
  44.5823135  30.4648933  52.5079346  44.7277107  29.7232666  51.8378983
  43.6900597  30.9280109  52.6054306  47.4277229  30.2615719  55.7766190
  46.8810501  29.2978973  56.3245010  47.5689774  31.4297695  56.3535576
  48.0616913  32.1789398  55.8887177  47.2158966  31.5672112  57.7480774
  47.7234726  30.7782307  58.3030319  47.5733757  32.9607201  58.3735619
  47.0938835  33.0102806  59.3511772  49.0795670  33.0060959  58.4554253
  49.3764954  34.0137711  58.7461433  49.4495125  32.3031158  59.2017899
  49.5658722  32.7536697  57.5131454  47.0993500  34.0624657  57.6651497
  46.3155594  34.4378700  58.0730019  45.7716522  31.3102093  58.0402832
  45.4449310  30.8644676  59.1474838  44.7981987  31.5774155  57.1782799
  45.1116486  31.8717766  56.2643890  43.2627525  31.4443722  57.3904991
  42.9477654  31.9895973  58.2802277  42.5503197  32.1130219  56.1412697
  42.9445457  31.6881218  55.2181549  41.4660301  32.0092010  56.1006966
  42.8813744  33.5743790  56.1615562  43.9269218  33.8216476  56.3453865
  42.6303864  34.0154648  55.1969070  42.0052032  34.3695908  57.2342911
  42.2184525  35.5892220  57.3375130  41.1365280  33.7853355  57.9291000
  42.6475220  30.1069832  57.5683365  41.4670715  30.0284195  57.8213577
  43.3946228  29.0351849  57.2618561  44.3887482  29.1867504  57.1677666
  43.1036377  27.5784264  57.2135506  42.0248375  27.4353886  57.2754593
  43.4498100  27.0756493  55.7767754  44.5310783  26.9451656  55.7328339
  43.0532990  26.0779743  55.5882912  42.9064674  27.9954433  54.6537094
  43.2233696  29.0383549  54.6508865  43.4190598  27.4571362  53.3096237
  43.2900200  28.1112881  52.4473419  44.4946213  27.2808723  53.3238640
  42.9986191  26.4923706  53.0258064  41.3601074  28.0545483  54.5908241
  41.0620308  28.6629906  53.7369804  40.9059029  27.0648632  54.5426025
  40.8932037  28.5996075  55.4111977  43.7422180  26.6651459  58.2766190
  44.9215775  26.7647648  58.6680298  42.9344673  25.8674107  58.7763901
  13.8065166  35.8685417  52.4322357  14.0419941  36.8357658  52.2615623
  12.8867636  35.8930397  52.8488350  14.5008917  35.4948082  53.0633202
  13.8283138  35.1009331  51.1912193  13.2834663  34.2048912  51.4884605
  13.0725613  35.7726212  50.0254135  12.0155392  35.5158386  50.0951843
  13.2346869  36.8494148  50.0736961  13.3954420  35.1108513  48.6694031
  14.1597052  35.7124100  48.1773338  13.7120447  34.0863342  48.8649330
  11.8833332  35.0719032  47.5897293  11.1214209  36.7127113  47.8663979
  10.3760986  36.5887184  48.6520309  11.8548794  37.4904556  48.0791397
  10.6458054  36.9382286  46.9119186  15.2623386  34.7266006  50.7734184
  16.1059227  35.6458473  50.8011398  15.5884495  33.4996643  50.3522568
  14.8259993  32.8378143  50.3253670  16.8881950  33.0867310  49.7717972
  17.0755177  33.9576492  49.1436958  17.9710598  32.9126740  50.7951546
  18.9023933  32.7323074  50.2583237  18.0867844  33.8244896  51.3810768
  17.7207069  31.6676998  51.7425308  16.7319679  31.7708073  52.1895943
  17.6892834  30.8014183  51.0817223  18.9112759  31.3033466  52.9652290
  20.0425968  30.0789051  52.1795082  20.4345169  30.5581703  51.2824020
  20.8430080  29.7019119  52.8161545  19.4269600  29.2303066  51.8812256
  16.6921673  31.9412289  48.8686104  15.6790915  31.3343849  48.8409882
  17.7362881  31.6367149  48.1187134  18.6213379  32.0965157  48.2779961
  17.8482533  30.3200703  47.4037628  16.8645878  30.1741543  46.9574318
  18.8992481  30.2975864  46.2526169  19.8363762  30.5473595  46.7501183
  19.0435600  28.8638344  45.6016083  19.0933495  28.1148415  46.3919487
  18.1733627  28.6757526  44.9727325  19.9882851  28.7261868  45.0756340
  18.6368980  31.4533997  45.2353477  17.8151340  31.1875858  44.5704079
  18.2581844  32.3923225  45.6392021  19.9819527  31.7743816  44.5006828
  20.3670464  30.8526764  44.0644798  19.8370552  32.5063972  43.7061653
  20.7149944  32.1478310  45.2157249  17.9522228  29.1680088  48.4471741
  18.8432159  29.0453815  49.2552643  17.0877647  28.1719761  48.2067947
  16.3913555  28.3393898  47.4946938  17.0097275  26.8839989  48.9630356
  17.8615952  26.7496700  49.6296539  15.7714863  26.8929520  49.9383202
  14.8560801  26.9165554  49.3470726  15.8325987  25.9266262  50.4389038
  15.9385052  28.0601711  50.9617691  17.0155964  28.0372066  51.1274452
  15.7807951  29.0223789  50.4745369  15.0816164  27.8364220  52.1623192
  14.0830832  28.0197506  51.7655487  15.2248287  26.8189011  52.5259705
  15.3762102  28.8687706  53.2158661  14.8053112  29.7012177  53.2505951
  16.3179493  28.9171314  54.1080017  17.3065968  28.1179066  54.2014427
  17.9449711  28.3129311  54.9594307  17.4430714  27.2877464  53.6426010
  16.4648018  29.9656715  54.8627281  15.7956562  30.7114887  54.9896202
  17.2714729  30.0732632  55.4608955  16.8399448  25.6425323  48.0280380
  16.3638458  25.7390537  46.9776649  17.3283081  24.5294895  48.4595757
  17.6961174  24.5330963  49.4002151  17.1191788  23.2265663  47.8041687
  17.4368649  23.1788597  46.7625847  17.8989296  22.6786194  48.3331833
  15.7167187  22.6869926  48.0034561  15.2665787  22.8254852  49.1457062
  15.1597757  21.9114456  47.0730629  15.6593637  21.7480240  46.2106209
  13.9298954  21.1146011  47.3156853  13.7601795  20.9599972  48.3812332
  12.6601009  21.9383659  46.8020668  12.8786230  22.0694447  45.7422676
  11.2856083  21.2220135  46.9775238  11.2983847  20.1915379  46.6224747
  11.0761118  21.2106113  48.0471420  10.5290184  21.7988033  46.4455528
  12.6364355  23.4255638  47.3786201  12.5388536  23.4277401  48.4642410
  13.5674839  23.9473915  47.1573715  11.4862394  24.3004627  46.8728142
  11.5398426  24.2809582  45.7843056  10.4896889  23.9433479  47.1325417
  11.6855116  25.3010139  47.2565956  14.0226784  19.7529125  46.6416435
  14.6967564  19.6239376  45.6496468  13.3339806  18.7404099  47.2429314
  12.7242184  19.0441551  47.9886055  13.4971390  17.2757969  46.9593353
  14.1019258  17.1510696  46.0611267  14.3059902  16.5580940  48.0343857
  13.9621925  16.9919872  48.9733429  14.2306728  15.4797573  47.8943214
  15.7988453  16.9846954  47.9151611  16.1901455  16.9534817  46.8983002
  15.9162016  17.9963913  48.3034897  16.7707405  16.0418758  48.6922874
  17.7631607  16.4393196  48.4795952  16.3941917  15.9895668  49.7138481
  16.7761440  14.6796083  48.1399841  17.1054955  14.5132790  47.1997910
  16.3935165  13.6474104  48.7891617  16.2528706  13.6105928  50.0685539
  16.4925461  14.3791800  50.6784134  15.8863335  12.7248240  50.3866272
  16.2489262  12.5429478  48.1293793  16.5145397  12.5380859  47.1549377
  16.0359383  11.6419239  48.5329781  12.2735424  16.4616909  46.6831245
  11.1581144  16.8772106  46.9758263  12.4139366  15.2729273  46.0525780
  13.3572435  14.9645452  45.8650360  11.4796982  14.1753454  46.1446266
  11.3831682  13.9045267  47.1960220  10.5228443  14.4639587  45.7096062
  11.9899778  12.8907270  45.4199905  13.0320625  12.9717989  44.8290672
  11.1923189  11.7900200  45.4841003  10.4452190  11.7789125  46.1636734
  11.5908852  10.4383917  44.9509773  12.1509705  10.7042427  44.0544662
  12.4471025   9.6006308  46.0451546  12.8671637   8.6629066  45.6813927
  13.2365026  10.2743883  46.3783264  11.6949215   9.4310665  46.8155899
  10.3339214   9.5811214  44.5405464   9.3056507   9.7272186  45.1366272
  10.5078545   8.6936979  43.5635376  11.3975945   8.6158247  43.0919456
   9.4886017   7.7627883  43.0674477   8.7867289   7.5366545  43.8701553
   8.5984583   8.4925423  42.0339737   8.2102718   9.4341040  42.4223976
   9.2886219   8.7075577  40.6617737   8.7094250   9.4359484  40.0942612
  10.3439016   8.9751177  40.7156067   9.3401146   7.7779670  40.0949326
   7.4732542   7.7230997  41.7310028   7.0506253   8.4129200  41.2141533
  10.0586815   6.4340491  42.5178490  11.2972622   6.2728214  42.4929276
   9.2453604   5.4953723  42.1262741   8.2533598   5.6076279  42.2793503
   9.7561131   4.2539473  41.5582352  10.7662916   4.4962530  41.2281914
   9.7167072   3.1270552  42.6275368  10.0696373   2.2091160  42.1575089
  10.5164309   3.4089122  43.9140778   9.8881474   3.8003788  44.7141495
  10.9092321   2.4196639  44.1490135  11.3925352   4.0411439  43.7697563
   8.4196033   2.8843312  43.1460304   7.9433613   2.2937684  42.5577888
   8.8468676   3.7948616  40.3324242   7.6974511   4.1356006  40.3068886
   9.3300734   2.9522576  39.4622307  10.3116341   2.7475560  39.5836411
   8.5879030   2.3503644  38.3207550   7.5385385   2.6059041  38.4678383
   9.0489101   2.9600048  36.9296150   8.4923964   2.4299812  36.1566544
   8.7580729   4.4891152  36.7749176   7.9790244   4.7300801  37.4981918
   9.5869427   5.1367688  37.0606079   8.4168034   4.7671666  35.7777596
  10.5461836   2.7997367  36.7747192  10.6823578   1.7281600  36.9205971
  10.8397112   3.1419005  35.7823181  11.0418491   3.2250772  37.6473656
   8.6851768   0.8369378  38.2744637   9.5804768   0.2371399  38.9717827
   7.8711820   0.1030577  37.5421448   7.0961223   0.5676697  37.0910149
   7.8736644  -1.3972822  37.4720879   8.3817282  -1.7853388  38.3549118
   6.4239573  -1.9437939  37.5864449   5.8167186  -1.8178493  36.6900635
   6.4046164  -3.0336108  37.5914612   5.6000080  -1.5650610  38.7923126
   5.5754709  -0.4767047  38.8469009   4.6384702  -2.0075383  38.5320053
   6.2025609  -2.2881622  40.0466995   6.2981305  -3.5539303  39.9841156
   6.6231170  -1.6443460  41.0090446   8.5996256  -2.0054564  36.2610703
   8.8295746  -3.2472839  36.1997719   8.8774385  -1.1663759  35.2662582
   8.4597492  -0.2646968  35.4468422   9.6081724  -1.6259429  33.9936333
  10.1146259  -2.5512333  34.2683029   8.6076689  -1.9453425  32.8800354
   7.9003391  -1.1209073  32.7900848   9.1134405  -1.9910560  31.9155655
   7.8710241  -3.3067575  33.0968819   8.4850950  -4.1422868  33.4328995
   7.0922561  -3.1753440  33.8481216   7.2352037  -3.6731119  31.6990662
   7.9328585  -3.7488532  30.8650150   6.6437941  -4.5843630  31.7882862
   6.2258658  -2.6505547  31.3361092   5.5326142  -2.4465480  32.0417175
   6.0819879  -2.1172171  30.1627197   6.8141112  -2.3696408  29.0911617
   7.6128616  -2.9876006  29.1061535   6.3655400  -1.9972054  28.2664337
   5.0758762  -1.3383965  29.9293880   4.5199728  -0.9849320  30.6949844
   4.9345956  -0.8431149  29.0605755  10.5334921  -0.5266647  33.4565582
  10.0475845   0.5663716  33.3411980  11.7132921  -0.8724177  32.9718628
  11.9350653  -1.8577539  32.9772911  12.5747919   0.1420780  32.2492599
  12.6046457   0.9631767  32.9655037  14.0113935  -0.4398039  32.1593895
  14.1864548  -0.8172534  33.1668549  14.0638685  -1.3506107  31.5629158
  15.0842113   0.5204396  31.7048016  14.9654331   1.6936517  32.1022949
  16.0583286   0.0872557  31.0993004  11.9482651   0.5852928  30.9188595
  12.2909842  -0.0053612  29.8630619  11.0565300   1.5839736  30.9719181
  10.8112612   1.9783692  31.8687992  10.3585911   2.1404192  29.8227615
  11.0823431   2.1063211  29.0084400   9.1355352   1.3186507  29.3712025
   9.4243698   0.3041936  29.0963249   7.9656992   0.9954947  30.3344688
   7.6377850   1.8944805  30.8563843   7.1163735   0.5413479  29.8240814
   8.3831692   0.3725350  31.1255093   8.5043707   1.8294613  28.2163506
   7.9277034   1.0967106  27.9880276  10.0041008   3.5916858  29.9292374
   9.4630814   4.0752749  30.8934765  10.3561373   4.3495727  28.8613434
  10.7141848   3.9242930  28.0181122  10.0231123   5.7404079  28.6321983
  10.4448223   6.3397536  29.4390736  10.6177654   6.0511942  27.2895432
  11.6876726   5.8483529  27.2420788  10.1701765   5.4742417  26.4802856
  10.3686571   7.5036001  26.8658867   9.3037682   7.7167807  26.7727909
  10.8185625   8.1364527  27.6308575  11.0246344   7.7909436  25.4460812
  11.8064957   8.7368832  25.3392429  10.9119701   6.9392071  24.5328598
   8.5060644   5.9228287  28.7394505   7.9463973   6.9671507  29.0543671
   7.7302189   4.8096480  28.4745903   8.1309500   3.9533668  28.1192074
   6.1919622   4.9434524  28.6204033   5.7465601   5.7342973  28.0168457
   5.6067519   3.6156087  28.0979366   5.8760104   2.8106713  28.7818050
   4.5200639   3.6973252  28.1210003   5.9149408   3.1924086  26.6898403
   6.9296088   2.8132377  26.5682755   5.2712736   2.3654766  26.3898773
   5.8280950   4.3278623  25.6385403   6.7079568   4.3132224  24.7645626
   4.9022822   5.1789012  25.7448311   5.6951876   5.0843611  30.0404301
   4.5612988   5.5386796  30.2751865   6.3665700   4.6839790  31.0918446
   7.2048411   4.1977100  30.8073368   6.0959172   4.9519258  32.5084229
   5.0453982   5.1405535  32.7296486   6.3862972   3.7579885  33.3679581
   7.3805361   3.4203386  33.0754166   6.3481946   3.9181530  34.4454536
   5.4359250   2.5447199  33.0711670   5.5252371   2.4673431  31.9875927
   5.8696446   1.6249200  33.4635391   3.9714673   2.5803783  33.5974884
   3.4706798   3.6507981  33.9231758   3.3615673   1.4766859  33.7529030
   6.9536543   6.1224341  32.8120842   6.4824119   7.0631733  33.4311523
   8.2854691   6.0384369  32.6098709   8.6783180   5.2953348  32.0499001
   9.2199373   6.8410058  33.4095078   9.0206213   6.7140889  34.4735870
  10.6868858   6.3021464  33.1247253  10.7877302   6.1338286  32.0525322
  11.7451172   7.3141603  33.6903305  12.6728954   6.7980490  33.9372482
  11.9139776   8.0209827  32.8779297  11.4654770   7.7509890  34.6490173
  10.8885670   4.9703503  33.9131660  10.8815231   5.1048455  34.9948120
  10.1136322   4.2564931  33.6339035  12.1913986   4.1383543  33.6692047
  12.4006739   4.0946631  32.6003761  13.0857019   4.6040549  34.0832672
  12.0440712   3.1298051  34.0555000   9.0613575   8.3425369  33.1178474
   9.2063961   9.0762606  34.0718651   8.8343391   8.7437782  31.8779926
   8.6799135   8.0417833  31.1684418   8.5314217  10.1411839  31.4488354
   9.4382963  10.7050867  31.6672192   8.4141541  10.1364841  29.8987522
   8.8761969   9.2900696  29.3906193   7.3398633  10.0284376  29.7493362
   8.8637114  11.4625282  29.1774673   8.3795443  12.2703104  29.7262573
  10.3613338  11.6303358  29.3044395  10.8654671  10.7568197  28.8910103
  10.6081228  12.3981075  28.5711460  10.7082663  11.8195343  30.3202858
   8.3663225  11.4823465  27.7367554   8.7354193  12.3889837  27.2572994
   8.6984510  10.6100397  27.1738434   7.2764015  11.4817715  27.7235241
   7.2714515  10.7674017  32.1720047   7.3756075  11.8480320  32.8175240
   6.1419663   9.9356518  32.1980324   6.2547245   9.0838032  31.6672421
   4.9114490  10.2354679  32.9139900   4.4479098  11.1663971  32.5874748
   3.9248533   9.1807327  32.4786224   3.7908497   9.2553549  31.3994694
   4.3601260   8.2119961  32.7239571   2.5351043   9.2526178  33.1917763
   2.0230360   8.3148918  32.9760056   2.7334588   9.5238867  34.2286797
   1.7505851  10.5379772  32.7343178   2.1777601  11.3154516  31.8416805
   0.6517960  10.9350491  33.3578758   0.1973721  10.2686615  33.9657669
   0.1880860  11.7771368  33.0480957   5.0685129  10.2682228  34.4878159
   4.5951099  11.2376957  35.0672913   5.7333980   9.2439404  35.0772667
   6.0777750   8.4658499  34.5331345   5.9597268   9.2038193  36.5323753
   4.9958787   9.3022623  37.0317802   6.5195107   7.8214059  36.9987564
   6.9960365   7.3852472  36.1208115   7.1770358   8.1269150  37.8126526
   5.6017952   6.6627035  37.3718758   6.2365208   5.7788892  37.4358711
   5.2031565   6.8953185  38.3593407   4.4663053   6.4750109  36.4331779
   3.8676658   7.3832474  36.3636284   4.7794323   6.2608032  35.4113312
   3.4965901   5.4044104  37.0457649   4.0160351   4.5120182  37.3949242
   3.1545675   5.8373594  37.9858055   2.3542476   5.1195302  36.2222481
   1.8578591   5.9603486  35.9639397   2.7045667   4.6295180  35.4115295
   1.7094579   4.5077748  36.7019386   6.8315411  10.2883930  37.0161819
   6.4121656  10.9177437  37.9540138   7.8553419  10.5123482  36.2305183
   8.2231646   9.9076853  35.5099716   8.7659645  11.6190100  36.6839218
   9.0437460  11.6017485  37.7377892  10.0799303  11.6287470  35.9476929
   9.8563862  11.7587671  34.8888206  11.1288357  12.6365099  36.4207726
  11.9987593  12.5318098  35.7724075  10.7817268  13.6695318  36.4427299
  11.3633842  12.3613043  37.4490471  10.6284189  10.3645439  36.0222435
  10.1440849   9.8455477  35.3759766   8.1449184  12.9553080  36.5235748
   8.2902403  13.7570658  37.4315186   7.2965140  13.1519766  35.4306030
   7.2853880  12.4266853  34.7278023   6.5729389  14.4151402  35.2865982
   7.2804666  15.2433519  35.2469749   5.8596458  14.3152924  33.8731422
   6.5752249  14.0086069  33.1102600   5.0521808  13.5867720  33.9463577
   5.3288336  15.5613804  33.2388268   4.6216192  16.0408173  33.9156494
   6.1560965  16.2608547  33.1185303   4.6156659  15.2183104  31.9147568
   4.5152745  16.0897942  31.2678108   5.3504453  14.7064857  31.2932796
   3.2962732  14.4775019  31.9836578   3.4842675  13.5613270  32.5434608
   2.5836387  15.0885687  32.5375977   2.8759561  14.1434755  30.6475353
   3.6096396  13.8131485  30.0370483   2.2390382  13.3627491  30.7175789
   2.3287773  14.8458700  30.1707344   5.5488172  14.6825161  36.3764420
   5.4849854  15.7282257  36.9721336   4.8714833  13.6719675  36.8623390
   4.8076954  12.8231392  36.3187180   3.9992182  13.6191139  38.0037956
   3.2725368  14.4159460  37.8453751   3.1802814  12.2880669  38.0175514
   3.8401101  11.4644957  37.7446861   2.9682765  12.0523882  39.0604362
   1.9525065  12.4400558  37.0377617   1.3227845  13.2435513  37.4197884
   2.2663929  12.6847467  36.0230179   1.1227362  11.1801310  36.9078598
   1.6746264  10.0519714  37.0124283  -0.1748836  11.3014278  36.6062546
  -0.6859375  12.1649046  36.4907913  -0.6757593  10.4327202  36.4855423
   4.6243830  14.0215092  39.4285774   3.9986110  14.7080145  40.1888771
   5.8578959  13.6119795  39.6424217   6.3545384  13.0719767  38.9482727
   6.6197262  13.9802380  40.9057274   5.9105954  13.8713112  41.7263184
   7.9563146  13.1621370  40.9096184   7.6281290  12.1238775  40.8605080
   8.4259033  13.4675741  39.9745789   9.0180178  13.3686695  42.0406456
   9.3295612  14.4130745  42.0245476   8.4554319  13.1834850  43.3931656
   7.5932202  13.8332691  43.5430603   8.1096182  12.1546412  43.4931374
   9.1952047  13.3575773  44.1745262  10.2559576  12.4411411  41.7554245
  10.5998259  12.4749699  40.7216377  11.1484470  12.6406727  42.3485107
   9.9357595  11.4172468  41.9483299   7.0226297  15.4828739  40.8042221
   6.9194994  16.2056904  41.7473259   7.2616811  15.8465872  39.5887413
   7.1032844  15.1531858  38.8716583   7.5851564  17.2206745  39.2812958
   8.3185596  17.5775414  40.0043907   8.2166395  17.4629974  37.8904572
   7.5685148  17.0714931  37.1063881   8.4194851  18.5223427  37.7331696
   9.5266857  16.7541466  37.6662712   9.4906549  15.7238827  38.0203285
  10.0362759  16.5763283  36.2427826  10.9502983  15.9846859  36.2940292
   9.3599339  16.0087757  35.6036072  10.2209053  17.5887356  35.8835526
  10.4905586  17.5120792  38.5061951  10.4917707  18.5567493  38.1951294
  10.3497810  17.3819180  39.5792007  11.5337458  17.2243233  38.3755951
   6.3164530  18.0317497  39.4128838   6.2844076  19.0721283  40.1327896
   5.1969285  17.5616283  38.9414253   5.3315735  16.7322216  38.3810196
   3.9398961  18.3012333  39.0367355   4.1429486  19.3225613  38.7146187
   2.8769114  17.5553474  38.1758385   2.9966750  16.5065918  38.4476242
   1.8745738  17.9149780  38.4084167   3.1432261  17.5840626  36.7040977
   4.1716871  17.9060421  36.5407028   3.2162890  16.5314770  36.4305382
   2.0914018  18.1794167  35.8278656   1.3803494  17.5411282  35.0964775
   1.9138128  19.4560318  35.9356232   3.4562423  18.3160019  40.5135803
   2.8627920  19.3347378  40.8756638   3.8213637  17.4262466  41.3637428
   4.2577896  16.5771599  41.0340691   3.5542555  17.3339596  42.8181076
   2.5857177  17.8136482  42.9592934   3.6574187  15.8094311  43.2575150
   3.1646800  15.1554184  42.5380859   4.7012248  15.5149431  43.3663521
   2.8778524  15.6044731  44.5708694   2.7975934  14.5474443  44.8245430
   3.4809794  16.0833721  45.3422279   1.5173522  16.1603928  44.6504402
   1.5901700  17.1810265  45.0260811   0.9915327  16.1349545  43.6959953
   0.5272875  15.4189005  45.6384010   0.5209198  14.3396101  45.4861145
   1.0017419  15.4339170  46.6196060  -0.8280689  15.9414797  45.5754700
  -0.9337195  16.8893909  45.9077339  -1.1422740  15.8030958  44.6256142
  -1.4437268  15.3301210  46.0924873   4.5049853  18.1899872  43.6881485
   4.0872426  18.6139698  44.7465515   5.7839608  18.4065933  43.2979774
   6.1712265  17.8327713  42.5625534   6.6825166  19.2865677  44.0355759
   6.5973711  19.2119102  45.1196747   8.1484337  18.9605312  43.6879997
   8.3045769  18.9833965  42.6094856   9.1368732  19.8984890  44.4065437
   9.3376446  20.8138790  43.8498917   8.8439445  20.0665169  45.4429131
  10.1445169  19.4832191  44.4240036   8.5216398  17.5113964  44.1150932
   8.5610323  17.4132957  45.1999550   7.7482333  16.8267174  43.7670174
   9.7678413  16.9167557  43.3877640   9.7515297  15.8581724  43.6470757
   9.7277336  17.1154823  42.3167801  10.7056465  17.2295551  43.8468666
   6.4405785  20.7604847  43.7158661   6.1987915  21.5204391  44.7268677
   6.2240777  21.0166531  42.4355927   6.1788640  20.2261086  41.8086205
   5.7424941  22.2687149  41.8780403   6.4531174  23.0502892  42.1468582
   5.6653237  22.2107182  40.3342209   5.0052199  21.3875027  40.0609436
   4.9179482  23.4449387  39.7562103   5.4006662  24.4051418  39.9381332
   4.9195995  23.3659496  38.6690788   3.8689809  23.3331547  40.0305634
   7.0677519  21.9732475  39.7464867   7.7130127  22.8493595  39.8110237
   7.6184683  21.2065659  40.2914772   7.1000295  21.6790924  38.2656326
   6.3532767  20.9436760  37.9662514   6.8332272  22.6269760  37.7982635
   8.1053343  21.2787247  38.1346054   4.3319664  22.6766014  42.5493660
   4.1774926  23.8242626  43.0026321   3.4598849  21.7066803  42.6835594
   3.6314604  20.7984905  42.2763100   2.1220586  21.9773808  43.2724037
   1.6297450  22.7186756  42.6429482   1.4550107  20.6523819  43.3370552
   1.3291218  20.1991558  42.3537750   2.0847552  19.9759140  43.9149094
  -0.0520253  20.6855717  43.8838615  -0.5519442  19.7241535  43.7661629
  -0.1135738  20.9235744  44.9457855  -0.8731270  21.7907658  43.2195930
  -1.7432938  22.4497051  43.7720871  -0.6579924  22.0629826  42.0049896
   2.2065377  22.5198746  44.7219925   1.4416815  23.4462891  45.0258293
   2.9985793  21.9100380  45.6337967   3.5226607  21.0847092  45.3802795
   2.9923732  22.3158379  47.0279617   1.9919111  22.6735191  47.2713547
   3.2253165  20.9760609  47.7743492   2.2939830  20.4290409  47.6277580
   4.0498247  20.3660736  47.4052925   3.4510913  21.2404308  49.3004303
   3.7836683  20.2677002  49.6627693   4.3392167  21.8529034  49.4560280
   2.2542813  21.8560371  50.1061897   2.4457397  22.3557014  51.2037125
   1.0985297  21.7000217  49.6323662   4.0098567  23.4366932  47.4205399
   3.7497056  24.1610050  48.4041748   5.1773677  23.5521145  46.7786140
   5.3331952  22.8477116  46.0717659   6.2102728  24.6056423  46.9578400
   6.2139544  25.0155735  47.9678116   7.5570545  23.9349918  46.7669601
   7.5900760  23.4753895  45.7791481   8.4069042  24.6089916  46.8745689
   7.7960038  22.8937111  47.8782616   8.2333279  23.2449799  48.9427872
   7.5016656  21.6348648  47.5433083   7.8435965  20.8608742  48.0947838
   7.1935487  21.4927559  46.5920105   6.1032324  25.7937717  45.9422951
   6.9569187  26.6894531  45.9445419   5.0292997  25.7769527  45.1020164
   4.4485431  24.9506226  45.1008453   4.4837475  26.8511581  44.2311325
   3.7226200  26.4486656  43.5627098   3.7703977  27.8871994  45.1238251
   4.5276532  28.6235847  45.3928986   2.9742510  28.3619766  44.5503807
   3.0665505  27.3471241  46.3360901   3.4688246  27.3746624  47.6515732
   4.2884545  27.8204308  48.0383530   2.5282848  26.7620659  48.3838615
   2.5480599  26.4909573  49.4290962   1.5416311  26.3678150  47.5715065
   0.8157198  25.7246017  47.8533440   1.8752873  26.7031879  46.2877464
   1.2897695  26.5211735  45.3986778   5.6065078  27.4667282  43.2701607
   5.5272918  28.6910858  42.9544411   6.5288014  26.5643387  42.8818436
   6.4058065  25.6036091  43.1681480   7.7574735  26.9433289  42.0162964
   8.2193947  27.7784309  42.5429230   8.7730350  25.7893276  42.0501060
   8.3503923  24.8659420  41.6540680  10.0879679  26.0991592  41.3461037
  10.0396566  26.0265121  40.2596016  10.4376431  27.1021690  41.5906448
  10.8137503  25.3348484  41.6238899   9.0531111  25.5318851  43.3490524
   9.4343739  26.3148613  43.7530212   7.3760815  27.3235073  40.5872459
   6.7177896  26.5925751  39.8055038   7.9336905  28.4186630  40.1166267
   8.3726292  28.9843788  40.8289452   8.0688505  28.7621403  38.7536049
   7.4967456  28.0758018  38.1293144   7.4087973  30.1731644  38.5899315
   7.1058736  30.2886028  37.5492516   6.5978670  30.2471161  39.3145180
   8.3059177  31.3613052  38.9520531   8.5208530  31.3606682  40.0206528
   9.3037090  31.3997974  38.5149841   7.7340169  32.6805611  38.6034431
   7.5420141  32.7280312  37.5315399   6.7222395  32.8316650  38.9797058
   8.5288429  33.8855896  39.1395416   9.5893660  33.8525467  38.8899422
   8.0864468  34.7829514  38.7069550   8.3295774  33.9337387  40.5899467
   8.6323795  34.7773323  41.0555229   7.3428693  33.9097366  40.8042793
   8.8108654  33.2063980  41.0992966   9.5432358  28.7344913  38.2828789
  10.4646740  29.0403633  39.0611496   9.8184013  28.2784061  37.0016212
   8.8807058  27.8035126  36.0558357   8.0382166  28.4930935  36.0030022
   8.4956760  26.7996235  36.2349091   9.6435289  27.7846088  34.7697411
   9.6828680  28.7419262  34.2500305   9.2793369  27.0105534  34.0942383
  11.0585165  27.3626308  35.1744957  11.7337685  27.6807652  34.3801880
  11.1066294  26.2747707  35.2229271  11.2423697  28.0757217  36.5419693
  11.6769085  27.3090134  37.1833992  12.1175327  29.3403625  36.6046257
  13.3460045  29.1843891  36.5190887  11.4867792  30.4993305  36.5781479
  10.4820557  30.5845737  36.6361504  12.2438507  31.7269669  36.6151161
  13.0010653  31.6948204  35.8317299  11.3016796  32.8849945  36.4265900
  10.5935421  32.9442596  37.2531052  11.9635725  33.7510147  36.4285622
  10.6842928  32.8540916  35.0169373  10.3471422  33.8607635  34.7698631
  11.4753437  32.5512962  34.3308983   9.3277588  32.0403976  34.9011536
   9.0838747  31.1904659  35.8063850   8.5291166  32.3030205  33.9561501
  13.0129309  31.9310608  37.9475403  14.0759115  32.5577393  37.9695244
  12.5592775  31.3600483  39.0372658  11.7328930  30.7851295  38.9556732
  13.2497816  31.3370056  40.2844696  13.8490019  32.2411194  40.3922348
  12.1896133  31.2098961  41.3852577  11.6037788  30.3319874  41.1129074
  12.6473627  30.9998112  42.3519173  11.2895842  32.4546280  41.6116562
  10.0672379  32.3292732  41.9023247  11.8413868  33.5169983  41.3993530
  14.2597618  30.1539230  40.3554764  15.0967617  30.1324635  41.3317451
  14.1546841  29.1452751  39.4343910  13.7454491  29.4011097  38.5471611
  14.9463816  27.8750019  39.5938950  14.9965782  27.7013397  40.6688042
  14.2490549  26.6376915  39.0099869  14.0923672  26.7557201  37.9377823
  15.1358337  25.4695568  39.3510704  15.1698656  25.4093018  40.4388695
  14.7845907  24.5105896  38.9701385  16.1578655  25.6547737  39.0205460
  12.9327297  26.4607334  39.7238083  13.0280676  26.4543552  40.8096085
  12.1808500  27.2035961  39.4574776  12.4911022  25.4815178  39.5388680
  16.3631821  28.1307259  38.9831200  16.5703354  28.5280838  37.8129959
  17.3387718  27.8877602  39.8228416  17.0914001  27.7113838  40.7860641
  18.7122440  27.7858734  39.5161934  18.9995785  28.6900826  38.9795876
  19.6329384  27.8641853  40.8087273  19.3921471  27.0626602  41.5070648
  21.1740131  27.7878990  40.6338234  21.7861404  28.0045738  41.5093002
  21.5499477  26.8527985  40.2186584  21.3991966  28.6150723  39.9606400
  19.2822456  29.1307430  41.6426163  19.5234127  30.1022720  41.2112617
  18.2457924  29.2331619  41.9641342  19.8710041  29.1208172  42.5598755
  19.1256237  26.6062775  38.6870308  19.5760002  26.7282429  37.5108833
  18.9784184  25.3742676  39.2093163  18.5593109  25.3663425  40.1282234
  19.3058243  24.1269131  38.4933853  19.1097736  24.3089714  37.4367294
  20.7926464  23.7163696  38.7909508  21.0594349  22.8446007  38.1935043
  21.3980408  24.5593071  38.4576874  21.0573826  23.4230537  40.3462410
  20.6256695  24.1060772  41.0778160  20.4731750  22.5216961  40.5315971
  22.4686699  23.1042099  40.7233696  23.3564224  23.6907806  40.1107407
  22.7155151  22.2660255  41.7345810  23.6873760  21.9930000  41.7669868
  21.9027500  21.8239574  42.1396599  18.2909355  23.0180016  38.8951492
  17.4844093  23.1895981  39.7905769  18.2597275  21.9319801  38.1198044
  18.8511810  21.9238720  37.3011360  17.8137341  20.6476879  38.7413330
  17.8423481  20.7192440  39.8286057  16.3051491  20.3287888  38.3573074
  15.7586393  21.2575970  38.5208359  16.2334480  19.9717331  37.3299446
  15.6794672  19.1776638  39.1478386  16.4897938  18.4515152  39.0831909
  15.5838318  19.3605766  40.2181168  14.2051277  18.3487434  38.4582520
  13.2575626  19.7887859  37.9554710  12.4646626  19.4658470  37.2808456
  12.9357214  20.3252487  38.8480644  13.8547363  20.4005566  37.2792892
  18.8141232  19.4731026  38.5364799  19.0697403  19.1657562  37.3892174
  19.2403965  18.8351440  39.6476860  19.0471096  19.1716366  40.5801620
  19.8957920  17.5852699  39.5960617  20.3081245  17.3339405  38.6188622
  21.0064602  17.5170059  40.5960464  20.6364326  18.0310211  41.4831581
  21.2779980  16.4736271  40.7564697  22.3314629  18.1734657  40.0196571
  22.8342285  17.4191914  39.4143486  22.2196732  19.5050735  39.2101974
  21.7577972  20.3121109  39.7789345  23.2105503  19.8971157  38.9809265
  21.6985531  19.2611637  38.2844353  23.1702480  18.5062580  41.1749992
  23.4851418  17.5346489  41.5556870  24.1116371  18.9168320  40.8098755
  22.7745743  19.1085472  41.9927979  18.9216175  16.4138985  39.7790871
  17.9363213  16.4744110  40.5164604  19.0478115  15.4384813  38.8994904
  19.9085827  15.5094032  38.3759041  18.2079563  14.2206593  38.7487946
  17.5831585  14.1904783  39.6414375  17.3845882  14.2809963  37.4482117
  18.0499134  14.2710857  36.5848770  16.8079472  13.3655272  37.3159256
  16.3542652  15.3984184  37.3047142  16.4030685  15.9437656  38.2472191
  16.7419796  16.4678497  36.3354683  16.1037407  17.3468971  36.4250717
  17.7504959  16.8485222  36.4969749  16.7898216  16.0577488  35.3266907
  14.9902258  14.9108982  36.7712555  14.6874466  14.0567493  37.3769417
  14.3173723  15.7605705  36.8871193  15.0720282  14.5770187  35.7368774
  19.0340290  12.9463043  38.7623520  20.1606579  12.8792410  38.2380905
  18.4639454  11.9019156  39.3946686  17.5905037  12.0832272  39.8682976
  19.0363750  10.6013947  39.6364136  19.9830475  10.4888277  39.1079826
  19.2154617  10.4919910  41.2012711  19.8365955  11.3352642  41.5032349
  18.2503681  10.5728979  41.7014198  19.7798309   9.2526064  41.6057930
  19.0689793   8.6121387  41.6838455  18.2267361   9.4004202  39.1780930
  16.9648247   9.5568743  39.1348267  18.9144688   8.3107786  38.7700882
  19.9216900   8.2804232  38.7016640  18.2696857   7.0127792  38.3807907
  17.3832493   6.8872366  39.0025368  17.8675404   7.0594649  36.9369965
  18.7780209   7.0910459  36.3385620  17.1962204   6.2282748  36.7212334
  17.3638611   7.9988551  36.7090683  19.0988712   5.7404160  38.8159943
  20.3173790   5.7089787  38.7274666  18.3865318   4.6780143  39.3161964
  17.3949509   4.8102498  39.4554214  19.1400642   3.5451171  39.8536949
  20.0191593   3.7964320  40.4471054  18.1116676   2.7077131  40.6393089
  18.5732708   1.7408613  40.8398628  17.9679890   3.2126949  42.0343704
  18.9283562   3.1220229  42.5418777  17.6412907   4.2525792  42.0383415
  17.1889629   2.6236629  42.5183754  16.8668499   2.6241171  39.9674339
  17.0706100   1.8978208  39.3736534  19.7686634   2.7506149  38.6595078
  19.3750877   2.8724802  37.4806137  20.8038101   1.7911386  38.8967819
  21.3506985   1.5079906  40.2492867  20.9103413   0.5662292  40.5768127
  21.3569832   2.3297803  40.9653320  22.7957134   1.2700503  39.9819756
  23.2712250   0.6488403  40.7409821  23.3267155   2.2217968  39.9639664
  22.7980042   0.5220197  38.6269341  22.5632038  -0.5329002  38.7687569
  23.7350731   0.5321386  38.0702477  21.6704521   1.2335559  37.7918015
  22.1578770   2.0786338  37.3056335  21.0515079   0.1832587  36.8083801
  21.7330475  -0.4763547  35.9566956  19.7777920  -0.0696435  37.0999794
  19.4178600   0.3788123  37.9303017  18.8635960  -0.9360011  36.3580017
  19.4781780  -1.6415882  35.7989502  17.8535137  -1.6464604  37.3762283
  17.0574875  -2.0447814  36.7471161  18.3947830  -2.5478785  37.6635857
  17.3473339  -0.7671383  38.5413628  17.4419193   0.4510377  38.5652237
  16.5953159  -1.3310488  39.3245125  17.9643497  -0.1401274  35.3238297
  17.2887154  -0.7598409  34.5061531  17.9150658   1.1702360  35.3568001
  18.2899494   1.5910246  36.1949539  17.1436157   1.9908350  34.4489746
  16.4360504   1.2899649  34.0059814  16.5048485   3.2217753  35.1862869
  17.3059387   3.6198411  35.8091011  16.1534710   4.0020556  34.5111618
  15.5244598   2.7408476  36.1969490  16.0507774   2.3016508  37.0444145
  14.9113894   4.1084709  36.7321968  15.6174479   4.6122069  37.3923721
  14.4973955   4.7514720  35.9554977  14.0198870   3.8656540  37.3104477
  14.4654112   1.7461020  35.7117462  14.0279074   2.1484952  34.7980881
  14.9562616   0.8447254  35.3447495  13.7917719   1.4466449  36.5146446
  18.0538845   2.5462580  33.3198929  19.0989990   3.1201713  33.6392174
  17.7984543   2.1559951  32.0989952  16.8699036   1.7590927  32.0799446
  18.5967331   2.6781726  30.9058342  19.2011852   3.5620503  31.1095428
  19.5403214   1.5314609  30.3856335  18.9194660   0.7355100  29.9744129
  20.1151009   1.9574687  29.5632915  20.5231590   0.9870436  31.4744778
  21.3506317   1.6781474  32.3038521  21.3844814   2.6874361  32.3208961
  21.9608192   0.8280941  33.1202087  22.2985535   1.2064949  34.0737000
  21.4864788  -0.4154174  32.8878784  21.6829300  -1.2189423  33.4674110
  20.6116714  -0.3413088  31.8525639  20.0871582  -1.1849209  31.4287643
  17.6884041   3.1259861  29.7224426  18.2494144   3.6935477  28.7946625
  16.4242992   2.7352951  29.5877838  16.0596676   2.0607328  30.2451324
  15.4801598   3.3230159  28.6017456  15.7049103   2.8684938  27.6368637
  14.1150761   2.8589425  29.1528473  13.4734793   3.1627934  28.3257217
  14.0904312   1.7692407  29.1462059  13.8015633   3.3916914  30.0506153
  15.5836716   4.8135786  28.3977814  15.5914536   5.2144918  27.2685661
  15.7663202   5.6536412  29.4068356  15.7518024   5.1907735  30.3044109
  15.6119347   7.1373391  29.2687988  16.1812687   7.5178766  28.4207726
  14.1436863   7.5314937  29.0054207  13.7414474   7.0073023  28.1385136
  13.3411264   7.0084076  30.1332245  13.5648079   7.5138302  31.0727024
  12.3173857   7.3413501  29.9623318  13.3650713   5.9204822  30.1959991
  13.9339800   9.0181265  28.6399517  12.9720583   9.1868296  28.1558571
  13.9848614   9.6780329  29.5059986  14.5678396   9.4709578  27.8775425
  16.2087879   7.9819646  30.4245892  16.2543449   7.6314888  31.6207714
  16.6805248   9.1726313  30.0566578  16.6919041   9.3739042  29.0669823
  17.1263752  10.2232199  30.9635677  17.7811794   9.6964588  31.6577301
  17.9374599  11.2935658  30.2232361  17.2738018  11.8313055  29.5461140
  18.2104225  12.0647278  30.9435844  19.2827377  10.8714695  29.6375351
  20.2291145  10.3748665  30.5761795  19.9050446  10.3809500  31.6063938
  21.5221901  10.0575647  30.1154366  22.2499924   9.6797218  30.8182449
  21.9568253  10.3092432  28.8548641  22.9372482   9.9590569  28.5675659
  21.0674286  10.8090086  27.8838463  21.4371967  10.8747282  26.8712482
  19.7246895  11.0718508  28.3283272  19.0101967  11.2895393  27.5482559
  15.9247665  10.8703651  31.7150249  15.1231689  11.5278969  30.9313507
  15.8870773  10.9780416  33.0402794  16.7727814  10.3411598  33.9928665
  17.8186684  10.6058664  33.8374557  16.6313515   9.2636490  33.9087906
  16.2948132  10.7524033  35.4229927  16.8362064  11.6540165  35.7095070
  16.5830879  10.0147562  36.1719093  14.8132305  11.0190468  35.1203423
  14.3190851  11.6879501  35.8249626  14.3524008  10.0464268  35.2928162
  14.7337265  11.4330339  33.6751556  13.8896523  10.8855114  33.2557907
  14.4746990  12.9296112  33.4806137  13.3376265  13.3225346  33.5021400
  15.5175982  13.6711674  33.1220360  16.4343166  13.2472277  33.1238289
  15.4621592  14.9422312  32.5585251  15.2576256  15.5504150  33.4396477
  16.9255238  15.2538166  32.1451912  17.6064548  15.0827589  32.9789619
  17.1280136  14.5340586  31.3520660  17.1083050  16.2418079  31.7226257
  14.4257765  15.2426176  31.4782772  13.9935942  16.4023628  31.3596630
  14.1533995  14.2365379  30.5850277  14.5088015  13.2925482  30.6367245
  13.3030262  14.5380630  29.4121666  13.6303616  15.4176645  28.8578529
  13.3934212  13.3134527  28.4461765  14.4303598  12.9780970  28.4263306
  12.9196310  12.4636106  28.9374924  12.8108492  13.3877325  27.0368595
  11.7278938  13.3137836  27.1360455  13.0879564  14.3625832  26.6356239
  13.3762846  12.2625799  26.1664181  14.4185772  12.3844585  25.8716755
  13.1976233  11.3360176  26.7120018  12.8024426  12.0724802  24.7619133
  12.9119091  13.0166273  24.2283382  13.4309721  11.3127279  24.2973404
  11.4134140  11.5879040  24.6291981  11.3122826  11.4655943  23.6317463
  11.3210812  10.6916676  25.0856438  10.7096834  12.2502308  24.9227734
  11.8360415  14.9033146  29.7820969  11.1629095  15.6197052  29.0283108
  11.3648701  14.4292727  30.9484653  11.8335915  13.7621241  31.5445461
  10.2004871  15.0622807  31.6556034   9.4142771  15.0337238  30.9011765
   9.9438133  14.1450787  32.8567162  10.7225533  14.4118443  33.5712090
   8.9774380  14.2921724  33.3389854   9.8077192  13.0949697  32.5981750
  10.1750956  16.4796715  32.1357498   9.2025547  17.1725445  31.9780025
  11.3087111  16.9446468  32.7148514  12.0548630  16.2649841  32.7524872
  11.5320015  18.3770161  32.9709969  10.8217087  18.6729031  33.7430344
  12.9387102  18.6180134  33.5337410  13.6833544  18.3810978  32.7738228
  13.2202177  20.0070248  34.1607018  12.8994570  20.8403969  33.5356293
  12.5764160  20.0729980  35.0377808  14.2543650  20.1940556  34.4499397
  13.3162937  17.6508064  34.6001740  14.1452885  18.0019855  35.2146111
  12.4362030  17.5622330  35.2371178  13.6570253  16.7279358  34.1308022
  11.2776031  19.2727566  31.7588921  10.8999100  20.4125042  31.8857479
  11.4588442  18.7212143  30.5173073  11.7036285  17.7413330  30.5126305
  11.1301346  19.4168015  29.2481232  11.3983383  20.4443626  29.4936714
  11.9976921  18.9687672  28.0887833  11.5586910  17.9997330  27.8513947
  11.8652267  19.6556911  27.2529011  13.4922161  18.8225040  28.3629417
  13.9343262  19.7120132  28.8117352  13.6160736  18.0883045  29.1590004
  14.1647148  18.4349079  27.0697727  13.8696527  17.4800301  26.6347446
  14.0402613  19.2317200  26.3364925  15.6245451  18.4686317  27.1429234
  16.1657448  18.7018700  27.9631691  16.4628487  18.3375111  26.1821346
  16.0268402  18.2913551  24.9228992  15.0454149  18.4605637  24.7547436
  16.6925812  18.0567513  24.2005062  17.8003254  18.3686371  26.2851868
  18.3778896  18.0475864  25.5213509  18.2569637  18.4688663  27.1804752
   9.6607571  19.4064941  28.8294678   9.2425632  20.3332977  28.1737080
   8.8742886  18.5213375  29.4448452   9.1971188  17.8883553  30.1626301
   7.4063067  18.4371281  29.2990627   7.0986257  18.7678738  28.3070755
   6.8398213  17.0144577  29.5466022   6.9069195  16.6323662  30.5652313
   5.7665186  17.1427402  29.4063530   7.1664572  15.7147627  28.7226257
   8.1625338  15.3677444  28.9974174   6.4728489  14.9135313  28.9776497
   7.0678477  15.9873743  27.2398453   7.7726941  17.0060329  26.7808247
   6.3586383  15.2680693  26.5344467   6.5727668  19.5451469  30.0478821
   5.3632469  19.5654697  30.0019302   7.2483988  20.4665146  30.7840004
   8.2475634  20.3508358  30.8755856   6.6759524  21.5220146  31.6868668
   5.6499643  21.2537746  31.9388561   7.3378744  21.4035473  33.1002464
   8.3788786  21.6944733  32.9596291   6.9546514  22.1749859  33.7681694
   7.1608114  20.0110416  33.7417450   7.2365918  19.2004013  33.0170250
   8.1190796  19.9064198  34.9863472   8.1400042  20.7382755  35.6903915
   7.8083830  18.9545555  35.4170723   9.0811043  19.9018822  34.4739151
   5.7150722  19.8182583  34.3396416   5.4865017  20.5458622  35.1183929
   4.8927007  19.6688824  33.6400032   5.7651658  18.8957100  34.9179955
   6.8851237  22.8434982  31.0417080   7.9800334  23.0267773  30.5336094
   5.9076552  23.7516155  31.0659409   5.0561123  23.5399418  31.5661087
   5.9773588  25.1069221  30.4534950   6.3371353  24.8404617  29.4596844
   4.6587124  25.8733082  30.3508720   3.9717324  25.1835289  29.8606033
   4.1485820  26.0894165  31.2895756   4.8507695  27.1313572  29.5940685
   4.8819580  26.8609867  28.6734562   7.0905600  25.9169579  31.0941944
   7.1734958  26.1846390  32.3057823   7.9982357  26.3706093  30.2455997
   8.0621119  26.1228142  29.2685528   9.1167440  27.2599583  30.6555653
   9.4636526  27.9403744  29.8778839   8.6780729  27.8307648  31.4740086
  10.2913351  26.4817295  31.2183056  11.4134703  26.9709339  31.3569088
  10.1174192  25.2513275  31.6711445   9.2174625  24.8204746  31.5144806
  11.1502228  24.4749641  32.3634109  11.5284643  25.0668736  33.1968842
  10.5983925  23.2290421  32.9924698   9.9885950  22.6604176  32.2903938
  11.4709196  22.6168079  33.2204285   9.8479500  23.4210930  34.2651634
   8.6460838  23.9802113  34.4021378   7.9490895  24.2360535  33.6178246
   8.3870668  24.1618710  35.7333755   7.5350208  24.5226536  36.1382866
   9.3866129  23.7005348  36.5199928   9.6003790  23.7191963  37.8969727
   8.8702173  24.1624107  38.5579109  10.7960691  23.1542969  38.4397125
  10.9252157  22.9941006  39.4999275  11.8511429  22.8469219  37.5466270
  12.7631359  22.4335632  37.9513550  11.5854473  22.7648773  36.1320000
  12.3133812  22.3809757  35.4326210  10.3470020  23.1844921  35.6242714
  12.4608078  24.1690292  31.6082096  13.4525604  23.7420750  32.2010651
  12.4564257  24.3319530  30.2744923  11.5397463  24.3726635  29.8524246
  13.4982071  23.8394527  29.3949699  13.7671051  22.8486767  29.7612438
  12.9953241  23.7823620  27.9610233  13.7656288  23.3313274  27.3354836
  12.0560331  23.2335567  27.8928719  12.5828981  25.2017746  27.4069958
  11.7030296  25.4370003  28.0058270  13.4068203  25.9027920  27.5405140
  12.1425257  25.2959499  25.9170704  11.6219435  24.2777500  25.4124527
  12.5357904  26.2299042  25.0806179  12.7619362  27.1552658  25.4162712
  12.2503805  26.1498203  24.1150970  14.7344351  24.6758213  29.5071468
  15.8230543  24.0697498  29.3907185  14.5783453  25.9242496  29.8614044
  13.6252575  26.2368412  29.9797668  15.8352880  26.7140312  30.0580997
  16.5312576  26.5825634  29.2295818  15.4294138  28.2430019  29.9433289
  14.7807665  28.5657463  30.7576942  16.3330097  28.8473606  30.0231209
  14.7695541  28.5233250  28.5888023  15.4754200  28.8129253  27.4044895
  16.5535107  28.8686447  27.4365044  14.7635012  29.1079865  26.2084579
  15.3931532  29.2805309  25.3481274  13.3836880  28.9790230  26.1590500
  12.7620115  29.0710201  24.9732609  13.0500698  29.8267231  24.4560223
  12.6753922  28.5213203  27.2776756  11.6003981  28.4235077  27.2427387
  13.3387403  28.3694229  28.5378780  12.7494860  28.0917892  29.3993282
  16.5328426  26.4982052  31.4051247  17.6918507  26.8689041  31.5923901
  15.8026037  25.9110203  32.3595772  14.9035511  25.5052032  32.1425133
  16.4810429  25.5720329  33.6238518  16.9142761  26.5014973  33.9933167
  15.4540091  25.1045113  34.7346840  15.1144400  24.0902290  34.5248718
  16.1608849  24.9997387  36.0721397  15.3634415  24.8429565  36.7985039
  16.8143978  24.1274490  36.0607948  16.7661419  25.8839645  36.2719116
  14.1402178  25.9701481  34.7513275  13.5928020  26.0706825  33.8141403
  13.4894438  25.5993309  35.5432167  14.4574194  26.9531574  35.0994453
  17.5333347  24.4558125  33.4019241  17.2155228  23.3461075  33.0473404
  18.8118591  24.7202969  33.7545090  19.3948421  25.9797268  34.3617477
  19.5549355  25.8614559  35.4334221  18.7409935  26.8278713  34.1586914
  20.7199078  26.0322227  33.6151695  21.5361595  26.5070477  34.1595764
  20.4955597  26.5306664  32.6721306  21.1898746  24.5884056  33.5352287
  21.7364941  24.3495693  34.4475174  21.8782806  24.4492016  32.7016716
  19.8546276  23.7555923  33.4286385  19.7076550  23.3665047  32.4211121
  19.8356190  22.5559196  34.4069862  19.7174664  22.7665501  35.6166687
  20.0043354  21.3604641  33.8369026  20.3863640  21.2410316  32.9095955
  19.9864082  20.1322250  34.6555939  20.0054417  20.5164738  35.6754456
  18.5948391  19.3480892  34.4033928  18.5917854  18.4454956  35.0144691
  17.4515305  20.2894039  34.9004593  17.0313950  20.9525852  34.1443062
  16.6214161  19.6170826  35.1172409  17.7337627  20.8583012  35.7863503
  18.2847290  18.9114037  32.9937477  18.4229889  19.7916794  32.3659744
  18.9497852  18.0926456  32.7190895  17.2618275  18.5432796  32.9146385
  21.1323090  19.1544380  34.3286819  21.9236965  19.2574177  33.3664131
  21.2765713  18.1825027  35.2309532  20.5708656  18.0326614  35.9377975
  22.1695919  17.0230694  34.9935188  22.0625935  16.8790379  33.9183884
  23.6251335  17.2572136  35.4484634  24.0449982  18.1057186  34.9082260
  23.9602737  17.4208031  36.9023094  23.3671265  18.2860203  37.1984215
  23.7428379  16.5186882  37.4741592  25.0129509  17.6819324  37.0108528
  24.4114609  16.1296844  35.0689316  24.1361561  15.4103823  35.6420021
  21.6165447  15.7378016  35.5580521  21.1526451  15.7794104  36.7196503
  21.6065426  14.6015081  34.8011627  21.9708347  14.5960560  33.8591614
  21.3859310  13.2398672  35.3486481  20.5426369  13.3380814  36.0322456
  20.8891525  12.2063189  34.3205948  21.5991116  11.9322348  33.5402527
  20.6041565  11.3501711  34.9320679  19.3669872  12.8084707  33.5945702
  19.7850876  13.8830729  32.9197998  22.6345043  12.6438503  36.0376167
  23.7456341  12.9227695  35.5493126  22.5106735  11.7693958  37.0122795
  21.6022091  11.7356396  37.4523392  23.5919724  11.0550871  37.6796417
  24.4516277  10.8922377  37.0295830  24.1513443  11.8642063  38.8353729
  24.6846542  11.1227760  39.4303169  24.8297958  12.6646852  38.5403519
  23.1229134  12.5903597  39.7869453  22.1326828  12.1502733  39.6691704
  23.4258766  12.3855362  40.8137665  23.1510124  14.4312983  39.4890442
  24.6801319  14.7739029  40.3400383  25.5502834  14.2438173  39.9527969
  24.8510952  15.8418646  40.2046509  24.5948296  14.5130405  41.3949165
  23.0836353   9.7231913  38.1603966  21.8682270   9.4769001  38.3813972
  23.9114056   8.6601152  38.2016487  24.8914814   8.8826504  38.1015053
  23.5389862   7.3329968  38.6554337  22.5846806   7.1576481  38.1587906
  24.5135136   6.3213425  38.0785294  24.4424610   6.3877974  36.9928780
  25.5226021   6.4817767  38.4581375  24.2491722   4.8332748  38.4420624
  24.4138966   4.6693869  39.5070076  23.2105503   4.5886436  38.2195320
  25.1371517   3.9190934  37.6457443  25.2011471   4.0750623  36.4220581
  25.7886143   2.9367545  38.2496262  26.2014942   2.2102218  37.6823654
  25.6612720   2.9175694  39.2513809  23.3640633   7.3676014  40.1774826
  24.0550728   8.0654650  40.9260292  22.4584560   6.5741639  40.7157440
  21.8757000   6.0874209  40.0497208  22.3687687   6.2688942  42.1667519
  22.3566933   7.2241592  42.6915627  21.0285416   5.5459561  42.4451294
  20.2217140   5.9865999  41.8595009  21.0840340   4.5038295  42.1304855
  20.5053387   5.3961225  43.8788338  19.8265533   4.5445428  43.9253578
  21.2952938   5.2836590  44.6214104  19.6146927   6.4665899  44.3404388
  19.9497871   7.3160615  45.2608376  18.4643764   6.5591850  43.8198624
  23.7255707   5.6909251  42.7164650  24.5139599   5.0639954  41.9947815
  23.8913517   5.7038288  44.0697098  23.1780663   6.1876321  44.5962639
  24.7690315   4.8233533  44.8986740  25.7087326   4.8227773  44.3463402
  25.0550404   5.4363036  46.2776642  25.4304943   6.4421940  46.0897331
  24.1487160   5.5077229  46.8789787  26.1899204   4.7172928  46.9632988
  25.8947334   3.6722980  46.8686905  27.0999165   5.0125599  46.4409714
  26.2452374   5.0741053  48.7500343  27.3683968   3.7532234  49.3079338
  26.8421040   2.8352733  49.0462379  28.3910713   3.8692172  48.9490700
  27.4038315   3.6944277  50.3957710  24.2347183   3.3922575  44.9666939
  23.0944958   3.1651006  45.3349075  25.1248608   2.4395158  44.7756805
  26.0420456   2.6166468  44.3916283  24.7032089   1.0159515  44.9889641
  23.6511879   0.8758938  44.7405014  25.4837914   0.1472603  43.9544601
  25.3998661   0.6007143  42.9668198  26.5282669   0.0648836  44.2550964
  24.9315090  -1.3001865  43.8283005  23.7197723  -1.5330485  44.1226387
  25.7089081  -2.1946471  43.4206772  24.8621540   0.6321210  46.4637566
  25.9625721   0.2588446  46.8960075  23.8072815   0.6977548  47.2507858
  22.9734821   1.1584206  46.9151268  23.6985817   0.1500963  48.6165504
  24.6533337  -0.0960070  49.0812874  23.1549015   1.2166027  49.5017471
  22.3645458   1.7274935  48.9518013  22.5756779   0.6299646  50.8091354
  23.3886375   0.1120377  51.3180084  22.1514244   1.4761391  51.3495979
  21.8252602  -0.1200981  50.5593796  24.2380562   2.1568429  50.0422020
  24.5941982   2.7782593  49.2205544  24.0188980   2.7547081  50.9268646
  25.1341801   1.6970387  50.4588966  22.7549648  -1.1191168  48.5300102
  21.7268696  -1.0330404  47.8734665  23.1269379  -2.2218482  49.1825867
  23.9982548  -2.3377805  49.6800499  22.3846016  -3.5047607  48.9342384
  22.3886280  -3.5913129  47.8476868  22.9424591  -4.7254157  49.6838875
  22.9792080  -4.4924068  50.7480583  22.2153702  -6.0909886  49.5407677
  22.1919746  -6.5338759  48.5450783  22.8098145  -6.7937875  50.1245575
  21.1785603  -5.9992142  49.8643456  24.2738323  -5.0398960  49.3353043
  24.7744045  -4.8569207  50.1337700  20.9188080  -3.4096987  49.2196274
  20.1742802  -3.8962111  48.3660545  20.4332600  -2.7090912  50.2614784
  21.0765877  -2.5669849  51.0270081  19.0749340  -2.4267492  50.6123886
  18.4253712  -3.1976657  50.1978340  18.9992981  -2.4724360  51.6988029
  18.5912952  -1.0419106  50.2207642  17.5593452  -0.6138377  50.7324181
  19.2209702  -0.4179098  49.2456398  19.9725666  -0.9511573  48.8322983
  18.7284012   0.8416839  48.5764465  18.2768497   1.5305028  49.2904015
  19.5796261   1.3484409  48.1217842  17.6442814   0.4038706  47.5159187
  17.7692394  -0.6342600  46.8912659  16.5235786   1.1424607  47.4012871
  16.4625759   2.0114002  47.9124870  15.4261703   0.9139963  46.4556007
  14.9516382   0.0048107  46.8247910  14.5198240   2.1398952  46.7588844
  14.6957407   2.4511805  47.7885742  14.7870970   2.9666724  46.1007767
  13.0505247   1.8037205  46.4998169  12.9216061   1.4878874  45.4645729
  12.5717268   0.7752391  47.5687943  12.8881445  -0.2617404  47.4562836
  13.0573044   1.0816466  48.4953079  11.4903183   0.6978053  47.6813049
  12.2264700   3.0734894  46.6854401  11.1934099   2.7275500  46.6505814
  12.3077374   3.5073354  47.6820717  12.5315189   3.8117611  45.9438133
  15.9019318   0.7101868  44.9936295  16.6261101   1.5286543  44.4616890
  15.2982731  -0.2641720  44.3111000  14.5504923  -0.7712814  44.7625008
  15.4716187  -0.6516116  42.9215508  16.4470329  -0.4005817  42.5048370
  15.2804232  -2.2213781  42.8701668  14.4854956  -2.5106521  43.5575600
  14.9675522  -2.5718014  41.8865929  16.6363621  -2.9889834  43.1314812
  17.3596554  -2.6799064  42.3768845  16.9696655  -2.5377865  44.0660591
  16.5745430  -4.5201430  43.2736588  15.5854082  -4.7241898  43.6836319
  16.7385197  -4.8736033  42.2556839  17.6382580  -5.2510490  44.1279449
  18.5757694  -4.7353182  43.9201088  17.5236683  -4.9047952  45.1551132
  17.6796722  -6.6843214  43.8889351  18.1442471  -6.7834997  42.9976234
  18.3343945  -7.2115297  44.4488411  16.7870235  -7.1430693  44.0021935
  14.3964186   0.0261282  42.0567970  13.3005619   0.3088267  42.4737091
  14.7675667   0.2553726  40.8458023  15.7056999  -0.0601466  40.6446762
  13.9899378   1.1236618  39.8806610  14.5612764   1.2577626  38.9621353
  12.7902479   0.2899671  39.3823395  12.0029678   0.0715830  40.1038666
  12.1859951   0.8370604  38.6586876  13.3395996  -0.9214627  38.5934296
  14.0469112  -0.6416225  37.8127251  13.9411278  -1.5384665  39.2609406
  12.1731672  -1.7391491  38.0213814  11.5828209  -2.0204525  38.8934250
  11.5810785  -1.1738790  37.3016586  12.6303682  -3.0891023  37.3014336
  11.7023802  -3.4588375  36.8652763  13.3701992  -2.8083515  36.5518150
  13.0581493  -4.0173316  38.2995605  13.2669439  -4.9418564  37.9506226
  13.9255161  -3.7384543  38.7354584  12.4989519  -4.1110868  39.1353912
  13.5966024   2.5049508  40.4498024  12.5073452   2.9707127  40.1107826
  14.4368372   3.1255724  41.3130188  15.2721348   2.6269898  41.5846825
  14.0334425   4.4231653  41.9303780  12.9455185   4.4711752  41.8832970
  14.5179653   4.5479555  43.4043617  14.1417322   3.7726872  44.0718193
  15.6049232   4.5918140  43.4729118  13.9325342   6.1298103  44.0737610
  12.7145138   5.8600135  43.5956993  14.5260324   5.5988889  41.0154037
  15.5725088   5.5009537  40.3370094  13.7463093   6.7101550  40.9068184
  12.8585148   6.6912274  41.3880272  14.0522051   7.9923172  40.2527313
  15.0789070   8.0347929  39.8891678  13.1226606   8.2041836  39.0686760
  12.1043167   8.2812185  39.4496498  13.4344301   9.6016741  38.3863106
  12.6730661   9.7957697  37.6308289  13.4614067  10.4725819  39.0412102
  14.4280138   9.6215105  37.9385376  13.2323246   7.1404328  38.0006332
  13.3208036   7.5648155  37.0005493  14.1830902   6.6202521  38.1170692
  12.0783958   6.2027330  38.1413383  12.1428366   5.8524499  39.1715088
  11.1521959   6.7702518  38.0509109  12.0303526   5.3748221  37.4339752
  13.8509436   9.0777855  41.2709351  12.8621101   9.0579376  42.0212326
  14.8072443   9.9937439  41.3649254  15.6209440   9.9596071  40.7675781
  14.7725897  11.1424236  42.2929115  13.7580013  11.4020538  42.5950813
  15.6754551  10.9474745  43.6235161  16.6976604  11.2651043  43.4178162
  15.2761106  11.5592728  44.4324226  15.7649479   9.4657726  44.1737137
  14.7782335   9.0094023  44.2526474  16.3425846   8.8709249  43.4661865
  16.5302467   9.3648958  45.4999847  17.3409157  10.0935354  45.5015793
  15.7898254   9.7063389  46.2233772  17.0278835   7.9461889  45.6772346
  17.5222816   7.5460134  44.8926773  16.8285637   7.1656499  46.7530060
  16.5246353   7.5754066  47.9293213  16.3065586   6.8900776  48.6384544
  16.3033123   8.5482798  48.0863037  17.0975285   5.8677554  46.5995255
  17.0727749   5.2567930  47.4034004  17.1683788   5.4359584  45.6892319
  15.2203655  12.5058155  41.7175865  15.9373379  12.5083799  40.7267456
  14.9629631  13.5532761  42.4817314  14.3675032  13.4320965  43.2884789
  15.2284155  14.9611778  42.0381851  16.1045570  14.9029446  41.3923683
  13.9866686  15.5679264  41.3709183  14.3702803  16.5609779  41.1368332
  13.5255089  14.7951536  40.1682549  13.0762501  13.8517113  40.4783897
  12.8662500  15.4720554  39.6248589  14.4511557  14.5245848  39.6602516
  12.8095150  15.7866898  42.3774643  13.0945091  16.3782082  43.2475128
  11.9203777  16.1174507  41.8406868  12.5798302  14.8168650  42.8188171
  15.6957150  15.8771639  43.1813393  15.4071674  15.6980524  44.3282509
  16.4690361  16.9092140  42.8352623  16.6701870  16.9430199  41.8460732
  17.0260773  17.9727459  43.6365929  16.4900436  18.1187458  44.5743866
  18.4620247  17.4980431  43.9473534  18.2613049  16.6629276  44.6184654
  18.9755707  17.0930347  43.0753784  19.4595051  18.4021130  44.7017441
  20.4640884  17.9811707  44.6602554  19.6013794  19.3418083  44.1679420
  19.0390854  18.6732864  46.4260712  18.0398121  20.1797295  46.3247833
  17.0248318  19.8446980  46.1110725  18.0010834  20.6420879  47.3111000
  18.4569683  20.9541245  45.6810493  16.9908905  19.3372993  42.8969879
  17.8533154  19.6323757  42.1311951  15.9513531  20.1255379  43.2662125
  15.3644724  19.7487907  43.9967842  15.7532806  21.5174637  42.7636795
  16.2838326  21.4821987  41.8121719  14.2551956  21.8063164  42.6101265
  13.8588629  22.0376301  43.5988197  14.2472467  22.7143364  42.0071869
  13.4461308  20.6508579  41.9174690  13.6854477  20.3960075  40.8850555
  13.6663446  19.6666622  42.3309555  11.6806650  20.9737053  41.9727097
  11.0903721  19.3737736  41.3284416  11.3130016  18.5920506  42.0546913
  10.0362120  19.3332462  41.0542030  11.5024948  19.1287689  40.3495483
  16.3742275  22.5600376  43.6167030  16.5836678  22.3298187  44.7915726
  16.7991047  23.6743774  43.0161743  16.5626450  23.8969154  42.0597954
  17.4606285  24.7256069  43.8322754  17.3809357  24.5729046  44.9085770
  18.9545383  24.6940880  43.4725990  19.0248280  24.9607277  42.4180527
  19.8229370  25.6553307  44.3672447  20.0786343  26.5047646  43.7338562
  19.2503986  25.9062099  45.2601967  20.8142509  25.3529530  44.7048264
  19.4480534  23.4218674  43.7106171  19.5682430  23.2730503  44.6513634
  16.7803764  26.0271511  43.3709526  16.9310703  26.2875443  42.1554985
  16.0193310  26.7281609  44.2344933  15.8801079  26.5182152  45.2125740
  15.1126490  27.8406677  43.8406258  15.5033512  28.2134457  42.8937950
  13.6862621  27.2550068  43.6406670  13.7830381  26.6308079  42.7523499
  13.0187159  26.5453377  44.8098526  12.9322405  27.3143578  45.5774651
  12.0044413  26.2374210  44.5558167  13.6400833  25.7446041  45.2108917
  12.7103548  28.4153538  43.2308426  11.7653656  27.9737053  42.9145470
  12.5201311  29.0608177  44.0883331  13.1054831  29.0149765  42.4108276
  15.1307383  28.9029999  44.8710632  15.1854362  28.6643353  46.0506134
  15.0878172  30.1922665  44.4054070  15.0896921  30.1528130  43.3961792
  14.7876797  31.3963737  45.1940384  15.4679823  31.6102715  46.0183830
  14.7493410  32.6748772  44.2309303  15.7217388  32.8520584  43.7714157
  14.0542049  32.4370232  43.4257507  14.3154917  34.0113792  44.8687820
  14.0124121  34.7097168  44.0886726  13.3580484  33.9137001  45.3805046
  15.3045912  34.6504593  45.7990189  16.2638435  34.0255585  46.2602997
  15.2677832  35.9680557  45.9629021  15.7733994  36.3545647  46.7471695
  14.5107412  36.4860916  45.5402603  13.4166946  31.2380886  45.8568535
  12.3966713  31.1303291  45.1783028  13.3238516  31.3607845  47.1876411
  14.1736956  31.4194736  47.7302475  12.0012712  31.2429256  47.9194489
  11.1917276  31.6477375  47.3121071  11.4839973  29.7332191  48.1558762
  11.2628288  29.2685871  47.1949883  12.5098495  28.8919411  48.9048729
  13.4478016  28.9113865  48.3499146  12.5841160  29.2690296  49.9248657
  12.2629337  27.8375702  49.0291100  10.2688532  29.8603630  48.8914909
   9.5652475  29.3678989  48.4625168  11.9775829  31.9818516  49.3059425
  13.0214901  32.1048279  49.8541870  10.8336506  32.4442368  49.8308716
   9.9397516  32.3549500  49.3692741  10.6667862  33.0791893  51.1259651
  11.6059370  33.5463753  51.4223328   9.6198854  34.2258835  51.1358948
   9.4847002  34.5599213  50.1071854   8.6647491  33.9873428  51.6037788
  10.1261759  35.4381485  51.9464874   9.4584103  36.4740410  51.8925972
  11.1939955  35.3555031  52.6435127  10.2733002  32.0357323  52.1876907
  10.2215385  32.4325523  53.3513336  10.1272402  30.7873135  51.8049889
  10.0877151  30.5731564  50.8187485   9.8016348  29.6399193  52.7017784
   8.9621525  30.0283508  53.2784004   9.1503267  28.5069580  51.8760338
   9.9249725  28.2285442  51.1615334   8.8388367  27.2490425  52.7560921
   8.2950888  26.4816341  52.2051659   9.7223492  26.8794384  53.2765732
   8.0731974  27.5316963  53.4785881   7.8737936  28.9475040  51.1486282
   6.9873109  28.9754639  51.7822418   8.0742722  29.9150066  50.6883583
   7.6908011  28.2308044  50.3480377  11.0230036  29.2676277  53.5875969
  12.0751371  29.0327892  52.9875336  10.8549433  29.0386677  54.8538628
   9.6353331  29.3874092  55.6695328   8.6334372  29.0665970  55.3842545
   9.4756355  30.4651871  55.7010345   9.9112101  28.9012680  57.0871162
   9.7870159  27.8346500  57.2741966   9.5128260  29.4567738  57.9361229
  11.4378557  28.8998070  57.2141075  11.7808266  28.1258125  57.9006996
  11.8203640  29.8616447  57.5556564  11.8623018  28.5534401  55.7653351
  12.8164425  29.0746918  55.6877365  11.9914837  27.0413780  55.5294418
  10.9733324  26.3503914  55.3168068  13.1884470  26.5384579  55.6493454
  13.9062901  27.2234001  55.8381767  13.6048136  25.1550732  55.2092018
  13.5762930  25.3439541  54.1360703  15.1019020  24.8738575  55.3816452
  15.3609905  23.9614716  54.8445015  15.6530237  25.6828594  54.9021873
  15.4834080  24.6112804  56.8828964  15.1351900  25.5207462  57.3725052
  14.9362698  23.7458935  57.2568665  16.9219303  24.3430729  57.1714172
  17.3058701  23.6726780  58.1052742  17.7928524  24.7568016  56.3300896
  18.7671032  24.6576080  56.5772743  17.4870872  25.1931019  55.4720383
  12.7663183  23.9419556  55.8374367  12.5468254  22.9212208  55.1894073
  12.1907682  24.1475544  57.0127716  12.2397985  25.0421848  57.4789581
  11.4235973  23.1622429  57.7099152  11.7264824  22.1361122  57.5015335
  11.4369383  23.5234623  59.2037735  11.1036539  22.6163216  59.7078781
  12.4716473  23.6748447  59.5112839  10.5750103  24.7741089  59.5103416
   9.5106459  24.6013851  60.1751976  10.9305239  25.8822994  59.1297760
   9.9555101  23.1231976  57.2491112   9.3137360  22.0744362  57.3514290
   9.4569654  24.2486401  56.6883545  10.0765371  25.0462780  56.6901932
   8.2121620  24.2942963  55.9814720   7.4356861  23.6586304  56.4070549
   7.7733231  25.7835884  56.2026749   8.6065512  26.4441433  55.9628830
   6.9419966  25.9558201  55.5190582   7.3226581  26.1120071  57.6266479
   6.6829472  25.3268471  58.0296326   8.1927414  26.1480141  58.2822113
   6.4767404  27.3225079  57.8186874   6.1885662  28.0828266  56.9133339
   6.0734348  27.6195011  59.0130501   6.5017862  27.0904083  59.7591629
   5.7744145  28.5586872  59.2335434   8.2005787  24.0478935  54.4587708
   7.1465640  23.8609638  53.9796257   9.3733063  23.8731976  53.8577118
  10.2189541  24.0355415  54.3855591   9.4823074  23.3660336  52.5172958
   8.8016081  23.9503155  51.8981285  10.9909325  23.4681091  52.0346222
  11.6190147  23.0539742  52.8233643  11.3099699  22.6479244  50.7479019
  10.6025763  22.8344784  49.9398842  12.2914257  22.9496689  50.3821220
  11.2895250  21.6033974  51.0587807  11.4399185  25.0136280  51.9222908
  10.6390982  25.5275211  51.3905945  11.6060400  25.5360279  52.8644180
  12.7982731  25.2140446  51.1843376  13.5743237  24.5451889  51.5564613
  12.6966028  25.0279007  50.1151695  13.1482382  26.2268600  51.3839111
   9.2025928  21.8156586  52.4960480   9.4351482  21.0716438  53.4020920
   8.4864264  21.3885918  51.4037094   8.3820162  21.9067249  50.5430450
   7.9107442  20.0488796  51.3604012   8.1651802  19.5550289  52.2982025
   6.4116764  20.1726036  51.0433731   6.2455540  20.7402534  50.1277962
   6.1403918  19.1358299  50.8443604   5.5224786  20.7455769  52.1362267
   5.5724735  21.8305817  52.0447540   4.5058341  20.5495872  51.7954597
   5.8190579  20.2502556  53.6069756   6.8600750  20.4591999  53.8534012
   5.2326775  20.8040733  54.3401489   5.5429111  18.8228359  53.7334824
   5.2758579  18.2925053  52.9164505   5.5696092  18.1104164  54.7982941
   5.6818771  18.6353092  55.9870338   5.7906399  18.0649681  56.8134613
   5.9090300  19.6185627  56.0285110   5.5160022  16.8129158  54.7791176
   5.4224486  16.1546211  55.5393829   5.5675902  16.3601151  53.8777809
   8.6079588  19.1449642  50.2807045   8.5957880  19.3959103  49.1098824
   9.1739464  17.9819164  50.7793388   9.0984621  17.8012619  51.7701797
   9.8227940  16.9589195  49.9119301  10.0455465  17.4432869  48.9612122
  11.2112579  16.5393982  50.5488663  10.8574295  15.9046726  51.3612900
  11.7164764  15.9254971  49.8032265  12.1194410  17.7023544  51.0521851
  12.4670544  18.7705441  50.2626038  13.1721363  19.5823936  51.0909691
  13.6311178  20.5132542  50.7922287  13.3516884  19.0311565  52.3329010
  13.7858715  19.4652786  53.1348534  12.5691242  17.8880348  52.3025665
  12.4240856  17.1474800  53.0751877   8.9093246  15.7626219  49.6807785
   8.3505411  15.2161798  50.6232033   8.8149080  15.3147221  48.4357452
   9.2499571  15.9197874  47.7540359   7.6115232  14.5025797  48.0551910
   6.8361249  14.4305763  48.8178749   6.9722342  15.1091185  46.8428497
   7.7357602  15.1835642  46.0685196   5.8362942  14.2583227  46.2391014
   4.9233336  14.3134604  46.8320236   5.6620913  14.5128260  45.1936455
   6.1955538  13.2329597  46.1515656   6.4389200  16.4878864  47.0361748
   6.0409827  16.9111710  46.1139069   5.7054176  16.4765511  47.8423691
   7.2780528  17.1122055  47.3430672   8.0741854  13.0767555  47.7588272
   9.0101280  12.8735094  46.9811478   7.3950162  12.0740776  48.2633705
   6.5363474  12.3738832  48.7025795   7.6875997  10.5959673  48.1396866
   8.4764643  10.5539236  47.3886719   8.2402601  10.1427202  49.4793015
   7.5532351  10.3432932  50.3014107   8.4788256   9.0812216  49.4129219
   9.5574007  10.7971458  49.8728752   9.5619850  12.0746250  50.4617233
   8.6012735  12.4592190  50.7707863  10.7496929  12.7740173  50.7096176
  10.6988878  13.8074026  51.0193481  11.9837828  12.2024279  50.3101997
  13.1832714  12.8699007  50.4903870  13.9413137  12.2873735  50.5777550
  12.0047855  10.8699484  49.8351822  12.9276552  10.3324251  49.6746254
  10.7742758  10.2006245  49.5519981  10.8577175   9.1639996  49.2607117
   6.4858737   9.7021370  47.7000732   5.5198278   9.4807034  48.4375076
   6.5422416   9.3176241  46.4186249   7.2543683   9.7270727  45.8309822
   5.4802284   8.5965109  45.7083206   4.7385564   8.5033455  46.5016327
   4.9307523   9.4724407  44.5438843   5.7088294   9.4314394  43.7816391
   3.9956279   9.0422163  44.1853447   4.6569204  11.0275850  44.8709335
   5.2636585  11.5293274  45.6247406   4.5412292  11.8759327  43.6032791
   4.5825453  12.9437284  43.8182373   5.3663096  11.6761818  42.9195824
   3.5654254  11.7702761  43.1292114   3.3353186  11.2748213  45.4830818
   3.2971275  10.8972197  46.5048714   3.0002394  12.3120079  45.4911880
   2.5608909  10.7690468  44.9064026   5.9050684   7.1888881  45.3561363
   7.0796213   6.7249179  45.5252991   4.8766823   6.4406714  44.8761330
   3.9554524   6.8476419  44.7999077   4.9587402   5.0176711  44.4875450
   3.9082544   4.7906752  44.3057442   5.6956053   4.8848367  43.1387520
   6.7038713   5.2876706  43.2347946   5.7519941   3.8327355  42.8594551
   4.8932076   5.5222707  42.0448952   4.7018914   6.5620284  42.3102303
   5.4857135   5.6855383  41.1446838   3.5474727   4.8602886  41.7092285
   2.4873905   5.3256540  42.1655769   3.5361869   3.7184658  41.1500854
   5.4665718   4.1726189  45.6995583   4.8653812   4.1722937  46.7711258
   6.5990953   3.5021031  45.5828018   7.0806265   3.6834991  44.7137070
   7.1912246   2.7583508  46.6845360   6.3903232   2.5064723  47.3796730
   7.9349070   1.5097731  46.2457771   8.7379904   1.6604282  45.5243492
   8.3119802   1.0001647  47.1324654   7.0006089   0.3356621  45.7908325
   6.3733654   0.0589511  46.6382408   6.2467451   0.7067800  45.0965233
   7.8284044  -0.8082393  45.2251244   8.3135586  -0.4386438  44.3217278
   8.5558090  -1.1742345  45.9497147   7.1365190  -2.0883145  44.8134384
   7.8562899  -2.8446584  44.5004272   6.6752877  -2.5780771  45.6710510
   6.1081352  -1.8653070  43.7455940   5.5595784  -1.0523394  43.9869804
   6.3914361  -1.5858513  42.8172874   5.4613090  -2.6396937  43.7004128
   8.2452717   3.5243354  47.4927254   8.6770668   3.1079292  48.5499382
   8.6221972   4.7396679  47.0279198   8.1321716   5.1689305  46.2560959
   9.5944815   5.5625510  47.7033882  10.4369392   4.9822645  48.0797310
  10.1564054   6.5446234  46.7051659  10.4003258   6.0927505  45.7436981
   9.4123039   7.3331852  46.5929947  11.1102829   6.9554386  47.0359955
   8.9416685   6.2685385  48.9378281   9.6848078   6.7011328  49.7766342
   7.5828133   6.1848860  49.1309357   7.0415034   5.6721225  48.4496422
   6.8230968   6.8619089  50.2535553   6.8090506   7.9506836  50.2038231
   5.3148718   6.4929643  50.1134682   4.9477410   6.6555772  49.1001205
   4.9995699   4.9629474  50.4709625   5.7681127   4.2539024  50.1632309
   4.9023032   4.9605360  51.5566101   4.0543079   4.6421404  50.0331573
   4.4066653   7.4995561  50.8548317   4.5758462   7.4685097  51.9311714
   4.5109234   8.4964886  50.4266281   3.3849726   7.1883874  50.6370735
   7.2924557   6.4939351  51.6658669   7.2746658   7.2738733  52.6514664
   7.8379812   5.3104382  51.7827377   7.8014922   4.6494570  51.0199318
   8.6555548   4.7334056  52.9489746   7.9671235   4.5884433  53.7815285
   9.1711254   3.2840574  52.7002525   9.3026323   2.6811485  53.5987587
   8.0058565   2.5273905  51.9587021   8.1881018   2.7058759  50.8989716
   8.0883007   1.4582193  52.1540909   7.0053806   2.8590987  52.2364044
  10.4932356   3.1409628  51.9660950  10.3454885   3.6320450  51.0042686
  11.3557091   3.4563549  52.5532646  10.7727213   2.1071172  51.7632370
   9.8478489   5.6169891  53.4919968  10.2842703   5.4527855  54.5816536
  10.2786551   6.5692415  52.6819572   9.7922688   6.5609045  51.7968254
  11.4037838   7.5151005  52.9915009  11.8856516   7.1222119  53.8867950
  12.3788815   7.5515823  51.8365479  11.9547386   8.0698271  50.9765320
  13.1735849   8.2099113  52.1874886  13.1083975   6.2064686  51.5520782
  12.3061991   5.4835243  51.4039955  13.8376455   6.1928077  50.2163773
  14.6984568   6.8539090  50.3166046  14.1436901   5.2222705  49.8258743
  13.2079258   6.5917373  49.4211388  13.9921389   5.7694354  52.6867561
  14.5434828   6.6277995  53.0705948  13.2933578   5.3801050  53.4271736
  14.6606646   4.9560833  52.4045601  10.9741611   8.9084778  53.5325546
  11.7931070   9.7613373  53.8089066   9.6722336   9.1085472  53.6270103
   9.1144352   8.2910728  53.4252777   9.0942535  10.4845028  53.6045036
   9.4606972  11.0419769  52.7425003   7.5619006  10.5102768  53.4931831
   7.2217035  11.4924593  53.1650276   7.2533898   9.8284378  52.7007065
   6.8129935  10.0249920  54.7122002   7.3215218   9.1437855  55.1033211
   6.7490258  10.7252645  55.5450516   5.3823872   9.6218414  54.2972107
   4.8331804  10.5495806  54.1366768   5.4928255   9.1005001  53.3463669
   4.7459679   8.8306561  55.3270226   4.0178151   9.3183041  55.8291092
   4.6361465   7.5396247  55.3806648   5.3397961   6.6741786  54.6873245
   6.0974226   7.0045586  54.1068459   5.3341637   5.6792979  54.8613358
   3.7777951   7.0653167  56.2299919   3.5905626   6.0746083  56.2895393
   3.2269747   7.6515021  56.8407974   9.5188665  11.2067890  54.9299126
   9.4388866  10.5747242  55.9989090   9.6956167  12.5301504  54.9179153
   9.7599497  13.3464422  53.7617111   8.8666639  13.2641335  53.1425476
  10.7102947  13.0947037  53.2909966   9.7906818  14.7566319  54.2516937
   8.7828922  15.1378098  54.4165077  10.2401590  15.4318686  53.5235939
  10.6282139  14.6028776  55.5140953  10.3511362  15.4337921  56.1628685
  11.6969147  14.5904112  55.3000221  10.2008934  13.2627707  56.0673103
  11.0888767  12.6957664  56.3467636   9.2802143  13.3593502  57.3122864
   9.7928190  13.1930208  58.4639397   7.9419713  13.4957886  57.2574387
   7.6185169  13.7436867  56.3333054   7.0193052  13.5248022  58.4003563
   7.3471060  14.3724098  59.0021935   5.5783291  13.7365093  57.8524284
   5.3874497  13.0241709  57.0497818   4.9692559  13.5459270  58.7360649
   5.3246379  15.1908665  57.3614159   6.1649771  16.0958328  57.5832329
   4.2989845  15.3572683  56.6658669   7.0156322  12.2258406  59.1874657
   6.8570924  12.1771297  60.4259682   7.3495202  11.1317377  58.4711304
   7.5205684  11.2619982  57.4842796   7.5560074   9.8027840  59.0739250
   6.7861228   9.6067753  59.8202209   7.4639010   8.6909866  58.0873947
   6.5700302   8.6518831  57.4648476   8.2314014   8.7859783  57.3192673
   7.7740865   7.2392664  58.6605186   8.8424425   7.2035084  58.8736763
   6.9353786   7.0085554  59.9445572   5.8703537   7.1927738  59.8035507
   7.0411601   5.9541869  60.1999321   7.3539801   7.4761386  60.8357582
   7.3294220   6.1466599  57.6095123   7.4832840   5.1447835  58.0103607
   6.2871499   6.3681855  57.3799591   7.8623800   6.4046783  56.6943741
   8.9132586   9.7690315  59.8009682   8.9353743   9.3853426  60.9760857
  10.0104799  10.2402782  59.1745300   9.8389826  10.6745157  58.2789154
  11.3206863  10.3290443  59.7974586  11.6600409   9.3470392  60.1270218
  12.3331108  10.9913788  58.8937759  12.4201937  10.4913282  57.9291687
  12.0308609  12.0340252  58.7956200  13.6305056  10.9205627  59.3196030
  14.2095861  10.5416212  58.6542664  11.2532520  11.2256460  61.0569229
  11.7655096  10.8661747  62.1884499  10.6154222  12.3484516  60.9846382
  10.3531647  12.6396246  60.0537567  10.3285542  13.2242355  62.1360970
  11.1645832  13.3039494  62.8309364   9.7590818  14.5477524  61.6559448
   8.8381920  14.3428984  61.1099625   9.4282465  15.2458496  62.4249115
  10.8298645  15.3703527  60.7935562  11.4580908  14.7243385  60.1802864
  10.1578817  16.5135460  59.9454918  10.8381300  16.8761101  59.1748314
   9.3060093  16.0420666  59.4554672   9.8280420  17.3060246  60.6172676
  11.8818741  16.0812626  61.6416321  12.3320379  15.3548794  62.3182602
  12.7356958  16.4736500  61.0892525  11.4276190  16.8931255  62.2096405
   9.3243122  12.6395178  63.1539955   9.4190617  12.8504601  64.3637924
   8.4218149  11.7014217  62.7142754   8.2748146  11.5587301  61.7252655
   7.5931449  10.8539934  63.5968246   6.9783950  11.4660721  64.2567825
   6.5348983  10.1029434  62.8045349   6.9060245   9.6181087  61.9015961
   5.6956124   9.0689135  63.4641418   5.2955880   8.3877325  62.7130928
   6.3125310   8.5753107  64.2150497   4.9056005   9.4267502  64.1243896
   5.5536742  10.9970684  62.3535843   5.9688993  11.3726873  61.5737762
   8.4297495   9.8950758  64.4640808   8.3348503   9.8743200  65.6535339
   9.2854004   9.2014675  63.7982635   9.3355160   9.4450340  62.8193550
  10.3894482   8.2861309  64.3238525   9.9065409   7.4928131  64.8944244
  11.0848360   7.6416869  63.0981598  11.4402647   8.4195566  62.4223747
  11.9799604   7.1128697  63.4255867  10.2323866   6.5778198  62.3947258
  10.0868816   5.7442908  63.0818634   9.2648973   6.9613771  62.0707703
  10.9449883   5.9765177  61.1683846  10.9214907   6.6568108  60.3170624
  12.0109453   5.8155684  61.3294296  10.0957060   4.8206525  60.7439690
   9.8294764   4.0683951  61.4864845   9.1329527   5.2447524  60.4587555
  10.6408901   4.2127686  59.4701118  10.0261688   3.5070570  59.0903893
  10.7527990   4.9117785  58.7497177  11.5124569   3.7275584  59.6283607
  11.3699913   8.8955660  65.3367462  11.9763699   8.1256914  66.1074753
  11.4602137  10.2149868  65.4459915  10.8730068  10.7804337  64.8497009
  12.1864605  10.9250574  66.5090866  13.1806936  10.4929066  66.6224518
  12.4208899  12.3651047  66.1192093  11.4795399  12.8938990  65.9697571
  12.8046513  12.8638992  67.0091705  13.2201509  12.7129192  64.8703461
  13.8423901  11.9248438  64.0849609  13.1419830  13.9772949  64.4901123
  12.6607180  14.6098671  65.1132812  13.6250772  14.3196468  63.6718750
  11.6492672  10.7726154  67.9642487  12.4997568  10.7493467  68.9204559
  10.3659964  10.5956268  68.1048126   9.8680830  10.7815590  67.2459717
   9.6571236  10.6277838  69.4506302  10.4827261  10.4786196  70.1464996
   8.8983088  11.9791441  69.6424637   8.2977190  11.8060589  70.5354538
   9.8467999  13.1200094  69.6916504  10.6957388  12.8564949  70.3225021
  10.1082010  13.6309586  68.7649918   9.3540783  13.9525261  70.1939011
   8.1141233  12.1969357  68.5035172   7.2375498  11.9031477  68.7621841
   8.7110586   9.4464588  69.6413727   8.5356979   9.0238819  70.7846146
   7.9461918   9.0022745  68.5836105   8.0451918   9.3750763  67.6501617
   6.7423658   8.2496862  68.9534225   6.3532348   8.6241732  69.9002304
   5.6826096   8.3788509  67.9195023   5.9791870   7.8829374  66.9952698
   4.7818685   7.8788209  68.2755051   5.2567468   9.8268948  67.6303635
   5.9443045  10.3426752  66.9600372   4.3236151   9.7264185  67.0760345
   4.9554625  10.6794653  68.8595428   3.9311063  10.4300508  69.5573196
   5.6634059  11.6823168  69.1389465   7.0075746   6.7743564  69.2750168
   6.1964836   6.0835176  69.8756332   8.1888523   6.2737288  68.8178101
   8.7128887   6.9770617  68.3170013   8.5490198   4.8437548  68.9158096
   7.6982150   4.2653742  68.5556564   9.7936459   4.5688548  68.0203629
  10.6370192   5.1486726  68.3953781   9.9370127   3.5178781  68.2713470
   9.6232595   4.7521935  66.4986725   9.2828674   5.7733259  66.3268509
  10.9444704   4.3988113  65.7795486  11.1135740   3.3402088  65.9767151
  10.8600931   4.5306840  64.7008514  11.7810421   5.0303483  66.0785599
   8.4540215   3.8783369  65.9872971   8.5549145   3.8129287  64.9039459
   8.5080462   2.8522818  66.3511505   7.5187883   4.2999339  66.3556747
   8.7871332   4.4149265  70.3274078   9.6841574   4.9443407  70.9728317
   8.1354332   3.4605005  70.8016205  23.3286133  14.2831373  28.6819897
  23.2300663  13.4365845  28.0058517  24.0029106  14.1833277  29.5298634
  22.5718079  15.3953285  28.4921017  22.7185268  16.6328907  29.3109951
  22.2433338  17.7320137  28.9561901  23.4195118  16.5681381  30.3138103
  21.6935310  15.5101986  27.4201832  20.5389328  14.6111965  27.3383789
  20.8870773  13.5763836  27.4439564  19.9827557  14.8030071  25.9003410
  20.7461948  14.7628584  25.1263428  18.6535778  14.8007145  25.5814571
  17.6550217  14.6782694  26.7116146  16.6245174  14.4634285  26.4353676
  18.0859280  14.7010078  27.9581604  17.4007626  14.4936018  28.7773457
  19.5318298  15.0339308  28.3927250  19.6270504  16.1114578  28.5745430
  19.8571663  14.3037310  29.5218163  20.4914570  13.6262770  29.2294769
  18.3373184  14.8137484  24.1181030  19.1984959  15.1504269  23.4057961
  17.1902637  14.7727842  23.6779823  40.6875305  14.6439381  44.8481789
  41.3820877  14.2679186  44.1000290  40.9080620  15.6317816  45.2469978
  39.4432449  14.0370836  45.0748558  38.4774361  14.6443014  46.0640488
  38.7268410  15.7539320  46.5453072  37.4917107  14.0722485  46.3520203
  39.0358582  12.9438171  44.4101639  38.4471626  13.1378183  43.0950661
  38.2771873  12.1280813  42.7017097  39.3844681  13.9373503  42.1811256
  40.1247368  13.3446178  41.6480255  39.4531631  15.2837763  42.0115242
  38.3472519  16.0413933  42.6381950  38.3332939  17.1269741  42.7137985
  37.2956924  15.3946629  43.1835861  36.6253090  16.0035515  43.7863922
  37.1221924  13.8907871  43.2025185  36.6807060  13.5475283  44.1461563
  36.1670647  13.5452986  42.1620789  35.3307533  13.2547216  42.5656662
  40.5378075  15.9725142  41.2811317  41.4075127  15.3021917  40.7464294
  40.6583595  17.1910400  41.2790451  16.1740246   8.8284645  52.6701622
  15.4691973   9.5429392  53.0900078  16.5933285   8.0863762  53.3461952
  16.3880787   8.9166851  51.3331070  15.7880068  10.0099592  50.4296799
  15.3002262  10.9971724  50.9189224  16.0668659  10.1071196  49.2290878
  17.2978897   8.0520496  50.6606483  18.3437805   7.2889805  51.2891808
  18.9450054   6.8832664  50.4663086  17.7710991   6.1377544  52.0977440
  16.9331512   5.5856123  51.6776161  18.2404404   5.8248119  53.3214340
  19.3504810   6.5576024  53.9262390  19.6116447   6.2300358  54.9306755
  19.8587132   7.6439567  53.3232498  20.6411839   8.2111320  53.8228340
  19.3168240   8.2509108  52.0290413  18.8374424   9.2019377  52.2915878
  20.4721050   8.4675989  51.1373405  20.1080017   8.8484364  50.3193398
  17.6068268   4.6580977  54.0721016  17.7565632   4.4768806  55.2696457
  16.8091030   3.9637644  53.4560471  83.5739594  33.4797287  35.7947922
  23.1603069  69.1227951  35.5826759   4.2073832  54.1797791  61.3845100
  43.9902077   8.3682871  11.1271353  20.3602238  50.1819611  66.5773239
   2.5673051  21.0841217  60.1979980  73.9986572  67.2520752  59.0964928
  65.5051956  26.9986172  84.0635223  73.8416214  61.1039543  76.5159607
  38.8801537  51.4655685  79.9248428  39.7589302  51.7881889  80.1245880
  38.3071632  52.2148018  80.0878143  10.0281506  10.6517763  74.2389374
   9.1171818  10.6506033  73.9450531  10.2372932  11.5770197  74.3670578
  49.7152977  53.7659645  39.3470001  50.1784935  54.4275436  39.8608055
  49.0237656  54.2522507  38.8980675  51.6645966  33.1923599   3.4205434
  51.0668716  32.7710915   2.8028944  52.5290489  33.0958405   3.0209942
  22.2033005  63.4780655  45.8283119  22.7847786  64.2133026  46.0220757
  22.7229881  62.7010117  46.0340805  51.8701286  52.8797684  82.5926437
  51.8346176  52.6210861  81.6717453  52.1576462  52.0908203  83.0521240
  10.0023537  31.4542503  31.7249851   9.4528923  31.7118206  32.4652405
  10.3504696  30.5974369  31.9717979  29.4565887  63.2737274  44.0975151
  29.5708923  62.6513519  44.8157196  30.0123940  62.9345284  43.3959045
  40.3793831  50.0830727  13.1194124  39.6917801  49.5994453  12.6616583
  40.0851822  50.1137505  14.0297623  18.6610832  63.6091270  78.1179657
  17.8691959  63.1199226  77.8947525  18.4226818  64.1067963  78.9000931
  11.2363281  51.8117142  79.0524826  11.2428503  51.8034592  78.0953369
  10.4022989  51.4063797  79.2898254  38.6818352  63.2915192  76.3981018
  38.4406395  63.2899551  77.3244171  39.5360374  63.7227745  76.3737488
  69.8193359  18.6679935  56.8294830  68.9446259  18.9487495  57.0983658
  69.8768158  17.7563953  57.1156921  67.8422699  23.7706585  79.4075546
  67.7348175  24.5846367  78.9154968  67.1722412  23.1862125  79.0529938
  22.5459766  61.8286819  49.7973022  23.0576878  62.5172119  50.2219353
  22.9077740  61.0130768  50.1438904  50.9231529  66.6230087  86.8807220
  50.0844841  66.2217865  87.1085052  51.5517159  66.2209244  87.4802856
  35.8605881  21.0838261  88.2843246  36.1214828  21.6763763  88.9893417
  36.4199409  20.3154259  88.3979721  38.7425461  69.4638443  31.7963371
  38.0703163  69.7018051  31.1578159  39.4722557  70.0536652  31.6069717
  13.1929131  42.3949928   4.9972348  12.9259577  42.3827858   4.0780950
  14.1417675  42.5180168   4.9694452  49.6929512  13.9694271  51.0265808
  50.2358055  13.5261955  50.3745956  49.9229279  14.8946152  50.9407387
   4.0214915  60.2788391  65.0316086   4.1719160  60.5247955  65.9443588
   4.8786478  60.3683014  64.6150665  63.7721024  71.3197937  46.9118385
  64.0007858  72.1404648  47.3482132  64.3867340  70.6790237  47.2694283
  15.2003021  42.5771713   0.2811778  15.4638510  42.2569199   1.1438556
  15.2060680  43.5304489   0.3675466  35.5469093  50.5087013  78.6131516
  36.3576965  50.0237885  78.7671509  35.8232498  51.4228249  78.5479355
  41.7112083  20.6216335  81.0401688  41.8027267  19.7230721  80.7232437
  42.0171890  21.1642666  80.3134308  53.8471489  50.7376709  88.6191483
  52.9068260  50.7718811  88.4434814  53.9288330  50.1538963  89.3733139
  31.6498299  21.2641277  16.8683186  32.5250511  21.0936947  17.2164211
  31.1389217  21.5399551  17.6293201  61.9499969  61.7592468  65.4753418
  62.2708702  62.6179314  65.1997833  60.9969978  61.8313103  65.4221802
  75.5345383  69.4817200  66.7771759  75.5109482  69.5712280  65.8244629
  76.4356155  69.6991653  67.0159302  39.0145988  67.7760315  87.2938080
  38.9009018  67.9032288  88.2356873  39.5404015  68.5248718  87.0127411
  73.5809021  11.2490721  63.1177902  73.7766190  11.6523647  62.2720451
  73.6649933  10.3087320  62.9599228  55.6569405  47.6926918  53.7969971
  56.3133583  47.1239815  53.3946152  54.9520035  47.7391357  53.1511345
  40.4566002  25.8425350  72.4426270  40.8573494  26.7099018  72.5001068
  40.1220436  25.6744156  73.3235626  55.3300400  46.2597313  71.6553192
  54.4850235  45.8350601  71.8030624  55.9724350  45.5579643  71.7605896
   6.5848660  43.4731026  50.3534737   6.1253023  42.6382408  50.2638168
   5.8914676  44.1323891  50.3256836   7.4320245  69.8411560  24.4091740
   8.3884001  69.8669128  24.3789253   7.1543412  70.3855667  23.6724663
  11.9892483  45.9989891  23.3902130  11.0359383  46.0063133  23.4761066
  12.3088531  45.8536453  24.2806969  21.5835915   8.8665266  83.5132751
  20.9061432   9.4616823  83.1921997  21.1586037   8.0091124  83.5346756
  17.2000465  15.2964439  66.5177765  17.3255367  14.4544563  66.0801239
  16.4061069  15.6560678  66.1221008  66.5095520  23.9067097  76.2963104
  66.7458115  23.0187683  76.5645828  65.6023636  24.0103111  76.5835648
  35.9766426  50.9270859  84.7299500  35.8663368  51.7431793  85.2178650
  35.9886551  51.1968155  83.8116226  83.8325806  18.3415489  84.2280045
  83.4297638  18.2039356  85.0853424  84.7590332  18.1430206  84.3640213
  42.1545410  33.3398132  64.4504318  43.0615921  33.2216454  64.7324295
  41.6524048  32.7387466  65.0007172  69.9384842  49.3650208   4.2462287
  70.1324768  48.6054764   4.7954917  70.5843048  49.3218536   3.5410435
  80.1422882  62.8218689  12.6041851  79.7036819  63.6280556  12.8760700
  80.0656815  62.2406349  13.3608418  29.8605042  59.2490120   0.7692410
  29.9670773  59.7888451  -0.0139939  30.1938591  59.7933922   1.4825134
   9.7368326  71.6054077  49.8362083  10.2922411  70.8540421  49.6283493
   9.6334600  71.5710373  50.7871895  14.3030109  40.6257477  28.4033089
  14.5258598  40.2098427  29.2361298  14.2406731  39.9000244  27.7822857
  84.1388397  70.7353210  47.1465111  84.0559006  71.2586136  47.9437027
  84.5195847  69.9081345  47.4415207  62.0818367  58.8631706   1.5582078
  62.0146217  59.1422195   2.4713595  61.2041130  58.5512886   1.3378422
   5.8165298  42.0455742   7.0156689   5.0802565  41.4377251   7.0838652
   5.4562244  42.8896713   7.2875419  69.4847794  64.0460358  52.7311592
  69.3638840  64.2291031  51.7994347  68.8872910  64.6491928  53.1732521
  86.5977173  11.2222366  21.0542583  85.8372955  11.8011007  21.0003281
  86.5825424  10.8898668  21.9517727  37.8353844  38.0797920  17.5071144
  38.6030426  38.6303177  17.6615543  37.1549377  38.4554520  18.0657749
  25.6403542  39.0966949   2.2682738  25.3234768  39.9999237   2.2678418
  26.5465508  39.1606445   1.9666944  57.4882965  29.4866962  39.2892036
  56.8572845  30.1244316  38.9555130  57.2114143  28.6536179  38.9076958
  84.4672318  24.6441784  75.5626907  83.8650360  23.9086914  75.6751785
  84.6308899  24.9579182  76.4520798  65.9615479  46.1691399  40.0945091
  65.9756546  45.4444122  39.4693680  66.5295944  45.8804131  40.8087845
  56.5401611  13.4648590  37.7688828  57.2928963  14.0528774  37.7068100
  55.7823486  14.0287018  37.6138573  32.1616631  30.2277737  83.4036713
  31.4978828  30.4002819  82.7359314  32.2797928  29.2780895  83.3842316
  12.5601912  42.0430450  14.1289530  12.8551769  41.9079895  15.0294943
  11.6252728  42.2321358  14.2089767  63.4279976  59.5446663  84.4355698
  63.7713013  58.6665306  84.2705002  62.5141029  59.4021378  84.6819763
  50.7067451  58.4333115   8.8973265  50.3271446  58.5972824   8.0340500
  51.3823967  59.1045189   8.9932871  77.5453873   4.4644351  42.4274368
  76.7230759   4.2791600  41.9738808  78.2007675   4.4988155  41.7306404
  56.3514404   5.6782222  49.6542816  56.6197090   4.7596216  49.6333961
  57.1257629   6.1468506  49.9658051  73.6684341  40.6119652  59.8982124
  73.6719360  40.9113693  58.9890480  73.5369110  39.6657410  59.8382645
  68.5048676  66.9442673  65.2299652  69.4596863  66.9701462  65.1676331
  68.3215332  66.1861115  65.7847824  35.2608833  43.0830612  21.2662678
  35.1279182  42.3350677  21.8485527  36.1719666  43.0069199  20.9827824
  52.0343933  28.0398331  40.1282845  51.3070526  28.4733582  39.6818962
  52.6305084  27.7857265  39.4237900   4.4505882  46.6977806  34.4220428
   4.4656997  47.6548080  34.4320869   3.6448450  46.4758453  33.9553986
  75.3604813  50.3400192  51.0513840  74.8513794  49.6267929  50.6662140
  74.7192612  51.0322151  51.2123947  54.9576759  66.1689758  20.8167324
  55.3102951  65.5365219  21.4427414  54.5470772  65.6318512  20.1391354
  27.1879406   2.9877589  66.1656418  27.3990040   2.0574756  66.2447433
  27.0822697   3.1302459  65.2250214  23.6432114  42.8185730  41.0956535
  23.9568844  43.2302208  40.2904282  23.3950939  43.5518913  41.6586037
  54.6127968  37.5465698  15.7951670  55.1365051  37.2492676  16.5391922
  54.3105278  38.4187927  16.0483227  39.8788681  36.2298775  82.1068115
  39.6813354  35.7265396  82.8966599  40.5185013  36.8822746  82.3922653
  43.1985512  56.3699226  53.2707825  43.2180519  55.9121284  52.4303780
  43.9931183  56.0808563  53.7194862  64.6297150  65.1166763  31.9600620
  64.2068939  65.0703735  32.8175621  65.4966125  65.4805679  32.1398087
  65.5088425  36.7176323  48.6869164  66.0829773  36.8383255  49.4432411
  65.3520050  37.6040154  48.3614006  71.0214767  44.2634048  26.0930824
  70.1213684  44.2235870  25.7699108  70.9314499  44.3777695  27.0391521
  47.0630188  63.3157692  46.5933609  46.4970245  62.7096100  47.0713310
  47.6981812  62.7523689  46.1513405  82.3887482  57.9232101  72.9758377
  82.8841553  58.4430008  73.6087799  82.8913040  57.9916611  72.1640549
  77.6224976  12.3174591  78.7397232  76.8272400  12.8221979  78.9101334
  78.0214081  12.2006464  79.6019592  23.5962353  69.7775574  73.9542236
  24.0277767  70.3466339  74.5915222  23.4209309  68.9688416  74.4353409
  67.2720566  64.7740936  50.0953140  68.0024643  64.1983337  49.8689308
  66.7828522  64.8728333  49.2785149  59.9540863  29.2770615  70.9293900
  59.7091255  28.3654213  71.0879364  59.7756767  29.4146938  69.9990921
   2.0617719  69.9960556  73.0429382   1.1256114  69.8402557  73.1676865
   2.3985777  69.1686096  72.6992416  55.8642006  64.7425232  23.1206684
  55.3090515  64.9837875  23.8621750  56.5590744  65.4008331  23.1175289
  78.7762909  30.6817856  18.0809269  78.8646240  30.9015770  19.0083542
  77.8485641  30.8193092  17.8894939  81.7421951  50.0353317  38.6543999
  82.6794052  50.0408630  38.8489075  81.3636093  49.4567719  39.3163452
  24.8681583  35.7821732  86.2778168  24.2712784  35.0702515  86.0473175
  24.8637238  35.7980499  87.2348785  75.4597321  11.3624239  23.5416317
  74.7801819  11.9762001  23.2628498  76.2633209  11.8824291  23.5500469
  75.6157150  24.3082333  35.3241501  75.3370667  24.0503807  36.2028389
  76.5574799  24.4586201  35.4060211  15.0440645  59.8747673  39.2110558
  15.2204361  58.9580078  38.9996872  15.7623520  60.1295090  39.7901955
  83.1486130  67.3497543  76.0586929  84.0268173  67.4141006  76.4339828
  82.9348145  66.4180374  76.1078644  17.5741158  42.7318459  31.6781712
  17.1090374  43.3608284  32.2298203  18.1174431  42.2336044  32.2887306
  52.3686256  44.1273727  86.8461761  51.8041687  43.4235382  87.1659241
  52.1677246  44.1900101  85.9123917  21.3989506  39.2581367  51.6064034
  20.6870461  39.8495369  51.3621216  20.9690819  38.5528221  52.0901108
  20.9196911   6.5824523  17.5390129  21.2657623   6.9749517  18.3405170
  20.7675056   7.3253355  16.9548931  33.8226624  13.1779852  76.2511597
  34.6012688  13.7005920  76.4432220  34.1667213  12.3483696  75.9201126
  43.7083206  31.6323242  84.2902527  43.1317329  32.1010818  84.8936081
  44.0446548  30.8972092  84.8028107  13.3547411  19.6995525  68.4110184
  13.5796509  20.6165981  68.2539368  12.8236399  19.4502563  67.6547012
  47.4821587  44.0449066  44.0620804  48.2107468  44.6599236  43.9775391
  46.7156219  44.5406494  43.7741623   5.8872442  64.3038406  33.7200356
   6.1576443  64.9923630  34.3275299   5.5057664  63.6271858  34.2793579
  52.4963684  44.9182930  61.6679344  53.2719955  44.5623817  61.2343903
  51.7728386  44.3833733  61.3414383  19.5555553  21.1258240   6.3987727
  20.2442074  20.6494884   6.8625565  19.9569721  21.3777294   5.5671239
  55.7199783   4.1621232  17.2674961  55.0923347   4.7656941  16.8700047
  55.1914558   3.4118900  17.5396118  62.5873985  25.1066093  33.3229446
  62.8469772  24.2119808  33.1027412  63.0033188  25.2754631  34.1683617
  52.1066399  28.4358997  10.2567739  51.9463539  27.5468025   9.9404716
  52.4067726  28.3189774  11.1581516  76.0721283  24.3085213  77.7253647
  76.3526077  25.2212353  77.6581573  76.8812714  23.8197632  77.8758163
  24.8868923  42.6119270  64.1801834  25.6508770  42.3368416  63.6733437
  24.2495689  41.9091110  64.0532990  56.6413918  20.6904621  34.6473999
  56.7308884  21.4122829  35.2696533  55.8092384  20.2773647  34.8778496
  51.8128166  22.2597942  43.9641800  51.5322380  22.9513798  43.3648338
  51.0209503  22.0272274  44.4490433  52.5025787  45.0485191  67.2119980
  52.1787148  45.1465225  68.1073990  51.7115250  44.9890747  66.6763382
  55.4831085   5.7738357   4.1459737  55.9308586   4.9281330   4.1692076
  56.1867218   6.4146233   4.0432539  33.0561638  13.8664827  84.8029556
  33.7995529  13.9255714  85.4030457  32.4278984  14.5072021  85.1361160
  13.2787638  35.1238098  73.2375488  12.5184422  34.7452354  73.6789322
  13.9271593  34.4197006  73.2311325   3.8471725  -0.1031039  47.4732819
   3.9048169  -0.0047498  46.5228958   4.2183938   0.7077949  47.8209457
  51.6922226  16.5247269  25.3249550  52.2691460  15.8364267  25.6560688
  51.0856781  16.0687408  24.7415066   6.8463678  23.2325096  79.7443771
   6.1494412  22.8376389  80.2684021   7.3375788  22.4872704  79.3985977
  59.8647156   6.7494931  88.8091354  60.5448189   6.3286839  88.2831955
  59.2233276   7.0577965  88.1689758  21.5577946  58.4507904  52.2340889
  21.3536816  58.2539864  51.3198471  22.3851414  58.9307327  52.1968307
   5.1536260  39.1979141  24.3158245   6.0037026  38.7781105  24.4476032
   5.3067646  39.8351212  23.6181507  60.9944115  43.2811432  32.6748047
  61.3767776  44.0457611  33.1053696  61.7362366  42.6953735  32.5237999
  64.6923141  57.5702667  11.9744816  64.9006653  57.4324760  11.0504503
  64.9268036  58.4835510  12.1392775  44.2621231  66.4067078  11.0284758
  44.1269989  67.3451462  10.8969078  44.6555710  66.1043091  10.2099524
  71.6691971  49.4915810  19.2321720  72.2252045  50.2705803  19.2478523
  70.7793655  49.8340912  19.1478252  84.4033966  30.0445499  86.4206161
  84.9044571  30.7254620  86.8695374  84.6334305  30.1473961  85.4971771
  63.2951050  63.5859833  61.2611046  62.8607330  64.2648087  60.7446251
  64.2290573  63.7298241  61.1085701  34.3845177  65.7520294   9.8792562
  33.7126274  65.1653137   9.5320492  34.2158394  65.7785797  10.8211031
  10.2002325  24.0428753   0.0808774  10.0486383  24.3196659   0.9845576
   9.3631248  23.6733379  -0.2000587  81.3651962   8.0716019  59.2962265
  80.4132156   7.9742613  59.2739372  81.5082397   8.9435787  59.6642303
  10.9114113  55.0658646  45.6398888  11.1029539  55.0603409  44.7020683
  10.5695801  55.9437370  45.8093643  29.9714870  55.1732292  38.8964081
  30.1222649  55.3019562  39.8328514  29.3395977  55.8522377  38.6599884
  79.4473267  22.3821526  72.3159943  78.9260025  23.1317997  72.6032028
  78.8639145  21.6305389  72.4206009  64.5352936  47.0605202  22.6138287
  64.2667160  46.1850510  22.3351765  63.7843323  47.3971825  23.1026554
  19.3742390  37.5517464   2.1626921  20.1165886  37.5090256   2.7654541
  18.9152317  36.7212982   2.2887912  70.0958176  31.8347416  62.5288773
  69.9116440  32.7740021  62.5189476  70.5221558  31.6831684  63.3723793
   3.5795038  22.0908852  77.3113327   3.8427274  21.2505455  77.6865311
   3.2623324  21.8730278  76.4348755  49.4642296  22.5100689  75.6452484
  49.7751083  23.4026871  75.7963181  50.0226402  21.9649372  76.1995392
  79.7294693  22.4311104  11.9641542  79.9031754  23.2148838  12.4854555
  78.7783432  22.4206715  11.8569918  38.6615486  68.3957825  64.5941467
  38.6848564  69.3486938  64.6816483  37.7439003  68.1944809  64.4107590
  15.2892828   6.7220683  13.7397251  15.8406391   7.4409370  13.4307489
  15.4692097   6.0042200  13.1326399  53.2613983  41.9785652  24.9962883
  53.6314354  42.1946716  24.1403656  52.5866318  42.6421013  25.1399517
  76.9987183   5.6210403  12.3702879  76.2357559   5.0630240  12.2195263
  77.2088013   5.4946599  13.2955580  81.6507034  66.7942886  22.6800251
  82.5452271  66.9887085  22.9597683  81.1846695  67.6251678  22.7732620
  12.8442926  70.1501617  60.8052940  12.2828379  69.3824844  60.6972771
  13.5597115  69.8469238  61.3642693  23.6155090  49.6859131  50.5214996
  24.4724884  49.5192299  50.9139748  23.5368729  50.6398468  50.5141945
  34.3337898  62.2779312  67.3027420  34.3624535  61.6476707  68.0225906
  33.5340576  62.0590553  66.8244629  56.5702629  49.2975883   0.7912884
  57.0570564  48.4803009   0.8975973  55.9060211  49.2720490   1.4800274
  85.5654297   1.5068514  71.7246857  85.4721298   1.4861470  72.6771011
  84.9013519   2.1312370  71.4324951  12.0010853  37.1674423  22.4707165
  11.9326792  37.0095596  23.4123249  12.3587389  36.3532028  22.1166973
  18.0687828  63.9261856  32.8821983  17.6406822  63.3437996  33.5097237
  17.6326828  64.7697678  33.0022507   7.7575731  39.5972366  22.8292160
   8.1963730  38.8661385  22.3942642   7.6681285  40.2628860  22.1472015
  74.2692032   9.6758947  77.1191788  74.9521790   9.5175648  76.4674835
  74.7448959   9.9533224  77.9021072  74.3265076  71.5025253  46.9428406
  75.1344070  71.7942352  47.3652458  74.6171570  71.0877686  46.1306038
  30.9911594  47.9476433  56.6071663  31.0424652  48.5456581  57.3528061
  30.2547626  47.3715858  56.8123779   9.4635315   6.4501314   9.6910372
  10.2593756   6.8915606   9.3943825   9.0407524   7.0830569  10.2714634
  23.2723694  57.2769661  44.2523842  23.8799953  58.0148849  44.2024574
  22.5042763  57.6291733  44.7020607  61.6283455   4.1766601  17.5261631
  62.1197357   4.1905055  16.7048378  60.8305969   4.6704140  17.3363400
  61.0713539  34.0152359  62.9774704  60.1856270  34.2669373  63.2389412
  61.6254921  34.2991562  63.7044868  84.2656937  34.7194672  29.0346260
  85.2047729  34.5988846  28.8938465  84.0723419  35.5714874  28.6435909
  15.1374884  40.9371185   8.3071642  14.7591562  41.7158356   8.7154446
  14.8872786  40.2174034   8.8865042  47.5249672   7.4811606   4.8452191
  48.4747543   7.3775573   4.7869096  47.1734009   6.6486897   4.5295820
  75.1304016  43.9589233  35.6460571  75.3629608  44.3217316  36.5007591
  75.9703979  43.8161736  35.2098618  38.6215019  16.4927616   6.1020470
  38.1824722  16.6736164   5.2709174  38.5713997  17.3182678   6.5839844
  33.1972389  30.4663467  73.0540543  32.6369781  31.0981102  72.6032639
  32.7273102  29.6355324  72.9823303  82.6791763  14.0656099  79.7458954
  82.7602386  13.1328659  79.9450150  82.1025772  14.4071932  80.4293289
  64.6451111  65.1782990  49.1161766  64.8450470  66.1111374  49.0382996
  63.6926537  65.1298370  49.0343246  78.5745010  70.6167145  64.2703476
  79.0398407  71.2228088  63.6938553  79.1483917  69.8528214  64.3281479
  66.3234253  64.7259445  41.6890564  66.8918991  65.3348999  41.2176285
  65.5174332  65.2194519  41.8409386  21.9254837  42.7926292  68.2029343
  22.1092873  41.8533249  68.2153091  21.3842545  42.9205284  67.4238663
  41.7876854   2.9329808  50.9293327  41.7374535   3.0602934  51.8766975
  40.8752365   2.8659441  50.6479607  72.8969193  20.3190536  23.9902554
  72.9414825  21.2464733  23.7575798  72.2487640  20.2794304  24.6934986
  52.3697777  32.2568474  64.0834961  53.2857552  31.9883461  64.1550903
  51.9349327  31.8229885  64.8176041  64.8125229  60.0701485  15.4714422
  64.4411316  59.4046745  14.8922634  65.6934662  60.2211761  15.1288567
  10.8056831  27.7290421  73.7645035  10.7711868  26.9051228  73.2784958
  11.3603191  28.2985668  73.2313461  59.8939362  44.6619301  11.1181812
  59.7416649  43.8495331  11.6009398  60.2820244  45.2541504  11.7623024
  15.6102037  58.2559166  64.4223099  14.6745539  58.2704010  64.2208633
  16.0318813  58.5760574  63.6248627  75.2116394  16.8883820  16.7124996
  75.1375427  17.3954086  17.5209980  76.0587769  16.4482994  16.7825565
  57.5023079  23.7917976  58.1378517  56.5818443  23.5794277  57.9833183
  57.9195061  22.9455776  58.2993660  46.1435013  59.8206635  25.6712151
  46.1944122  60.6999741  25.2964439  46.8853607  59.3533173  25.2872086
   7.4094725  20.5469551  82.5619583   7.0983148  19.9056492  81.9231033
   7.5093589  20.0482101  83.3728256  10.3611345  33.1957169  66.9316940
  10.8157158  34.0357971  66.8696289   9.8694506  33.1283989  66.1131973
  65.3299179  42.5166664  65.4701462  65.9699326  42.0838432  66.0351944
  64.6725616  42.8625107  66.0738907  25.0819893  52.3988037  68.9010620
  25.6596451  52.9785805  68.4046707  25.2908840  51.5212173  68.5810089
  40.3925629  62.6031494  67.2301636  39.6715660  62.1534958  66.7894821
  40.8010559  61.9275665  67.7714157  76.9598465   8.1417179  41.1885796
  76.8170013   7.4953084  41.8799400  77.0385208   7.6228323  40.3880806
  19.1093216  59.6034279  64.9978943  18.6862297  60.4001160  65.3180771
  19.8788490  59.4994049  65.5575714  84.3247070  10.6850033  66.1210251
  84.7651520  11.1375790  66.8403473  84.6398621  11.1258240  65.3319855
  81.1865768  61.2945213  53.1235008  81.5922394  61.2254639  53.9877396
  81.0593796  60.3874702  52.8454514  39.4952354  44.0553246  68.9638062
  38.8678474  44.5147476  68.4056473  40.0745926  44.7438850  69.2900925
  60.2936630  65.1605301  86.4904709  60.2465706  64.2147064  86.3510742
  60.9433174  65.4640274  85.8563766  22.4750023  18.7374115  16.3275490
  23.2617912  18.2247334  16.1422043  22.2924480  18.5701599  17.2521744
   6.2549300  55.5910912  73.8101196   7.1836438  55.3658257  73.7555618
   6.0035195  55.3559875  74.7032928  29.8618832  37.5728722  32.2614098
  30.4089260  36.9359665  31.8017082  30.4601631  38.2862129  32.4837570
  65.4742279  16.5346928  16.1023827  65.9340286  16.2934895  15.2982512
  66.0724258  16.2815838  16.8054638  66.2740479  29.3072319  70.3026047
  66.5293121  28.7266216  69.5856934  65.4349060  29.6751480  70.0256424
  42.5098457  43.1868362  74.2906113  43.1370773  42.4709930  74.3924866
  42.0626373  43.2354965  75.1355209  62.9800262  35.5229187   4.2829790
  63.8415909  35.1432114   4.4554763  62.5200233  35.4633293   5.1202846
  18.9675198  66.9768448  59.4450073  19.5754471  67.5289993  59.9367142
  18.4993896  67.5857468  58.8737640  69.0309296  25.7268562  44.6127243
  68.3938065  25.3600121  45.2256966  69.7615891  26.0053387  45.1648178
  34.4524117  58.6984062  26.6843414  34.4304352  58.0593071  27.3965912
  33.5923462  58.6255722  26.2705650  45.4936104  13.8716125  16.0310879
  45.8258400  13.7782736  16.9239178  45.0100441  14.6976309  16.0406017
  81.8971481   9.7689934  50.0943146  81.0036545   9.6659069  49.7667885
  82.4308167   9.2338800  49.5068703  14.2130804  49.3076553  45.0911064
  15.0096283  49.3466721  44.5617485  13.9651766  48.3831520  45.0830269
  23.5126743  31.0699959   2.4563742  24.1148777  31.7970715   2.6143126
  23.7837601  30.3949947   3.0785615  48.0093117  20.8882694   5.2395024
  48.0689240  20.1710625   4.6083989  47.4902954  20.5308132   5.9599724
  29.9408169  51.8419342  82.1237793  29.7412415  51.1519318  82.7564697
  29.5748806  52.6364441  82.5124664  85.4220200   3.3591039  59.5889511
  85.4601288   2.9947557  58.7046280  86.1855164   3.9337723  59.6443329
  48.9195023  65.4878235  14.0051966  49.2540855  64.5973053  13.8990660
  49.6731567  66.0498581  13.8253336  63.7442627  21.8855457  36.3094749
  63.3154068  21.1382484  35.8925056  64.3749237  22.1935711  35.6586151
   0.1610074  52.9648323  72.0512238   0.5408496  53.3372650  72.8469925
  -0.3716120  52.2320251  72.3603210  19.8038177  26.1228409  14.1623421
  20.2781391  26.0014896  13.3398304  20.4301987  26.5622959  14.7374573
  56.3414421  35.9932671  81.1280136  56.1677132  36.9254456  81.2587585
  56.1468315  35.5922470  81.9750900  12.1744156  69.0696716  67.6851044
  12.1060390  69.7387543  67.0040131  13.1157293  68.9356613  67.7955627
  70.8583755  53.7057724   0.2785076  70.0886307  53.3333511   0.7086571
  70.7284470  54.6525612   0.3327489  56.5218048  68.3396835  62.4477234
  56.8283005  68.9678345  61.7937164  57.3204231  68.0294037  62.8745232
  68.1196594   7.3977580  69.9569092  68.5503082   7.1397777  69.1419144
  68.1594391   6.6153507  70.5068970  28.6189785  68.1314926  17.8429031
  28.5278873  68.2422028  16.8964996  27.7354794  68.2657394  18.1858883
  29.6128654  67.3724213  74.7950745  29.4298363  67.8343964  73.9769669
  29.7583694  66.4642563  74.5299301  57.5235939   4.8113189  13.7439251
  56.9852219   4.0297384  13.8685045  56.9427032   5.4354348  13.3088675
  81.6348114  50.0243225  70.3871307  82.2306976  49.8954163  71.1250610
  81.0501709  49.2669754  70.4162598  18.3130074  63.2902946  13.8072939
  17.4508419  63.1078415  14.1809483  18.6591282  64.0052109  14.3414507
  67.7023392  19.5275307  40.9142685  66.8699799  19.3739872  40.4672394
  67.4535828  19.8721733  41.7719231  14.4739552  52.7089806  63.6663055
  15.2831287  52.2065468  63.7613220  14.7658939  53.5945473  63.4500198
   7.2057958  51.8108101   2.1516528   8.0453520  51.3550034   2.0914974
   6.9773626  51.7704697   3.0803201  75.0983658  29.4686317  26.5726681
  74.8136673  28.5603848  26.6739750  75.9379730  29.4070625  26.1171494
  66.5936127  70.6180420   1.1887051  67.0362930  71.1680603   1.8350390
  66.0886612  69.9944000   1.7105509  10.7974672  56.9038467  35.1444359
   9.9068699  57.0258789  35.4733391  10.7170296  56.2143173  34.4854164
  70.4146423  36.8866043   3.7709565  69.9267044  37.6852722   3.5702717
  70.5853729  36.9401360   4.7112851  17.9739113  59.4976959  56.7991829
  17.7997227  60.0971451  56.0735435  18.7480927  59.8608551  57.2292900
   8.6135912   2.8719673  83.0534363   9.5039139   3.1356883  83.2858353
   8.1601295   2.7938626  83.8927765  16.6615334  46.1278725  40.7023811
  17.5557709  46.2951202  40.4047203  16.1259842  46.2176323  39.9141159
  36.1322403  29.0533371  80.6698990  35.6381683  29.2660809  79.8781509
  36.6612587  28.2940292  80.4253082   0.3284494   5.8242736  61.8322029
   0.8714324   6.4791608  62.2709770  -0.5538373   5.9799266  62.1692085
  46.8285522  41.3910980  62.1882706  47.0954323  40.4982185  61.9696960
  46.2489281  41.6499901  61.4718590  81.5373535  39.4622002  88.3353882
  82.4030685  39.6489983  88.6985397  80.9445724  39.5263863  89.0841980
  68.1851349  45.9764709   5.0631504  67.9284897  45.7566719   4.1675754
  67.3567963  46.1125946   5.5231094  21.7252388  46.4644127  26.4173355
  21.2585011  47.2454300  26.1200161  21.2792568  45.7383461  25.9812584
  69.2404480  62.2770538  15.2598515  69.0476608  61.4144402  14.8924799
  69.8919220  62.6501274  14.6660261  71.4929733   3.2066634  13.0580664
  71.7576675   3.4931693  12.1839485  71.4547806   2.2522447  12.9959517
  35.5617332   2.0395923  87.6723404  35.7749825   2.2130561  88.5892181
  35.3550148   2.9000850  87.3075790   4.9435983  35.1607170  81.5898743
   4.3374929  35.7021484  82.0955582   5.2925715  35.7513847  80.9223633
  13.5075455  15.8994389  22.3330173  14.3644762  16.3244877  22.3681660
  13.7054310  14.9632874  22.3066959  47.0187073  17.5094509  87.4947662
  47.5989265  18.2687969  87.5492706  46.8888397  17.2414703  88.4044647
  71.2949524  22.9701099  81.7496643  72.0124130  22.5639420  82.2359848
  70.9726639  22.2763462  81.1742935  34.4958038  64.7114868  80.1090622
  34.3670197  64.3820038  80.9984970  35.4328308  64.8998337  80.0567551
  60.9708977   6.1736999  50.3079910  61.0677795   5.2850561  49.9657097
  60.2268181   6.5358601  49.8269348  38.8983116  45.0622292  85.5917969
  39.1944122  44.1690445  85.4163589  39.3333511  45.5940323  84.9253387
  54.8889351  58.6652222  43.0619850  54.9156456  57.8742828  43.6004410
  54.4891968  58.3818054  42.2397232  77.8009262  61.2653275  28.8888779
  77.9447250  61.0240326  27.9738197  77.0332565  60.7580032  29.1525612
  34.6773605  38.3563576  71.3022385  34.9129486  39.1960793  70.9077835
  34.6450653  38.5339737  72.2422638  18.9960423  69.1114807  40.5476837
  19.3027210  69.0980301  41.4543266  18.2103596  69.6578293  40.5686836
  67.0032196  51.6895676  86.8773193  66.2332306  52.2427635  87.0089493
  66.9694290  51.0572968  87.5951767  54.5575752  19.3308754  59.7898407
  54.0995483  19.9565086  59.2285652  55.4303207  19.7067337  59.9050560
   0.8811446  53.5768814  77.6794205  -0.0407087  53.7883911  77.5321732
   0.8687826  52.9304962  78.3852997  78.3466873  19.3862286  11.4274035
  77.9785080  19.6432228  12.2727623  79.2895660  19.5178642  11.5268373
   6.6470709  57.9863472   7.7179008   5.9752192  58.1043205   7.0463881
   7.3658423  57.5473557   7.2630510  23.8784714  43.2901192  73.9382935
  24.0832424  42.4702263  74.3878250  23.8098011  43.0464630  73.0151749
   6.6588345  49.7542572   6.8681169   6.3826480  48.9902077   7.3742623
   7.0480523  50.3423653   7.5153193  46.3972740  48.0915031  81.1919403
  46.8806381  48.5909157  81.8501053  47.0679283  47.5804710  80.7388382
  81.8538437   5.8790550  34.5669212  81.6593399   6.7947087  34.3669739
  82.4171066   5.5914283  33.8484268  68.8724442  27.0959396  49.2106094
  68.6993790  26.1924953  48.9459038  68.9730453  27.0518303  50.1614876
  43.5936852  27.3154392  72.2227020  42.8562508  27.7114754  72.6870041
  43.3820724  27.4288425  71.2961044  70.4465561  48.2745819  16.6827183
  70.4713287  48.9967499  16.0549488  70.7864990  48.6510887  17.4944534
   1.6553260  43.1224632  17.9076138   2.0199172  42.6296005  17.1725025
   1.5542327  42.4738235  18.6042347  12.2378511  62.0074883  37.1554031
  12.6012440  61.8230171  36.2892914  11.8646936  61.1736183  37.4411430
  12.3507996  40.5314522  37.2680359  12.1427059  40.8041077  38.1616745
  12.4926243  39.5870285  37.3326683  79.5508499  53.5456963  56.3342094
  78.7279587  53.2412529  55.9515991  79.3127518  53.8355637  57.2148476
  55.5673065  32.7133598  22.5430202  55.8749695  33.2696037  23.2586765
  54.6853180  33.0332184  22.3532295  81.2550812   8.6904573  56.7090302
  81.4976501   8.6366701  57.6334190  80.7641983   9.5090809  56.6374664
  45.8071747  34.8190536  29.7744980  45.7370110  35.2601624  28.9278984
  46.7474136  34.7879333  29.9511623  14.5088911  54.0839500  22.2598000
  15.2407904  53.5834808  22.6204796  14.2465343  54.6699791  22.9697075
  68.2681427  40.6032944  80.1252213  68.5124969  41.5147552  79.9647141
  67.3323898  40.5677032  79.9268875  83.0149460  43.6610489  85.3882751
  83.7735901  44.1714554  85.1051254  82.9179001  43.8713570  86.3170319
  65.7971039   0.0690243  84.6772537  65.7094955   1.0129334  84.5446167
  66.7045975  -0.0502770  84.9573441  14.9526672  67.5784607  21.5014172
  14.9697227  67.4228134  22.4457245  14.5914555  66.7725220  21.1323242
  73.8376007  51.3169975  58.8074951  73.4436874  50.5762749  58.3466301
  73.3902283  52.0852127  58.4526176  82.8604202  18.1115742  46.0340919
  83.3026199  18.9158840  45.7624702  82.0370789  18.4097443  46.4206657
   7.3605242  65.9730988  28.0069313   7.4449291  65.8855057  27.0574913
   8.0145731  66.6298447  28.2459583  55.5322990  13.0561466  15.5307369
  55.7915993  13.6091156  16.2677708  55.8009109  13.5490160  14.7553930
  15.3995285  12.6399784  53.0389900  15.4110594  12.0701895  52.2699394
  14.6283197  12.3607254  53.5324326  50.4957848  15.5463152   9.7672644
  49.7774963  14.9206572   9.6732073  50.8448906  15.6451149   8.8814917
  25.4163609  55.8081970  45.2416420  24.5906620  56.1988335  44.9555321
  25.9127064  56.5395546  45.6090546  71.4219818  51.5144958  41.3534698
  71.3348770  50.8342476  42.0212288  71.7532425  51.0529022  40.5831261
  84.5222778   9.6889057  55.4128952  84.3865585   9.9865656  56.3124542
  85.4027252   9.3133593  55.4151382  84.9335632  30.2684841  37.1737900
  84.7283096  29.7313480  37.9390297  84.4118958  31.0623589  37.2915115
  38.5744705  58.0529594  78.1953964  38.0411415  58.8478012  78.1998291
  39.3740845  58.3036346  77.7327805  41.0763397  31.7504120  69.3774338
  40.4584351  32.4597130  69.2004623  41.9359703  32.1312790  69.1979599
  77.9580612   7.5336270  34.8810654  77.2442703   7.3401270  35.4887657
  77.7151871   8.3705158  34.4850082  84.3259964  30.6992817  71.3937531
  85.0331116  31.2868977  71.6600723  83.7161484  30.7086391  72.1314697
  59.9100494  11.8158197   8.2415705  60.4217796  12.3821487   8.8191795
  60.5639191  11.2900553   7.7808571  68.9729004  39.2555695   3.6848664
  69.2584229  39.8665695   3.0056107  68.8623505  39.7992020   4.4649148
  54.5513153  59.9550209  79.6313934  54.0425873  60.7611542  79.7184448
  53.9283218  59.2560081  79.8301086  18.8933601  50.3221893  86.2392349
  19.7040768  50.5049706  85.7643051  19.0217590  50.7271576  87.0969925
  21.5918732  54.6168289   7.4214826  22.0660114  54.9368935   8.1889353
  20.6939316  54.9224396   7.5500541  67.8003006  26.5814247  84.6542969
  67.8774796  25.6499271  84.8606567  68.5666580  26.7711334  84.1130524
   3.0368788  26.9409733  86.8517151   3.8502972  26.4620152  87.0104065
   3.0910251  27.2075367  85.9339828  85.1626358  48.7935257   7.9943995
  85.7872086  48.9112740   8.7101355  84.3250198  49.0809631   8.3577280
  52.1139641  13.2282858  38.3046303  51.4132919  12.7196560  37.8964767
  52.8960152  13.0076838  37.7987022  18.3151340  28.9062672  85.6719055
  18.9395695  28.9064884  84.9464340  17.9494019  29.7908382  85.6734009
  66.1850586   6.1561618  74.2452621  65.3078384   6.4427843  74.4993591
  66.7559128   6.8832865  74.4935532  82.4087143   2.4208133   2.0531280
  83.2796936   2.7699482   2.2421308  82.1317673   2.0113358   2.8727987
  71.5885086  32.2840691  37.2646828  71.4448395  33.1101532  36.8029709
  70.9324417  32.2820091  37.9616776  15.6845455  53.6750832  18.8714504
  16.1193218  54.4755783  19.1654148  14.8215170  53.9657135  18.5765800
  29.1582184  39.0783615  15.8725195  28.3237724  39.1842766  15.4156685
  29.5906620  38.3560410  15.4170227  78.5747604  19.5477085  44.2162285
  78.7701187  20.3627033  43.7537842  79.3974075  19.0586910  44.1976776
  82.4884949  54.6896782  21.8227806  83.3299103  54.9191856  22.2172146
  82.5943451  54.8979759  20.8945351  20.6588688  32.6721916  67.3620071
  20.1067448  33.0996780  66.7072983  20.7163734  33.3056564  68.0773010
   0.9335632  57.8860512  68.3537674   1.5500431  57.2485771  67.9934769
   0.0926619  57.4288025  68.3602753  78.2383881  15.1546316  85.7736511
  79.1393356  15.4778547  85.7814026  77.9769363  15.1520119  86.6944504
  49.7199478  25.1103249  13.5846424  49.7233047  25.0296345  12.6308556
  48.9870224  24.5640717  13.8686466  58.7944832  66.8385696  76.0878906
  58.2171631  66.2319641  75.6242447  59.5295105  66.9740448  75.4898834
   2.6249588  47.2522926   4.4091797   2.8271224  48.1186142   4.7625189
   2.9371312  47.2836456   3.5048583  49.4388466   0.7683563  18.6459484
  48.4899483   0.6703531  18.5671062  49.7767067  -0.1260148  18.5992279
  34.8006554  46.5323677  85.4682236  35.1773109  47.0515976  84.7577591
  34.3519936  47.1723709  86.0207901   4.3098884  39.9114799   7.3781395
   3.9777369  39.3109970   6.7108111   3.5270796  40.3355179   7.7297559
  54.8720970  24.2468185  40.5963898  54.1769524  24.9042931  40.6234016
  54.5967445  23.5810947  41.2266502  35.7723656  17.0902290  84.4603424
  35.3733368  16.6192207  83.7287979  35.5880165  18.0121689  84.2807007
  53.7425270  12.7419977  59.1572990  53.7499771  13.5050936  58.5794907
  52.8728409  12.7527103  59.5570107  16.7468281  46.2148018  46.0963707
  16.3079262  46.2262344  45.2458038  17.6568947  46.4365425  45.8992844
  59.8516655  33.0907784  19.1190815  59.0334129  33.0486794  19.6139755
  60.4542809  33.5643921  19.6924744  20.7175007  49.5232010  76.2062225
  21.3626575  48.9039879  76.5476608  21.1994476  50.0392151  75.5599289
  48.5859070  16.9635925  43.2791901  49.2145042  17.6848869  43.2503014
  49.1097527  16.1821518  43.1026573  57.6289597  29.2987022  68.0859070
  58.4874420  28.8915234  68.2018738  57.0363083  28.5653114  67.9211884
  56.0833244  61.2077789  39.3462296  56.8009491  60.5761375  39.2985649
  56.3181229  61.7825279  40.0747681  74.1118927  13.0806761  31.5300007
  73.5394058  13.8317776  31.6859837  73.5458603  12.4303780  31.1141281
  68.5857162  28.3355427  19.8854370  68.2777023  27.4465637  19.7091599
  68.1066513  28.6039619  20.6694508  37.3157310  53.2954979  54.3335266
  38.0250511  53.9088554  54.1414604  37.6810875  52.4349174  54.1282272
  16.2328930  50.1736107  74.9660721  17.1591301  50.3736534  75.1013489
  15.8138304  50.4079132  75.7941589  43.2233543  70.0083771  20.9560261
  43.6879539  69.7960587  20.1465206  42.6844482  70.7667847  20.7310238
  79.4364243   2.6196675  30.1117840  79.1444778   2.2801991  30.9578094
  79.9929123   3.3665495  30.3325195  68.2072067  25.1013832  56.3123932
  68.7015381  25.1058388  57.1320534  68.5471573  24.3466206  55.8317680
  17.0197029  39.1079521  36.1954498  16.4185524  39.6109314  36.7448692
  16.4658451  38.4511528  35.7734489  59.6342659   0.8721582  31.6829967
  60.3081665   0.5848650  31.0669193  59.5301895   0.1352227  32.2849312
  64.1494217  20.5280972  62.6897202  64.7106476  21.2292938  62.3586884
  64.4312210  19.7491531  62.2100677  33.5898476  26.0043297  75.9525375
  32.8079605  25.8789444  75.4148026  33.7081604  25.1675243  76.4019699
  81.2778244  56.6708679  84.1822128  81.1104431  56.0329781  84.8759766
  82.1849289  56.9431610  84.3209686  19.7648067   1.6976188   2.5528073
  18.9743538   2.1183026   2.8910968  19.5579681   1.4982390   1.6397372
  43.6107826   6.9243464  58.3493385  43.6761169   7.2474804  59.2479744
  44.5002441   6.6476550  58.1290474  79.0880508  46.1157379  17.3872948
  79.5178375  46.8988152  17.7312469  78.4440536  45.8826981  18.0560207
  70.3281555  43.6681671  83.3929138  69.4446640  43.3039513  83.4478912
  70.2540436  44.5370026  83.7877045  17.2116089  33.4821968  76.8897705
  16.6536465  32.7044449  76.8865662  16.6908436  34.1523933  76.4471970
  83.4580688  43.0086479  74.2723694  82.5820236  42.6234970  74.2516403
  83.5793686  43.2790260  75.1825409  45.7131615   5.4005475   3.7717106
  45.6131554   4.4508209   3.7065115  46.3829651   5.6159682   3.1227205
  81.3295212  25.3145466  16.9954414  82.0604172  24.8660393  17.4207306
  80.6582870  24.6391792  16.8977089  66.7180023  15.6955919  62.2706871
  66.4093399  15.7661066  63.1740074  67.2789993  16.4615211  62.1487885
  37.1953888  48.5277748  79.1383209  37.3992767  48.2866745  80.0419464
  38.0492439  48.6060944  78.7128448  17.5273228   8.2896338  57.2908211
  17.2260494   7.3852873  57.3781319  18.0054283   8.4621754  58.1019173
  72.2476578  28.8578529  37.0653419  71.6989517  28.9384346  37.8455048
  72.2406921  27.9222641  36.8632126   6.7250319  33.8286514  35.1067963
   7.3049669  33.1149406  34.8412323   6.6964726  34.4095497  34.3465500
  36.2698975  64.6809998  68.3029556  36.6075974  63.8561745  68.6520386
  36.0398598  65.1929321  69.0783463  81.1091995  32.3158951  11.4033079
  80.7635803  31.5064583  11.7795925  81.5568008  32.7465706  12.1315966
  49.4373398  58.1175308   4.5046577  50.0157471  57.5938530   5.0591311
  48.6504936  58.2468796   5.0341578   4.2650881  57.1546707   9.4071407
   4.9727201  57.6703072   9.0203505   3.5012679  57.7303658   9.3699293
  39.1095772  66.9655762  15.9147043  38.6929321  66.3668518  15.2948904
  39.7524414  66.4254074  16.3742409   3.7522724  61.9821091  10.3362188
   3.4908223  62.8701859  10.5795269   3.2843904  61.8100853   9.5190744
  65.2246933  42.0698547  81.6824570  64.5507202  41.5120506  81.2940674
  65.5665436  41.5575981  82.4152374  62.1122627  31.1094494  34.9307976
  63.0563812  31.2400570  35.0192032  61.7602882  31.9893856  34.7964249
  65.5909500  35.2050629  31.1737347  64.8149338  35.2067986  30.6133480
  65.4871597  34.4288673  31.7241688  30.7913380  41.3756561   9.1155920
  30.7211666  41.3258324   8.1622686  30.8053455  40.4626541   9.4027615
  56.9189072  52.6919746   9.8853283  57.2130775  52.1237831  10.5972633
  57.5029984  52.4840851   9.1560450  12.4054728  64.6582031  37.7352829
  12.2247114  63.8164253  37.3169975  11.5669308  65.1194687  37.7174835
  81.4830627  23.0741825  52.6385002  82.1113281  23.3291588  53.3141479
  81.6102448  23.7151260  51.9390373  31.0218391  28.4182453  76.6291504
  30.3439465  29.0834522  76.5100098  30.6201496  27.6080494  76.3153687
  75.2479477  29.8674412  80.8274155  75.2026291  30.7147579  81.2704010
  76.0328217  29.4520512  81.1847076  55.5628815  69.4744339  36.9154663
  55.6091537  69.9063721  37.7684174  55.6513290  68.5422287  37.1139565
  57.6665459  68.4800491  78.1429520  57.8463326  68.9788132  77.3459930
  58.0786514  67.6295166  77.9912949  10.3586226  34.3212776  86.6715851
  11.0765162  34.1502419  86.0619888  10.7133789  34.0906029  87.5301666
  33.4676895  70.7712479  17.7553902  33.0961990  71.6263275  17.5384235
  33.5361938  70.7751541  18.7101288   0.9414042  64.0113449  18.7901936
   0.6295602  63.4958801  19.5340195   0.6261530  63.5368462  18.0209770
  50.3453293  65.4395218  27.7417965  50.0753288  64.5406647  27.9298878
  51.2070885  65.5212173  28.1503696  50.3831558   6.3259473  80.9940643
  51.0112076   5.6042705  80.9629669  50.2289391   6.5489655  80.0760651
  68.9379959  32.2111702  59.5887375  69.5705032  31.5101318  59.7459297
  68.0845795  31.7966862  59.7157059  36.8641281  19.6336765  24.2724552
  37.5139580  19.7372131  23.5773048  37.2694511  20.0353184  25.0409775
  73.5638275   0.0711470  33.8949509  72.8678818  -0.3611790  33.3999939
  73.4402618   1.0035909  33.7174377  19.8162251  17.5689545   5.6778522
  19.5248623  17.5732994   6.5896201  20.2352085  18.4209499   5.5562353
  16.5654030  68.2266998  58.1723824  16.3957386  67.2996292  58.0051079
  16.0555611  68.6875229  57.5060959  66.8409042  40.0678368   8.7103119
  66.0015335  39.7916908   8.3422976  67.0720062  39.3734207   9.3272505
  26.4449978  26.7533455  83.6138992  27.2298222  26.2074509  83.5661469
  25.8955059  26.3258495  84.2708206  70.5155640  33.9823761  64.4434357
  69.6408691  33.6386299  64.6250610  70.3647537  34.8853035  64.1637726
  47.6579132  16.8967247  59.6696281  47.0827446  17.5879211  59.9977493
  47.1218224  16.4196281  59.0362129  43.8350563  38.7605515  18.2395649
  44.0296364  37.8765564  17.9282436  43.6078796  38.6449623  19.1622028
   3.0326188  16.9270325  88.8836060   3.7474470  16.4427128  89.2967453
   3.2390761  16.9079781  87.9491272  75.7768402  10.1784678  88.7574234
  75.5928574  10.6578760  87.9496155  76.3547134   9.4651747  88.4862976
  46.7660522  46.4654770  84.5567474  47.6463356  46.6417198  84.2246780
  46.3822327  47.3322182  84.6896973  59.1894112  20.2813702  30.0121021
  58.4503326  20.8470001  29.7883778  58.8146172  19.4014263  30.0502815
  23.6450596  60.9479370  31.2789707  23.8352509  61.6788635  30.6909180
  22.6909351  60.9441605  31.3555508  44.5360527  10.6123161  16.7116051
  45.0773773   9.8446970  16.5273209  45.1584053  11.3378563  16.7616234
   8.9271288  46.2449112  11.1990013   9.2744379  45.6948013  11.9011326
   9.4734707  47.0306511  11.2178478  34.3573074  63.3310394  54.8183479
  34.7836571  63.7541161  54.0730553  33.7003098  63.9635086  55.1091537
  57.8920212  13.7142458  60.3324242  57.2946320  13.2019129  60.8772850
  57.5831566  14.6159191  60.4208603  67.9623871  67.4207306  49.7180176
  68.1236496  66.4774857  49.6953278  67.9682388  67.6423874  50.6491814
  83.4838409  61.8645515  69.6105804  83.4346619  61.5264473  68.7164383
  84.3857040  62.1722755  69.7010193  13.2822247  29.0071220  87.2311630
  13.6927786  29.1605873  86.3802109  12.3544331  29.1928425  87.0864487
  44.7179108  44.5272903  55.9966583  45.3142586  45.2266579  55.7293053
  43.9954033  44.5762672  55.3707047  54.4962997  65.3907242  60.0396919
  54.1472778  64.7188797  60.6253891  55.4205627  65.4602051  60.2787399
  41.8716812  49.4739189  24.1807194  42.6040955  49.1771202  24.7208233
  42.2781296  50.0093880  23.4993229  18.5140915  33.7692642  65.6719513
  17.8866863  33.6982117  64.9525452  18.5986080  34.7105293  65.8239594
  81.0068741  30.3357048  59.4182281  80.2418823  29.7639732  59.4826088
  80.6412506  31.2148838  59.3202782  59.3926086  65.9040298  16.6668262
  59.9357719  66.6729736  16.8398209  59.4251060  65.3999939  17.4799232
  80.8817749  55.5549393   3.3547802  81.0831223  56.4847641   3.4602225
  81.6347427  55.1988068   2.8831556  23.2732677  47.5031662  34.7638321
  22.7616158  47.6260452  33.9642410  23.6321850  48.3698959  34.9540825
  30.6798916  42.5695381  35.2263222  30.4328060  41.9198074  35.8843765
  29.9710827  42.5410500  34.5836639  67.6189270  16.9081345  71.7059326
  67.5196762  16.4828148  70.8541794  68.3978729  16.5026531  72.0868073
  21.7232723  19.7917824   4.6975827  22.5182285  19.5313549   5.1628308
  22.0307789  20.0689678   3.8345423  13.0570068  63.1843452  75.5960464
  13.3259354  63.8062515  76.2721710  13.5407982  62.3841324  75.8005829
  47.7348251  63.5250511  31.6674213  48.6078491  63.7342720  31.9995213
  47.2934227  64.3720169  31.6038589  51.7017365  26.2390690  69.1387863
  51.9258041  26.8943081  68.4779663  51.5265388  26.7476177  69.9305649
  52.6160965  49.3507614  69.5223923  53.0348701  50.0220490  70.0611191
  52.0744820  48.8545723  70.1361313  55.6007423  54.9581451  76.3111649
  55.1908760  55.0701752  75.4534378  56.1953087  54.2166595  76.1974869
  46.8302803  62.3859673  87.9857178  46.8613777  62.4779205  87.0334473
  47.6263657  62.8187370  88.2942505  37.1417160  70.7508850  38.9339333
  36.2851639  70.9121475  38.5382805  37.4150085  69.9057083  38.5772552
  10.3335810  59.4179611  43.3438377   9.5566998  58.9655800  43.6725311
  10.5033484  60.1030197  43.9904442  45.9741554   9.7632275  11.6350260
  45.6815491  10.1238976  12.4720030  46.9168015   9.9287558  11.6193285
  77.0766449  26.2658901  86.9343872  77.9848557  26.1622772  87.2183685
  76.8421860  25.4140530  86.5661011  36.1322708  54.0092163  72.6185226
  37.0810394  54.0471954  72.4975662  35.7762947  54.0370865  71.7304153
   1.3086766  18.1941013  85.9513626   0.6925080  18.0556297  85.2320557
   0.7757788  18.1124439  86.7422943  23.7342968  29.0692120  67.9831467
  23.9128208  28.5327911  67.2107391  23.3695259  28.4561729  68.6213913
  70.6990662  41.9861107  52.0356636  71.2019806  41.6274338  52.7668686
  70.6381149  41.2642860  51.4099731  67.3081360   9.2367840  57.4471970
  66.4199448   9.5934286  57.4594994  67.6062927   9.3052034  58.3541985
  77.4901199  25.5625324  17.7933502  77.8329468  24.6704464  17.7396622
  77.3040771  25.6920624  18.7233181  86.4079361  32.0278816  28.1297951
  86.8965836  31.5472298  27.4616432  85.8210602  32.5983009  27.6333714
  76.9719772  10.4702415  62.9690666  77.3838882  10.7073183  63.7999420
  77.2869263  11.1281834  62.3492699  76.4421539  10.7642403  74.5399857
  77.3703003  10.8072252  74.7700424  76.2439117   9.8280478  74.5181580
  50.3821983  66.8605652   1.2213889  49.8858528  66.8185577   2.0387697
  50.5341873  67.7951736   1.0812345  46.9571495   5.1859837  11.1522617
  47.0233459   4.9686270  10.2224197  46.5765114   4.4051189  11.5542545
  82.3542099  66.8989487  11.5501127  82.8564224  67.5321732  12.0629921
  82.1486206  67.3590775  10.7363281  69.1105423  57.2400818  37.2792511
  69.9854126  57.0803909  36.9252396  68.6547470  56.4045601  37.1773415
  40.1123009   1.6506170  89.2655563  40.8823395   1.5537570  88.7052994
  39.3733711   1.6618758  88.6572113  74.0053711  37.8769302  18.1464653
  74.8490677  38.3174820  18.2480793  73.7084579  38.1269646  17.2715034
  10.1789064  25.0645123  62.6292534  10.8719940  24.4706936  62.9177666
   9.9525537  24.7595139  61.7506332  82.6634140  24.3220997  14.3239250
  82.7446136  23.6774731  15.0268431  81.7709961  24.6577263  14.4086504
  39.9849434  23.0459270  88.1084747  39.6151276  23.8730125  88.4173431
  39.6217270  22.3858452  88.6988983  78.9764404  60.4560204  79.5393524
  78.9427643  59.9284401  80.3373260  78.3044357  61.1257095  79.6664581
  17.5647507  68.1219559  68.5631485  17.2737198  68.3627625  69.4426651
  18.2226963  67.4416580  68.7064590   3.1839912  37.1324806  58.4965363
   2.4186256  37.7067032  58.4697723   3.2280364  36.7510681  57.6197128
  71.0087357  25.2293568   2.0370333  70.0740585  25.0539570   1.9282057
  71.4109421  24.3621922   2.0869405  75.7190704  21.8266468  82.4085770
  75.6067429  21.3918991  81.5632324  76.4278641  21.3439522  82.8338470
  76.9955063  47.0874825  47.6066437  76.8296204  47.9066925  48.0731277
  76.6828613  46.4056892  48.2013245   5.5567684  64.0052719  21.1089764
   6.1441321  63.6174507  21.7576904   4.7706561  63.4601059  21.1414185
  -0.3214839  31.8400574   5.2028451   0.2570697  32.0616417   4.4731817
   0.2625039  31.4817562   5.8712835  77.6214828  46.5802689  64.3073273
  77.9696884  45.8206139  63.8405151  77.2649384  46.2197456  65.1191940
  86.8542938  41.1221848  77.7999954  86.3362045  40.3653870  78.0739822
  86.2346039  41.6784744  77.3280182  76.5339508  30.9784317  16.3296852
  76.1892471  31.2080765  17.1926308  76.2724152  30.0665169  16.2022209
  53.8643646  60.7059784  88.4699707  53.2120209  61.3486900  88.1913986
  54.1596565  60.2965012  87.6567307  39.3034630  67.5922623  29.6200180
  39.9372025  67.8495026  28.9503613  39.2287636  68.3601227  30.1866322
  65.5470657  26.6624680  41.2144737  64.9893799  27.4277515  41.3543434
  64.9513626  25.9163284  41.2826500  53.7363968   6.9435420  29.9067192
  52.7989922   6.8761845  29.7251587  53.7837791   7.3259830  30.7829189
  72.9221115  62.7814064  82.5012970  73.3424759  63.5593987  82.1349030
  73.5079117  62.0608711  82.2691498  51.5365715  64.2348328  25.0436020
  51.2914696  64.9892807  24.5079136  52.4410439  64.4094849  25.3037128
  23.9210033   1.1883106  89.1721420  24.6171284   1.6777862  88.7339020
  23.1139622   1.6277175  88.9041214  61.6623764  12.6174459  81.3959961
  61.6206818  12.6499844  80.4402542  61.0840378  13.3232489  81.6851273
  61.3794022   8.9416027   7.4283924  61.8789597   8.1490250   7.6245961
  62.0417595   9.5876045   7.1830430  24.2942677  59.1185036  79.1838989
  24.0609589  59.7116127  78.4697418  23.6935825  59.3490257  79.8926086
  64.0506134   5.1315002  68.5712814  64.3341980   4.6884079  69.3709641
  63.0989113   5.0292287  68.5654221   0.4286933  41.3193169  51.6229248
   0.5381131  41.1747017  50.6830635   0.3165423  42.2661018  51.7081184
  50.0590286  49.0088310  76.8677216  49.8119392  49.8668289  76.5227280
  49.9840431  48.4185524  76.1179352  30.8512039  44.2639008  39.6825142
  31.0005474  43.9889374  40.5871277  30.7357750  43.4456520  39.1994209
  56.6075249  56.8393135  57.2507477  56.2990646  56.1854057  57.8780365
  57.0080910  57.5198784  57.7916832   4.7824054  12.1115770  50.0606308
   3.9821780  12.5144577  49.7236519   4.7348280  11.2019520  49.7664337
   3.8862312  57.6897812  47.8265114   3.9035804  57.6852989  46.8694801
   3.9677460  56.7681580  48.0718613  18.5201645  60.0910263  80.9401245
  19.1246681  59.5350838  80.4484634  17.7308521  60.1231956  80.3995819
  48.9886627  18.1412773   9.7575531  49.3664627  17.2902527   9.9794922
  49.5283928  18.4618263   9.0349388  86.5243607  39.3298645   3.9333377
  85.5795441  39.2705421   3.7918181  86.6503143  40.1791992   4.3564167
  84.8221588  18.9664135   8.9634838  84.1665726  19.4247952   9.4891548
  85.6245422  19.0182476   9.4828358  70.3384094  14.3663464  60.9920921
  70.3520508  13.4717188  61.3322182  70.4751053  14.2665138  60.0499763
  71.9498901  33.5373039  57.7575378  72.1070557  32.6136436  57.5616226
  71.7276688  33.9270477  56.9119911  26.0571537  69.8695908  12.5636826
  25.2224464  69.4132614  12.4575844  25.8181133  70.7942047  12.6283264
  15.9340734  57.7460823  78.4744568  16.0411720  58.6141586  78.8633118
  15.8796854  57.9103966  77.5330353  26.3891582  51.1410522  63.8052292
  25.7515278  51.6852264  64.2673187  26.6806602  50.5058899  64.4593124
  55.7165947  71.3953476  73.8303299  56.4011993  71.9281998  74.2348251
  56.0897751  71.1217041  72.9924240  39.2822342  56.1651993  38.5585136
  39.8906326  56.5677986  37.9388390  39.3378677  55.2276077  38.3739586
  14.9721861  37.2912903  35.1809311  14.3600559  36.5866165  34.9688873
  15.0362530  37.8035316  34.3748703   4.2236013  56.2904625  82.9114227
   4.3581843  55.4778442  83.3990326   4.6162968  56.9679451  83.4619141
  44.5601349  53.9792099  32.8561478  45.0120659  53.7379036  32.0475922
  45.2038879  54.4898682  33.3471107  19.2241116  45.4513092  44.2447205
  19.1073303  44.9215469  45.0333557  19.5643158  46.2865486  44.5654602
  57.9286308  33.7212219  85.0041199  58.2881699  33.5996361  85.8828583
  58.2139740  34.5982170  84.7478180   5.3759212  34.6455116  87.7530136
   6.2696562  34.5932121  88.0917435   5.2694373  35.5621376  87.4986725
  81.2051392  48.5882568  21.9044304  81.2700577  47.6760788  21.6216812
  82.0592575  48.7804070  22.2914581  59.6201859   7.0745845  69.3176270
  60.0567207   6.7973013  70.1230927  58.9211769   6.4330382  69.1909790
  62.0761032  47.8609161  24.2693386  61.9689064  48.8113480  24.2316513
  61.2138596  47.5134048  24.0412865  15.6394224  21.8662510  31.5772285
  16.1234818  22.3990173  32.2081642  14.7280455  22.1392555  31.6825523
  82.7191849   9.1615305  12.3396616  82.6385956   8.2090244  12.2899637
  83.3962097   9.3783855  11.6986895  20.8455944   2.0505760  56.4549980
  20.3420105   1.2525438  56.6155548  21.4910240   2.0727174  57.1615143
   8.7011795  40.3213425  87.0349884   9.2328663  40.0726814  87.7910995
   8.6157751  39.5148201  86.5265961  47.0428391  31.4428749  17.9364891
  47.7463303  31.1437778  17.3604050  47.4940681  31.7803421  18.7102699
  38.3923378  51.2884674  17.8310356  37.7396965  51.4126854  17.1419373
  37.9118004  50.8653603  18.5425797  58.7103119  44.2974434  20.5261459
  59.0283928  44.8796692  19.8361702  59.5044823  43.9724426  20.9502888
  47.3614273  40.9387741   1.2422621  47.9699211  40.2968102   1.6081200
  47.9243584  41.6002388   0.8400136  75.2213135   6.5904608  88.0334930
  75.3304291   7.2534533  87.3517532  74.7142410   5.8958955  87.6131439
  57.5377350  29.1938362  13.7244587  57.8581543  28.3598022  14.0678949
  56.7168846  29.3461666  14.1926823  27.9157581  35.2277946   7.5422873
  27.7754707  34.2832489   7.6085095  28.7348175  35.3818741   8.0130644
  78.0418091  49.0439987  24.7989426  78.7072144  49.6648483  24.5022717
  78.1888733  48.2625122  24.2661400  33.5698128  65.5602112  43.6393471
  33.0550613  65.7751236  44.4172173  32.9359283  65.1828690  43.0293999
  23.4126606  34.4575615  82.1156006  24.2448120  34.0223274  82.3008804
  22.7591190  33.9304199  82.5752029  32.2945175  42.4824486  74.8910217
  33.2485390  42.4411278  74.8249359  32.1270447  43.2141724  75.4849625
  42.2462502  61.1684914   3.2263188  42.5287933  61.7424736   2.5143149
  41.3342400  60.9630280   3.0207686  11.2353945  36.5934677  28.9851570
  11.5743351  35.8784866  28.4464970  10.6158867  36.1717873  29.5806637
  73.2770538  64.0177841  36.0900574  73.8627243  64.4083710  35.4414711
  72.4019394  64.1233215  35.7168694  57.5525093  27.5612297  20.7658272
  57.6437645  27.1327076  21.6168709  58.3737831  27.3708420  20.3125114
  75.4968796  66.6799927  83.1998138  76.0510406  67.0450058  82.5099564
  75.5989227  67.2852097  83.9343414  42.6685257  21.1005898  86.9587250
  42.5952682  21.1719418  86.0070038  42.5008087  21.9869003  87.2789688
  69.8391800   9.9131269  56.5404320  68.9097061   9.8136597  56.7463684
  70.1441803   9.0213928  56.3730469  41.3491058  64.9179077  50.6956940
  40.7791710  64.1773300  50.9029503  41.4649200  65.3719406  51.5303650
   1.6803766  59.7929573  63.1793327   2.5782120  59.9754372  63.4565086
   1.2302020  60.6341476  63.2566299   2.2807858  63.9967690  33.8226395
   1.9768109  63.2544441  33.3003502   2.1037064  64.7625275  33.2762909
  11.5307341   2.8828816  26.5564957  10.9509373   2.4653537  25.9195194
  12.1507435   3.3820610  26.0248585  38.3070068  27.8264008  68.6104050
  37.8680611  27.1116371  68.1492386  37.6289062  28.2007141  69.1728134
  38.4102249  44.2346878  72.9291306  39.3225632  44.5148621  73.0024185
  38.2182732  43.8212814  73.7708435  83.3936691  37.7720757  52.6777458
  83.7181702  38.3319588  51.9724350  82.5151596  38.1043091  52.8623428
  36.0592117  56.0101395  75.9902954  36.8308334  56.5507622  75.8213120
  35.8071938  56.2263832  76.8880463  67.7347488  37.4349594  38.0866928
  66.8038025  37.6412048  38.1705780  67.8652039  37.2935944  37.1490211
  47.3183212  29.6006260  71.3645096  46.7723618  29.5936127  70.5783081
  47.3675499  30.5235100  71.6136932  71.9487686  65.8959808  84.4306412
  72.7757187  65.7607956  83.9679260  72.0840836  65.4896164  85.2866745
  63.4887505  67.3864365  19.0945320  63.9805756  67.5462265  18.2890453
  64.0961304  67.6203003  19.7964096  53.8129578  37.7293167  85.0164261
  52.8798752  37.5507545  85.1334915  53.9995041  37.4506645  84.1198807
  65.1251755  18.4631138  61.2453613  64.8176651  17.5898190  61.4883156
  64.9569778  18.5232430  60.3049736  58.0711441  19.9315948  49.1117859
  58.1606789  20.2483196  48.2129517  58.3736038  19.0240955  49.0772018
  71.0126877  42.5147896   6.1249595  71.9627609  42.5701103   6.2276120
  70.8852768  42.2479362   5.2145820  57.2412491  41.0679092  54.4537163
  56.3132553  41.3015442  54.4318886  57.6499939  41.7588615  54.9750023
  46.6972389  35.6059227  70.2654114  47.6253281  35.8127670  70.1554337
  46.4036369  35.3500175  69.3910294  40.5897255  35.4033279  33.9067879
  39.6945419  35.4450226  33.5704155  40.6224861  34.5833549  34.3995323
  80.1230240  27.3227577  86.0818329  80.5565262  26.6265125  86.5753479
  80.6976929  28.0815430  86.1829834   8.4048796  26.6499825  64.1531296
   8.8951645  25.9061756  63.8029785   8.1911125  26.3948193  65.0505905
  83.4171143  40.1550789  71.9594650  84.1638794  40.5622482  71.5204086
  83.4979553  39.2234344  71.7551651  64.1345291  70.1915436  73.1793442
  64.8750076  70.6558914  72.7890854  64.4838333  69.3289185  73.4031754
  45.5609894  24.3371696  13.5696850  44.6260147  24.4104900  13.7612019
  45.6011238  24.1906891  12.6246109  43.5526505   9.1799297  69.6040192
  44.2766991   9.5639648  69.1095428  43.9461060   8.9092579  70.4335709
  72.9175415  69.8693542  21.7332973  73.6731720  69.3739243  21.4173775
  73.0708160  69.9665680  22.6731300  83.6672058  64.1002121   6.4763494
  84.5752869  64.2190704   6.1979642  83.5210724  64.7939911   7.1194282
  70.2275925  56.4240303  70.5161209  70.9606476  56.0319366  70.0416412
  69.5020065  55.8142586  70.3821945  23.9243622  30.9538193  77.3721542
  24.2077827  31.8206673  77.0815048  22.9702530  30.9766865  77.2987671
  24.7019329  42.8018951  55.9794350  25.6081905  43.0543518  55.8028221
  24.7711296  42.0917969  56.6175575  50.1850395  25.8159389  38.7026634
  50.2184715  24.9552746  39.1202354  50.5731506  25.6781654  37.8385887
  76.1967926  44.9206467  87.3912582  76.4923096  44.1556892  86.8975601
  76.8205872  44.9952316  88.1134491  17.8839550  55.9061050  69.1978531
  17.9021072  55.5674934  68.3027344  17.0667400  55.5689926  69.5649338
  28.0999565  55.8593559  36.4321976  27.5451641  56.3978348  36.9965363
  27.5581722  55.0998611  36.2180252  64.5469131  42.3134232  70.7787323
  65.1418457  41.5928726  70.5711288  65.1211777  43.0221939  71.0687332
  70.3885956  66.7326202  10.8001585  70.3794708  65.8752747  10.3745918
  69.8381271  67.2825851  10.2427034  62.2539635  33.6895752  87.3928299
  62.7104111  32.9066734  87.0846863  62.7005692  34.4147530  86.9559097
  63.2917976  21.3872433  50.3754692  62.5829697  20.7751637  50.1775970
  63.7341728  21.5205154  49.5371513  46.3994904  12.4822559  79.2098389
  46.2948341  13.4333858  79.2349701  45.7569733  12.1875696  78.5644226
  67.6976624  17.2948780  53.3660202  68.1504364  16.7986336  54.0479050
  67.6048889  16.6764431  52.6413383  37.5771599  52.5820961  29.6107960
  36.9270935  51.8798981  29.5870285  37.8221245  52.6505737  30.5335827
  16.7500191  60.4701157  51.8866615  17.2361107  60.4529228  51.0622520
  16.0669537  59.8087845  51.7757988  48.2418861  48.7553864  63.7215652
  48.0031624  49.6176529  63.3813591  47.5376663  48.1781158  63.4264984
  35.3101616  38.4145164  57.3162575  35.5646896  37.7699890  57.9765816
  34.3863373  38.5893135  57.4957733  71.5872421  45.1763000  23.6727219
  71.3579941  44.6427956  24.4336739  71.0133438  45.9399300  23.7339249
  44.3128853  71.4326248  33.9242554  45.1212158  70.9612732  34.1259003
  44.0978127  71.8963852  34.7335129  28.6525631  25.5779343  85.4534302
  29.0276852  25.2540779  84.6345139  29.4016323  25.6614780  86.0434723
  82.8211517  53.9935074  73.3873444  82.8238602  54.9180450  73.6352463
  81.9015732  53.7958565  73.2097321  18.2815399  40.4688416  84.6701355
  18.6933537  40.4788208  85.5341644  18.7953777  39.8369789  84.1671906
  22.6771812  71.3759460   4.8631930  22.4196129  70.7745590   4.1644597
  22.8200760  72.2118225   4.4192080  80.0137329  47.4491806  26.8856411
  79.9217911  46.5571747  27.2204609  79.1348419  47.8222504  26.9534779
  23.0544262  70.0550995  57.6209259  23.5973454  69.9626160  56.8380318
  23.5697517  70.6109543  58.2054710  78.5665741  14.1719685  27.7395306
  79.0935516  14.8038549  28.2286530  78.2658310  14.6555214  26.9701405
  52.6161308   5.6301651  48.9149590  51.7440071   5.2694306  48.7552719
  52.7863693   5.4452653  49.8385735  45.6202431  27.9344635  26.7084656
  44.6972160  27.7423306  26.5431194  45.6464005  28.8808956  26.8492260
   7.3473740  40.9579124  25.1101265   7.6016626  40.2565956  24.5103569
   6.4633827  41.2001915  24.8342800  78.0754852  17.0548496  43.4471397
  78.8284149  17.4353905  42.9949112  77.9277878  17.6335487  44.1951523
  61.6806870  63.8313522   8.1758032  62.4150162  64.2168579   8.6536865
  61.0499725  64.5460815   8.0886660   0.7585319  37.9383202  39.7635231
  -0.0018710  38.5110893  39.6637650   0.5491478  37.3920250  40.5211182
  85.4859772  69.7684250  26.7443771  86.3344345  70.0302429  27.1018658
  84.9511795  70.5608597  26.7919865  25.7686653  66.5372391  51.4352036
  26.4865875  66.7871704  52.0168839  26.1730232  65.9546204  50.7923393
  23.7805729   8.2914791   2.3994973  24.4275494   7.6764112   2.7449579
  23.1220284   8.3597832   3.0907903  65.9008560   5.7645698  54.7558365
  66.6415863   6.2789240  55.0767746  65.2105637   6.4094124  54.6012192
  13.1324196  37.4347572  16.8859711  13.3618355  36.5394135  16.6370468
  12.8205576  37.3601608  17.7878628  43.8892822  24.6635323  16.4782505
  43.4070435  25.4746571  16.6387234  43.2778778  24.1145058  15.9873476
  39.4714928  35.0777435  85.2419662  39.2285805  35.4003639  86.1098022
  40.3979378  35.3017235  85.1538467  67.3166428  66.6921387   6.6432071
  68.2584305  66.8614197   6.6184621  67.1054993  66.3837128   5.7620039
  23.0280762  66.0612335  85.0259552  22.9224815  65.2949829  84.4620972
  22.4925480  65.8679962  85.7954407  24.7421360   5.7029595  80.0715866
  24.4113865   4.8265696  79.8746643  24.8000469   5.7280912  81.0267029
  23.8174019  56.0420151   9.1076746  24.0557156  56.3561134   8.2354479
  24.2589703  55.1964302   9.1866598  70.3205643  52.4472351  47.7476234
  70.7546921  51.5972595  47.8204231  70.6879044  52.8366203  46.9541054
  15.6940994  51.1698303  20.7396469  16.1806126  51.5203362  21.4857578
  15.8241882  51.8148842  20.0445118  17.4610939  71.8228683  10.1179476
  17.2447052  70.9739532   9.7322626  17.8831558  71.6074905  10.9496365
  43.6937332  15.0994596  88.3251877  44.5657196  14.9583054  87.9564743
  43.1314812  15.2401495  87.5634079  57.6891861   8.3371572  55.0982819
  57.9124947   8.3217754  56.0289421  58.5008011   8.0934591  54.6531677
  23.9250164  28.9446087   0.5360488  24.6888218  29.3761215   0.1531262
  23.5003681  29.6266708   1.0563340  15.2248163   2.1708000  75.6816940
  14.9831848   1.3960643  75.1741180  14.8418198   2.0200016  76.5458755
  78.5525513  59.0380630  54.2879677  79.3744888  59.1174850  53.8038864
  77.9384537  59.5957603  53.8103752  73.5224228  42.5934982  54.6878967
  73.2651825  43.2243500  54.0155182  72.7115326  42.1357460  54.9096069
   8.6195650  63.3663979  63.9768982   9.2156134  64.0893860  64.1724777
   8.6964502  62.7819061  64.7310181  30.0783043  26.5775127   1.9278522
  30.2712059  27.5032349   1.7793355  30.5516415  26.3600578   2.7309070
  41.6803818  41.6414490   0.5818250  41.5249100  42.5782318   0.4614296
  42.1448593  41.5810890   1.4166005  81.9763947  51.6883430   3.1925266
  82.0024719  50.7888145   3.5187120  82.4026794  52.2038422   3.8771985
   6.0483866  55.5226288  11.4361677   6.1784325  55.5635757  10.4887266
   6.9338579  55.5234489  11.7997217  12.1374407  51.5747070  25.8816509
  11.9109478  50.6777191  25.6359940  12.6756163  51.4791985  26.6674480
  73.5012054  16.9003754  67.7742538  74.3001556  17.2957897  68.1229019
  73.0150757  16.6193295  68.5494461  78.7435913  22.9028816  81.8976059
  79.6811295  23.0924206  81.9340744  78.6605988  22.2347069  81.2172470
  35.6671906  25.1545486   8.9464092  35.8514481  25.4792156   8.0650053
  35.7229385  24.2022457   8.8673897  73.2809296  39.6113701   9.3248558
  73.7853851  38.8931580   9.7068596  73.7217712  40.4035645   9.6319723
  68.5383453  36.7808914  45.9900970  68.7364960  37.3047256  46.7663460
  69.3942337  36.5031128  45.6637230  86.5015945  23.8976822  88.2123413
  86.8004990  24.6058884  88.7827225  86.7375183  24.1848297  87.3302307
  63.0838966  40.1655731  26.3078327  62.7466240  40.8554688  25.7364140
  62.8563805  40.4541092  27.1916962  31.5163326  28.8752995  68.4790192
  31.0407124  28.1070766  68.1630249  32.2001305  28.5174732  69.0452423
  16.0096798  53.9288826  74.0325012  15.4710217  54.7024651  73.8662338
  15.7673569  53.6538391  74.9167328   9.7566223  42.5828552  20.9057446
   9.8731489  43.3608131  20.3603687  10.6374044  42.3747177  21.2174072
  76.9460526  15.9356861  77.8774338  76.5418091  16.5810833  77.2975388
  76.2162857  15.5772943  78.3826370  56.6143990   9.8503103  36.9321060
  57.5140686   9.7731934  36.6144943  56.2462463   8.9733744  36.8240318
   5.9547443  39.3928680  57.8748245   6.1506071  38.6766281  58.4788704
   5.1342359  39.7630806  58.2003098  45.8354111  29.3221931  16.2827740
  46.0886841  28.4697342  16.6368866  46.3858109  29.9494381  16.7516594
   2.7214041  19.4686565   3.6186647   2.0943134  19.5740604   4.3341217
   3.1594081  18.6380844   3.8044949  59.4335060  27.1987000  43.5032272
  59.1270866  28.0084629  43.0950356  59.1018410  26.5035725  42.9348717
  31.3852730  15.3179321  11.8517389  31.3242016  16.0952129  12.4070196
  31.9789219  14.7331476  12.3227377  70.1813812   4.8655157  31.0363369
  70.1499100   5.8105311  30.8873844  69.9316254   4.4820819  30.1956024
  84.6906738  62.7635765  47.9028091  85.5003586  62.3455429  47.6097374
  84.1793365  62.0517807  48.2876549  36.4534683   0.9878944  44.9654541
  36.2194901   0.9477375  45.8927498  37.0090370   1.7638974  44.8920059
  10.9738913  47.0213089  83.6456375  10.8568497  47.8231583  83.1361542
  11.8833561  46.7679024  83.4878769  14.0026970  66.0949783  80.4996796
  13.2765331  66.5454712  80.9309235  14.7333441  66.1771164  81.1125717
  40.8683739   0.1914327  52.0569115  40.5715942   0.8956200  52.6333466
  41.5657806  -0.2425195  52.5483818  47.1446495  54.0065880   4.5141630
  47.0855179  53.4585915   3.7315788  46.7074509  53.4974213   5.1966882
  61.8983727  47.0895195  29.4592781  62.2430115  47.2185402  28.5756454
  60.9992485  47.4149323  29.4155655   5.9928675  70.9882965  69.7792740
   6.3436050  71.7939453  70.1589355   6.0071187  71.1426468  68.8347092
  32.2204132  38.9695740  86.0352020  32.1780167  39.4889908  85.2323074
  32.5415421  38.1140366  85.7503204  39.4402275  61.1933136  32.9173813
  40.1140671  60.8859863  32.3109779  38.8774033  61.7555580  32.3850822
  55.5188026   7.3985806  70.0753860  55.5794182   7.8267388  69.2214279
  54.6016273   7.5002403  70.3297195  53.4974823  62.3772545  55.8478775
  53.3906403  63.1829681  56.3534927  52.9042473  61.7523918  56.2648277
  36.8435211  47.6587410  45.9878082  36.8359108  48.0843468  45.1304665
  37.5026054  46.9692993  45.9071083  11.9726553  31.9037685  85.2545471
  11.8873825  31.6859798  84.3263626  12.5587549  32.6603889  85.2701721
  62.6896133  35.0425453  35.4645538  63.0309334  34.5489197  36.2102509
  61.9652367  34.5099602  35.1361198  34.3169594  71.2521973  66.8864059
  34.3911896  70.3064575  67.0140839  34.5870857  71.6288757  67.7238922
  23.2839527  20.6882858  81.0487366  23.8079014  20.5835285  80.2545471
  23.1995487  21.6356182  81.1567612  57.0221100  21.9897308  76.0401077
  57.1863098  22.4470558  75.2154083  56.7791824  21.1019192  75.7774048
  79.8584213  26.2817707  29.6770172  79.1779327  26.8400421  29.3008537
  79.3769684  25.5901489  30.1309929  67.4038696   2.6810791  60.6307602
  66.4926071   2.9457629  60.7563515  67.5400238   1.9808339  61.2690010
  10.3568649  44.2504463   7.2158957   9.8572893  43.4383583   7.1312165
  10.5130081  44.5307388   6.3140712  84.1406784  68.0184784  28.9239445
  84.2830811  68.8766479  28.5245838  83.7484131  67.4921951  28.2272415
  22.8668900  29.7857018  73.3444901  22.6682148  30.7203693  73.2882996
  22.8078232  29.5840092  74.2783356  68.1295013  61.0461388  51.8130913
  68.6582794  61.5724907  51.2134438  67.2323685  61.3467827  51.6682091
  21.4967861  18.8080826  26.7541466  21.8640213  18.3448410  26.0013008
  21.7230339  18.2605228  27.5059586  33.4372406  47.1080399  53.2611885
  33.4205475  47.5146561  54.1275711  32.9490356  46.2919464  53.3701744
  68.0237198  46.6857796  81.3689957  68.8271561  46.5445900  80.8682022
  68.0925064  47.5874100  81.6829376  77.4076157   5.4097152  70.0447617
  78.2740250   5.0431485  69.8681412  77.2026520   5.1220407  70.9344025
  32.1719055  40.7505760  29.7196808  31.2760582  40.8905258  30.0264416
  32.3178520  41.4478951  29.0804024  25.3377895   3.6606042  85.0582657
  25.2705593   2.7071862  85.0062408  25.0181694   3.8757946  85.9344864
   2.8897109   7.9879427  15.9196529   2.1015472   7.7468181  16.4063644
   3.2401791   7.1551743  15.6035824   7.1774902   6.0515757   7.9901972
   8.0387402   6.1104288   8.4037390   6.9238286   6.9613466   7.8346200
  39.7075539  50.6811447   4.4742932  38.9358482  51.2460365   4.5142465
  40.4327164  51.2472420   4.7386909  72.5378418  13.2604980  48.8770905
  72.7879333  12.3365479  48.8774643  73.2880630  13.7118540  49.2639771
  71.4756546  63.4879189  14.4641962  72.1829910  63.3096046  15.0839615
  71.2063370  64.3853683  14.6598530  79.3924942  29.1072826  88.6945801
  79.2159042  28.1665249  88.6994019  80.0989761  29.2151089  88.0578003
   2.0773785   4.6022029  17.6155739   2.8903408   4.9460168  17.9858665
   1.6147178   5.3759212  17.2938023  74.7242966   2.5094836   7.6018810
  75.5414200   2.0138979   7.6561246  74.1165695   2.0318723   8.1664944
  80.2196808  69.3517227  67.9575882  79.9039612  68.4576416  67.8265839
  80.5641632  69.6116943  67.1032028  38.0626259  14.6822329  67.2387772
  38.2980957  15.5469341  66.9025040  37.1373215  14.7594976  67.4713058
  52.1176567  43.8046989  16.6800213  52.2590027  44.5740166  17.2317448
  52.9439545  43.6917992  16.2102146  74.9783020  60.5416908  43.6507874
  75.4097214  59.8341064  44.1297798  74.0540237  60.4617043  43.8864708
  26.4988804  46.8513412  27.8444176  26.8720856  46.3021202  27.1549931
  26.5963078  46.3325996  28.6429462  78.2543030  58.4047508  20.3093815
  77.4197540  58.8343353  20.1217346  78.3462296  58.4650040  21.2602482
  79.4805984  50.6899376  86.0374298  79.4452972  49.9958153  86.6955948
  78.7654190  50.4853973  85.4350128  19.7714252  53.1654053  17.7949600
  19.4830399  53.6536751  18.5661011  20.3132477  53.7858658  17.3074245
  17.7176914  45.6187744  11.8512030  18.5538273  45.1574059  11.7860050
  17.0626564  44.9619217  11.6151810  45.1978951  37.5613365   2.8780148
  44.3800125  37.6519432   2.3890429  45.4561958  38.4603081   3.0814054
  58.4704781  63.8695412  70.9604187  58.8982391  63.9426689  70.1072464
  57.6431770  64.3392334  70.8546066  48.6647949  25.8713589  17.5469913
  48.8000679  26.8164730  17.4785118  49.1957626  25.5016727  16.8415585
  60.9825363  59.9778824   4.1549578  61.0479240  60.6979599   4.7822113
  60.0473022  59.9127312   3.9617476  41.9876671  19.8712673  54.7878227
  41.9570847  20.5083923  55.5015259  41.2622528  20.1188526  54.2144928
  64.8160782  70.5865250  38.1236534  65.6611023  70.6068878  37.6744843
  64.5389938  71.5022278  38.1543083  63.7613144   0.7822004  66.3936844
  63.5121002   0.7226300  67.3159485  64.4257050   1.4708343  66.3691101
  39.5604858  34.0770950   3.7927039  39.0301285  33.4139099   3.3509600
  39.2139015  34.9111252   3.4756799  56.8823624   8.7019777  18.1211262
  56.5427704   7.8424773  18.3704624  56.1451454   9.2981606  18.2527008
  24.9046078  30.5174217  10.0339193  25.4746037  30.0474377  10.6425657
  24.0858669  30.6358528  10.5154467   5.5409136  57.2518845  86.6106262
   5.5609150  57.1330566  87.5602112   6.1398926  57.9805336  86.4477539
  79.7612839  60.1358833  36.7919769  80.1283112  60.2639427  37.6666908
  79.2218094  60.9123344  36.6425667  38.7202415  71.1833115  65.1474609
  38.0656090  71.4160614  65.8058853  39.5425415  71.1325455  65.6347809
  28.2231998  56.8551559  10.9761667  28.0622463  56.1958847  11.6512108
  28.1113567  57.6920052  11.4271736   9.1905661  18.5292320  54.3206253
   9.6236134  19.2621613  53.8829994   9.4717207  18.5952129  55.2332191
  20.2271481   8.1252298  80.7444077  19.7730522   8.6964064  81.3639145
  21.1415482   8.4051065  80.7865524  56.5750465  68.9172211   1.6736914
  56.3907280  68.4598846   0.8532629  56.5215569  69.8457794   1.4475358
  41.8363838  56.8183937  47.1723976  42.0181923  57.7218552  47.4311066
  42.4291878  56.6554260  46.4387398   8.0242872  52.6946297  87.6166229
   7.6339211  51.8582382  87.3630524   8.9400368  52.6229630  87.3473740
  85.8187943   8.4164448  66.9309998  86.4882812   8.6885271  67.5586929
  85.3691559   9.2274809  66.6937790  69.8431320   0.0536477  25.1371136
  69.0179977  -0.3189609  25.4478302  69.5908432   0.8736457  24.7126293
  32.3053207  48.8732185   1.3906827  32.8060875  48.4552116   2.0912049
  32.5613632  48.4008446   0.5985102   0.6695380  43.2151337  63.3696251
   0.6880881  43.5760536  62.4832687  -0.2156901  42.8642082  63.4668579
  75.0521240  58.7371674  34.1379356  74.9244003  58.7960129  35.0847473
  74.5386200  57.9737091  33.8739738  54.3741684  33.8231049  47.1133041
  53.8400955  34.2549095  47.7800446  54.1718025  32.8925514  47.2100105
  77.9293976  38.1332092  31.2972622  78.4593124  37.6251335  30.6830330
  77.4496994  38.7510757  30.7455711  58.7989922  11.4532719  12.5695839
  59.0450630  12.3730059  12.6684294  59.6250916  10.9752035  12.6419849
  39.8081894  45.2192802   4.7574320  38.9138184  45.1988297   4.4169664
  40.0731277  46.1357994   4.6797781  41.4467735  61.4970207  76.5628510
  41.3377914  62.3683624  76.9437943  41.8155746  61.6596146  75.6946411
  57.2102127  57.6613808  63.4781609  56.6486130  57.3006401  62.7920799
  56.8238525  57.3451729  64.2948456  67.0630951  43.4380989  31.9914474
  67.5745926  42.7283936  31.6029625  66.1564331  43.1354141  31.9407806
  61.6445503  30.2480183  44.9136963  62.4689407  30.1643543  45.3928757
  61.2465820  31.0469723  45.2594223  64.4452133  63.3405876  70.6698303
  63.9597626  63.3118629  71.4942932  63.8417397  62.9738274  70.0236588
  13.8363781  52.4327469   4.0853734  13.0704899  52.4211121   3.5113420
  14.3336191  51.6534195   3.8371260  16.4151154  25.0408764  83.4130630
  16.6433411  24.1600456  83.7101898  16.2972012  25.5426712  84.2196198
  38.0695763  50.3700447  82.2875671  38.4811440  50.8132095  81.5456467
  37.1474724  50.6214867  82.2352524  51.0612907  58.5242233  67.7542725
  51.7225037  58.7322159  68.4143982  50.4541893  59.2637405  67.7820663
  26.3274536  26.1742325  78.5963745  25.7175751  25.4369946  78.5688324
  26.0501766  26.6861954  79.3561401  46.8909988  11.4369116  18.1026669
  47.1990280  11.0806751  18.9360008  46.3560257  12.1917953  18.3479996
  28.0010586  25.8050709   7.8068404  28.9559612  25.7394638   7.7974463
  27.7926159  26.1408176   8.6786537  72.1472015  25.5058651  31.2451515
  72.6505737  24.7314129  30.9940186  72.4483032  26.1910934  30.6484680
  22.1574764  61.9186211  23.3802986  22.6456718  62.3917885  22.7064953
  21.2384682  62.0509300  23.1476040  66.8293533  68.5967484  78.5357361
  67.2642212  67.7713547  78.7498322  67.4327164  69.0371552  77.9372177
  77.8915787  20.0935898  72.3048630  77.3558807  19.8025627  71.5669174
  77.2960434  20.0778255  73.0540771   2.9531772  29.1235046  14.3954506
   3.6494906  29.5794621  14.8681879   2.4796081  28.6412048  15.0732050
   2.3193569  54.8748741  30.8011494   1.8187579  55.6298790  30.4919491
   1.8204391  54.1162910  30.4980640  29.7559834  48.8422623  30.6283627
  30.5282116  49.4078331  30.6231976  29.0976524  49.3312759  30.1347065
  73.0639420  41.4666672  31.7993259  73.4397659  41.0860939  32.5931473
  72.5740356  42.2289047  32.1078911  25.1725845  40.4081879  44.3633385
  25.7881889  39.7431374  44.6715050  25.5968437  41.2411156  44.5694084
   3.9315670   1.7977769   2.6675985   3.0928669   1.3727754   2.4881892
   3.7496884   2.7333858   2.5793488  11.8742113  33.2803307  12.3254042
  11.4009390  32.4809189  12.0947857  12.6767740  32.9708366  12.7453327
   5.9971948  71.1612549  81.1308289   5.6776853  71.1772232  82.0329819
   6.9487085  71.2258682  81.2125473  73.2627792  53.3152199  42.8155212
  72.5452881  52.9167747  42.3228951  73.4730377  54.1126976  42.3296623
  44.1116753  34.4074631  70.7513809  44.9221878  34.9140625  70.6998138
  43.4832382  35.0020485  71.1609726  30.0688648  30.2685776  81.1359634
  29.1775093  29.9517765  80.9898300  30.5517597  29.9929638  80.3568039
  64.3025665  13.3958158  18.7713356  64.1694107  13.0420074  19.6507225
  63.7773552  12.8314133  18.2040272  75.4247131  17.5847588   7.7544422
  75.5236359  18.3453083   8.3271666  74.4939575  17.3669109   7.8041964
  84.6592484  66.8200912  37.6857948  84.5678711  67.7377396  37.4292793
  83.7695389  66.4696579  37.6428757  66.9915619  33.7941246  88.1819839
  67.8212738  33.9086037  88.6453476  66.3241501  33.8673401  88.8642197
  28.3162479  50.1742973  72.2132416  28.3789177  49.7862091  73.0859985
  28.1621342  49.4304504  71.6308594  48.6421165  40.3426819  87.8111725
  48.6486168  39.7697678  88.5779572  47.7343559  40.3267097  87.5079422
  71.6403427  24.6645832  46.7795601  71.1511078  25.4831963  46.8617096
  71.2754211  24.0981979  47.4594650  36.3988495  41.4377136  10.0034971
  36.4423943  40.8912888  10.7881975  36.9669380  42.1829529  10.1987562
  13.4022255  71.1699677  12.6535282  14.2713108  70.8955307  12.9461145
  13.5495634  72.0113068  12.2214661  34.7920113  57.5422058  82.8679733
  33.9730644  57.9062157  82.5317383  35.4765739  58.0186615  82.3982925
  35.9161949  52.7701340  26.4570389  35.8046837  53.6756516  26.7465782
  35.1426392  52.3152122  26.7900448  76.7480392  25.6945381  44.7514992
  76.6727295  24.9115238  44.2061119  77.2157745  25.3984432  45.5323830
  77.8429718  48.6215248  62.3554764  77.5033188  48.0244675  63.0221024
  78.6844864  48.9158783  62.7039604  66.9074326   9.6302919  69.6457520
  67.2034073   8.7201490  69.6621704  67.1746750   9.9843912  70.4939423
  20.7394962  41.8465118  44.4205627  21.0141392  41.0756874  44.9171829
  21.1158142  42.5857468  44.8982086  63.3611984  24.3560944  16.0737991
  63.7037125  23.8867760  16.8344936  63.9759636  24.1513233  15.3692694
  13.4706478  27.3702259  82.1731033  13.8097506  26.5723000  81.7674484
  14.2464428  27.9098587  82.3253174  84.3794250  66.3246384  40.3518486
  85.0496292  65.6587677  40.5056839  84.6424255  66.7444305  39.5328026
  60.9261971  68.1179581  81.5134354  61.2812271  67.4089966  82.0496826
  61.6857452  68.6596451  81.2991867  53.4398422  60.1040993  30.1487312
  54.0469170  59.7873039  29.4799004  53.4818878  61.0577507  30.0779705
  69.0720901  63.0284691  87.9441071  68.5455017  63.8089867  88.1165237
  69.9304047  63.2316818  88.3159180  67.9109116   4.4775696   8.5356693
  68.6950684   4.9947486   8.7196922  67.7118378   4.0413442   9.3641071
  14.0988493   2.3685238  67.3880310  13.8995991   3.2594402  67.1002808
  15.0214176   2.2453523  67.1645813  34.2353401  30.6400280  22.9618778
  33.9840202  30.1326237  23.7336349  33.4342613  31.0959244  22.7036839
  21.7852039  18.4623127  19.0335655  21.3520908  18.8347759  19.8016262
  22.6642780  18.2386570  19.3392448  71.0873489  23.4665051   5.3219151
  70.6820145  24.2868404   5.0408683  70.4270554  23.0507240   5.8763318
  42.4491386  42.6726456  11.0752840  43.2227592  42.7766685  11.6292858
  41.8075447  43.2802162  11.4433146  51.0275154  33.9304352  39.6454659
  51.3184204  33.4631958  38.8623390  50.1064377  33.6879997  39.7407112
  70.8734665  32.8780861  33.7214622  70.9397736  32.6920090  32.7848701
  71.1746216  32.0753326  34.1470528  30.9409504  38.7567024  22.2015667
  31.5366764  38.2478867  21.6516132  30.0669003  38.4697723  21.9371109
  63.1584549  51.4165802  78.0876770  64.0370255  51.7623444  78.2451401
  62.9782524  51.6285057  77.1717911   8.5785351  66.7129364  39.5727081
   7.8054008  67.2767258  39.5475616   8.4505749  66.1653748  40.3473282
  44.9480743  15.8652763   8.1908283  44.0048637  15.8395071   8.3518333
  45.2389870  16.6795120   8.6014614  40.5861702  41.3747292  38.3441124
  41.1913147  41.1538200  39.0520897  41.0361023  41.0927086  37.5477104
  19.4008198  33.2372208  87.1899872  19.7583809  34.0572205  86.8494263
  20.1629925  32.7637482  87.5233765  56.9403267  61.8951645  60.7825623
  57.3632736  62.6120491  61.2552452  57.0748329  61.1285934  61.3397942
  61.5831718  54.7901154  26.9883232  62.4682274  54.8360901  27.3499813
  61.1602936  54.0853043  27.4788818  37.4561462   3.7172360  74.5842819
  37.5306053   4.5911188  74.2008591  38.2315865   3.2514713  74.2712555
  16.8534451  53.0505638   7.1378407  16.5734768  53.1968498   6.2342644
  16.9516220  52.1009560   7.2074056  47.1697807  11.3498631  13.7105122
  47.6363411  11.0440664  14.4883556  47.8000946  11.9104347  13.2580805
  35.9548378  11.8973055  79.1283569  35.3987122  11.6832695  79.8774490
  35.7410049  12.8075809  78.9236450  77.8200760  35.7549057  71.5674286
  77.6986771  35.0018463  70.9891663  76.9905853  35.8309326  72.0390244
  35.0567856  46.9536819   0.6829998  34.8956566  46.4230232   1.4631706
  35.9808159  47.1957588   0.7446390  83.4483490  20.5525970  10.4565535
  83.1263046  21.2183437  11.0642529  82.9131317  20.6662464   9.6711502
  47.4868355  35.1367531  81.1176758  47.7452698  34.3491859  80.6389542
  47.2492371  35.7646332  80.4353638  83.1472778  35.8168449  17.3708878
  82.6375580  35.2220268  16.8207912  84.0259323  35.8001785  16.9915085
  44.8409996  16.5518932  16.3609409  44.3984375  17.2129745  15.8286419
  45.6388817  16.9843082  16.6653023  13.1193571  23.4636002  73.5674591
  13.0394039  22.5556660  73.2750702  13.3634338  23.9485035  72.7790909
  36.4333458  17.1174908  72.4662399  36.8893471  16.3671150  72.0851517
  37.0941315  17.5498180  73.0072479  31.8649521  65.4498367  76.1894455
  31.1283970  64.8639755  76.3640289  31.9921055  65.9258499  77.0101013
  61.5456085  21.2751656  66.3843079  61.2536812  20.8458252  65.5801468
  60.9245567  20.9823132  67.0512161  73.4190750  42.2152176  26.4361305
  73.2773972  42.0079575  27.3598194  72.7547531  42.8739967  26.2338505
  45.5616684  52.7612267   6.6564441  45.9503288  52.4146957   7.4596200
  45.4496231  53.6961327   6.8285861  47.7040939  30.1947403  68.1376038
  47.0555077  29.5198135  68.3377075  47.4291840  30.5477161  67.2913971
  84.5829926  59.7351570  17.5520611  84.1975021  59.3361092  18.3320522
  85.0797272  59.0273781  17.1415253  79.1306229  49.9665184  54.4279671
  78.5383835  50.0649757  53.6824570  78.5538788  49.9521446  55.1917648
  28.7275925  22.1392956   0.0270466  28.9450645  23.0678577   0.1089550
  27.9600067  22.0227795   0.5869282  69.8902130  66.3154907  57.3881607
  69.3305588  65.5755234  57.6236992  69.6787109  66.9905319  58.0330009
   1.3267014   4.1186509  32.3221130   2.0918500   4.1472998  32.8965340
   1.6917441   4.0422945  31.4405556  47.1008530  71.1066437  20.5087891
  46.6158371  71.3190613  21.3062057  47.1655655  70.1516571  20.5150356
   5.0061569  51.8772125  55.3704033   4.0568767  51.8553886  55.4913254
   5.3267231  52.4218559  56.0893135  15.0976210  42.3997536  13.5494699
  15.5001307  41.5447235  13.3973455  14.1611757  42.2144928  13.6200418
  42.7095299  69.6240616  63.4432144  42.0618629  69.0500412  63.8521881
  43.5208969  69.1163406  63.4549370  85.0133591   4.9810624  40.2988205
  85.7019577   4.3646994  40.0494957  85.4771805   5.6927643  40.7399330
  46.6949348  63.0747032  82.2357635  46.0935020  63.3745232  81.5541382
  46.5754509  63.6984749  82.9519119  10.0814629   9.9652834  17.4588070
  10.3810825  10.1546011  18.3479748   9.1360083  10.1118259  17.4883556
  65.1983871  52.2039680   7.8129845  65.3368225  52.3711929   8.7452421
  66.0776596  52.2133942   7.4348078  71.6134567  59.7408295  26.2093716
  72.1503067  59.6175117  25.4265461  71.4168320  58.8526840  26.5073032
  75.7749939  56.6674843  65.5757141  75.3436356  56.5459480  66.4215164
  76.4533081  55.9924736  65.5536041  18.6781387  53.5698242  60.3599854
  19.0030136  53.9154053  59.5285606  19.4649620  53.2851372  60.8248482
  70.2945633  59.8997459  55.4753456  69.6963043  59.3542671  54.9646873
  70.2831726  60.7478523  55.0317039   3.9066010   2.4345791  48.3574982
   4.4111705   3.1051540  47.8970985   2.9989223   2.6011624  48.1033325
  37.2546616  19.3044605  66.3999557  36.3858719  19.3043728  66.8017502
  37.2950821  20.1298695  65.9169464  56.5884666  50.5572052  85.6721191
  56.5668869  50.9701271  86.5354004  57.2662735  49.8852577  85.7448959
  55.0909004  13.8576317  69.4414978  55.2010994  14.2026262  68.5554581
  55.2913666  12.9250364  69.3620529  19.7863884  64.8913422  57.9107971
  19.4140396  65.5133286  58.5358734  19.5669804  65.2539291  57.0525322
  49.2173386  28.3673058   2.0341773  49.0442200  28.5788784   2.9515092
  50.1721001  28.3585339   1.9664625  84.0804138  37.6758270  71.6267471
  84.7522659  37.1539383  71.1880264  83.5381546  37.0328941  72.0837173
  81.9029465  70.4778671  85.0629654  82.5399628  70.9068375  84.4916306
  81.0838852  70.5006561  84.5681381   8.1840305  20.3433495  12.3427477
   8.1835871  20.5540066  11.4090157   7.2698960  20.1425362  12.5434074
  81.5126419  68.4490738  37.6075287  81.6913986  67.9186249  38.3839951
  82.2127228  69.1017609  37.5969772  72.6339493  70.0283432  48.5560760
  73.2103195  70.7219849  48.2353172  72.2097473  69.6863785  47.7690849
  54.7182999  24.0882626  66.3747330  55.3966713  23.5735531  65.9375687
  54.4976654  24.7762108  65.7468185  14.9029675  36.3915825  82.2815628
  15.4944372  35.6858063  82.5428696  14.9348640  37.0125771  83.0092850
  39.3162117   5.2510018  13.7283754  39.4868355   4.4190927  14.1700163
  40.1796608   5.6529317  13.6327848  41.1833687  56.4386787  72.4671021
  41.9310989  56.3923607  71.8712921  41.3214149  55.7175293  73.0811996
  30.3801460  52.1614609  16.0484028  30.2168064  52.8655815  16.6759109
  31.3337841  52.1213264  15.9763184  48.4609795   0.8546758  83.3262482
  48.3425484   0.0112694  83.7631378  48.6607742   1.4657811  84.0353775
  48.4224701  25.9586639  64.8608246  49.1332092  25.3231869  64.9459763
  48.3656654  26.3713741  65.7226105  12.7144909  37.5210800  36.7293701
  13.6057596  37.2573166  36.5006752  12.1964607  37.3142929  35.9514771
  80.9665146  63.9744339  28.9005337  80.8713455  63.0841675  29.2390575
  81.1051254  64.5132980  29.6794052  65.3111267   7.6561956  29.9121227
  65.3343964   8.4275789  29.3458557  65.1792908   6.9223304  29.3118763
  80.1401215   8.3756113  54.2376976  80.6182785   7.7699914  53.6712875
  80.5580673   8.2833929  55.0938835  85.3615265  48.2431488  64.9989624
  85.9448776  47.4842911  65.0073547  85.8159943  48.9004517  65.5258789
  11.3696585  19.8140354  88.1188507  10.5906935  19.4930363  88.5731659
  11.8570557  20.2935658  88.7887192  37.2404823  20.9703197  45.4517403
  37.8683395  20.2593060  45.5801315  37.7607956  21.6864605  45.0875359
  46.7266769  42.8361740  57.1482353  47.5145073  43.3300171  56.9209137
  46.0060425  43.3614311  56.8003502  73.2246552   2.6827209  51.0227013
  73.1456375   2.7228649  50.0696144  72.6111984   1.9964292  51.2852058
   5.0426211  58.1130409  50.3491135   5.9810061  57.9456863  50.2616005
   4.6805086  57.9026070  49.4884033  11.3459787  62.5622597  50.0474510
  11.4731312  61.9077339  49.3606758  11.8133173  63.3353577  49.7310028
  70.3649750  54.1427498  38.8525658  71.1386337  54.6669960  39.0595741
  70.0004044  53.9066277  39.7055397   2.0905557  44.7853432  87.5806656
   2.5688000  44.2190094  88.1862946   2.5814164  45.6070976  87.5829391
  28.3366261  53.6589394  59.7001495  27.4841347  53.3528519  60.0096664
  28.6838093  52.9263611  59.1912079  31.5303192  11.4398451  13.1468630
  30.8479481  12.0953140  13.0020828  32.3380623  11.9477758  13.2229309
  58.2827911  29.8724575  62.1850395  58.6168137  29.3799572  61.4353027
  59.0522728  30.3154716  62.5426292  72.1999969  10.8626719  53.5772629
  72.3061752  10.1458387  52.9518776  72.4041672  10.4716215  54.4267502
  81.3488007  39.4318008   4.2003169  82.1132965  38.8623886   4.2871914
  81.5132294  40.1486588   4.8129425  29.5920639  47.3747253  23.6947117
  28.7876759  46.9171524  23.9392872  29.9163761  47.7445488  24.5158596
  21.5129642  37.2335777  21.1805496  20.8412170  37.9139137  21.1344261
  22.3090954  37.6612930  20.8651657  33.3106804  29.2501907  55.3610268
  33.6599426  28.3865833  55.1409569  33.9651642  29.6311607  55.9464722
  13.7327309  44.2190552  34.6549873  14.2624722  44.9610138  34.9467163
  13.2224884  43.9712143  35.4259987  82.3125076  25.0797310  28.4739494
  83.1590271  25.4566517  28.2340221  81.9334641  25.7116547  29.0848751
  84.0992432  27.6524811  41.7866096  84.4697723  26.8270302  41.4742432
  84.7800064  28.0233212  42.3481026  19.7116566  54.2046547  84.5613708
  19.3362408  53.9876785  83.7080154  19.0563660  54.7661591  84.9755402
  55.1152649  22.0193920  20.0956726  55.9654465  21.9274025  19.6656017
  54.5117302  21.5245514  19.5414982  50.8848152  19.0554829  25.6385136
  50.5414391  19.2599316  26.5082989  51.1520462  18.1381454  25.6960545
  34.1550903  44.5451698  64.1065826  33.5268288  44.4325142  63.3932571
  33.6457367  44.9401970  64.8142090  33.7271576   6.1456914  67.6196060
  32.9735298   5.7378759  67.1930389  34.4852791   5.6916089  67.2517853
  57.9053497   7.9857683  46.7500458  58.1425705   7.0983276  46.4809570
  56.9493065   7.9746981  46.7957268   3.2364473  30.9167900  37.8011360
   3.6362150  31.5777645  38.3664055   2.4829919  31.3595810  37.4106560
   7.3759961  25.6793079  83.1066895   7.0691423  26.3727722  83.6907959
   8.3205357  25.6401825  83.2568436  77.7182083  54.5474243  26.4539013
  77.5822906  55.4195518  26.0835629  77.7707443  53.9694939  25.6926727
   3.9110930  59.4309311  79.7176666   3.2732401  58.9314880  79.2078323
   3.3825812  60.0466995  80.2253418  53.8273849  50.0747490  27.6213589
  54.4443321  50.8018990  27.5385532  53.3984947  50.0260658  26.7670078
  83.0689240  28.5966644  10.7256269  83.2117310  29.0142670  11.5750074
  83.4545517  27.7255898  10.8191433  69.3802261  24.8663979  30.6218834
  69.3385391  24.0778103  31.1628304  70.3161087  25.0461903  30.5322914
  49.2626152  45.4592705  66.7601776  48.3693047  45.3278618  66.4424362
  49.6999321  45.9363518  66.0549240  18.0748596  19.0320930  20.5958920
  18.7464657  19.2865162  21.2286987  18.1236496  18.0766048  20.5659790
  49.5248146  59.7184982  35.1837082  49.0446014  59.6003647  36.0032654
  50.2126503  60.3487778  35.3978539  49.4114876  48.9406166  40.1317062
  49.3872070  49.6952171  40.7201080  50.0278091  48.3352356  40.5438881
  70.8077164  65.7461624  70.5443420  69.9318695  66.0165939  70.2686768
  70.7414551  64.7978363  70.6562119   0.8222786  30.3291740  48.6882820
   1.7032176  30.0507641  48.9386101   0.2694796  29.5699978  48.8734703
  78.8992767  25.8456211   8.3320360  78.6656570  24.9180279   8.2970409
  79.7166061  25.9055882   7.8374567  85.6264420  65.8420563  56.5023041
  85.1206131  65.1622696  56.9475708  85.2015381  66.6614761  56.7557335
  81.4577942  22.2539444   1.5506903  81.6060181  21.9197922   2.4353406
  81.6975555  23.1792698   1.6008813  60.9114304  37.8749199  30.7971649
  61.6923790  38.4166527  30.6837006  60.6650925  37.6205711  29.9078636
  60.6378021  53.0127182  46.3315277  60.8153419  53.0594101  45.3920975
  61.4701233  52.7425232  46.7194366  32.7473068  49.9363670  81.8050995
  31.8929729  50.1619835  81.4370804  33.2085114  49.4990921  81.0893402
   9.9288645  44.9191856  59.6497650   9.7533741  45.6406136  59.0456314
  10.1725063  45.3477554  60.4702530  80.3897705  64.4346237  76.3722000
  80.8473206  64.2565155  77.1938782  80.3620987  65.3897476  76.3156357
  54.5226059  63.4470520  70.4820480  54.7551384  63.7242737  69.5958786
  53.5669289  63.3937340  70.4733047  79.7553406  69.8767319  27.0810909
  80.2378845  69.3717957  27.7356281  79.7660675  70.7737656  27.4149303
  82.8664093  34.3720970  33.5969276  83.2907257  35.1969261  33.3606186
  82.5323563  34.0285912  32.7682838  17.3763008  48.9856720  81.9360199
  17.1429806  48.7054482  82.8210449  18.1221066  49.5728340  82.0595093
  77.9339447  68.3678055   2.0799403  77.4566956  69.1727905   2.2811155
  78.6506958  68.6499481   1.5117036   8.0676947  25.4073162  49.9622192
   7.5890102  25.4097195  50.7911263   8.0236511  24.4992085  49.6628342
  55.6620789  57.2766418  16.5673141  55.1248093  57.9450684  16.9924889
  56.2334290  56.9506073  17.2626514  36.5318718  67.7214966  40.3142967
  36.7284660  68.3211060  41.0340538  35.6475334  67.4058990  40.5002327
  67.8087006  62.4115868  26.6080551  68.6040497  61.8805923  26.6493111
  67.0967712  61.7881699  26.7520485  17.1879940   9.3027182   6.4574995
  17.4623795  10.0619240   5.9431548  16.5874100   8.8283319   5.8826170
  13.8847399  38.1295624  65.4032211  14.5596609  37.5284576  65.7184677
  13.9719801  38.1091118  64.4502182  25.9737873  25.1298771  64.2310562
  26.8378887  25.1519337  64.6422424  26.1414719  25.3308258  63.3103333
  66.4168320  14.0199060  76.2891159  67.2582703  14.4517403  76.1416550
  66.4464874  13.7440510  77.2052231  56.2140961  35.9713058  27.2665920
  55.5464478  35.4202843  26.8581142  56.2112923  35.7084618  28.1869926
  83.8869400  37.2913666  41.0253372  84.3500214  36.7480621  41.6629906
  84.3465042  38.1307449  41.0472336  62.5997620  43.3028221  76.8064728
  61.9221878  43.2015495  77.4749603  63.4181213  43.1092224  77.2636795
  28.0597572  52.9985657  55.7880859  28.2902355  52.4461479  55.0411263
  27.9930325  53.8805389  55.4221573  31.6826115   1.9710056   6.0261226
  31.3575459   1.3534477   6.6812458  31.7774315   1.4479134   5.2301230
  51.7252617  50.3712158  84.1140060  51.3887520  49.9678345  83.3138275
  51.1267891  50.0768433  84.8005981  35.3626747  24.6483269  79.4052277
  36.1079941  24.0709534  79.2397919  35.4445457  24.8864708  80.3287125
  82.4304810  61.7286110  72.5613403  83.3359528  61.7514114  72.8709106
  82.4960175  61.8777046  71.6180954  57.1213608  51.0803032  12.0268364
  57.0670624  50.1479988  11.8168583  57.0604897  51.1147499  12.9814777
  58.5864182  37.0309258  73.0136871  58.1606903  36.1959610  72.8192062
  58.2675133  37.6261215  72.3352509  52.3103905  49.9259338  61.0156822
  51.3969765  50.1858177  61.1355362  52.8087959  50.5548897  61.5374451
  37.4405632  35.1764946  76.4859695  37.1532440  34.2634354  76.4843292
  37.1553497  35.5188560  75.6388092  35.0999374  47.3573647  77.8132248
  35.9856033  47.6983566  77.9379272  34.5268326  48.0817413  78.0643387
  82.5241165  32.2762337  81.4157715  83.4143677  32.0541382  81.1430740
  82.3135834  31.6332207  82.0928574  66.0915909  57.7554741  47.9452209
  65.4290314  58.4284630  48.1012268  66.6576080  58.1286888  47.2695236
  46.6742935  63.0841408  74.6082153  46.4439850  63.4364891  73.7485428
  47.5649872  63.3977814  74.7648239   6.5841746  28.4049664  16.6073723
   6.2239375  29.1185551  17.1339188   7.5327034  28.4943790  16.6997280
   9.4137669  55.6281204  48.7099419   9.4910965  55.5002594  49.6554070
   9.5370550  54.7542877  48.3391991   7.5256214  34.3317680  64.0413361
   8.1013336  33.5858994  64.2100601   7.7755876  34.9808426  64.6989441
  22.7638779   1.9232830  86.3040848  23.3251934   1.7253153  85.5544434
  23.0100861   2.8123167  86.5594864  42.2253265  48.4094658  28.3656502
  43.1735077  48.2860718  28.4099159  42.1137238  49.3399773  28.1709175
  74.2815628   7.6929021  39.0036659  75.1465378   7.3166456  39.1663857
  74.1934814   7.6875401  38.0505409  68.7566071  22.1183777  57.9875984
  67.8862152  21.8219223  57.7215729  68.8545303  21.7991962  58.8846855
  25.9237690  47.0680656  21.3843918  25.4874763  47.8665543  21.6815338
  26.3491783  46.7215195  22.1687164  76.7475433  13.5864077   8.9007339
  76.9949036  14.3542786   8.3855438  76.6541672  12.8852444   8.2558460
  57.3508682  31.9389877  17.7997055  57.1650276  31.3659058  18.5435276
  58.2558327  31.7370644  17.5620117  85.7240982  50.8425789  73.0458374
  86.2330322  50.7129555  73.8460999  85.2362671  50.0261917  72.9373550
  42.7137718  12.9950695   4.5835981  42.1323128  12.6941166   5.2818570
  43.3306732  13.5813713   5.0216761  25.7741318  52.9095955  28.3358746
  25.6333351  51.9640083  28.2882195  25.2084198  53.2002335  29.0512295
  21.4202347  66.5686569  42.2098732  22.3534470  66.7413788  42.0853233
  21.0132847  67.4350204  42.2028656  24.3276024  57.3407936  17.3669910
  25.0252113  56.8336143  17.7821331  23.5475979  56.7932434  17.4565315
  50.4503860  29.2269764  36.2589951  51.1607666  28.9711227  35.6706657
  49.8830070  29.7808151  35.7227364  23.2457218  51.7929993  41.5592804
  22.8023109  51.9483757  42.3932304  23.6895046  50.9530754  41.6768150
  78.5583954  40.8694038  55.1857605  77.6997070  41.2599945  55.3480186
  78.5255051  40.5902405  54.2707634  30.7524662   6.5531559  67.7509308
  29.8961391   6.9328594  67.5540619  30.9755192   6.9002342  68.6146545
  11.7254744  19.4775772  15.0742588  11.3608999  19.1939564  14.2358818
  11.0789938  20.0925617  15.4207964   5.4585376  45.6951904  79.1227264
   6.3029394  45.9421310  78.7455826   5.6494298  44.9195518  79.6501465
  79.6009674  67.1900635  76.1549072  79.2259903  67.4447861  76.9979630
  80.1031342  67.9554062  75.8750839  71.4771118  70.7622375   0.8969330
  71.4023361  71.5724487   0.3927569  71.1340714  70.9859772   1.7620889
  61.2921829  60.8494301  73.2569275  61.4862022  60.4155769  72.4260483
  60.4352875  60.5071449  73.5114822  80.0178070  68.6880264  51.9421120
  80.8911133  68.3008270  52.0024261  80.0631104  69.4683609  52.4946175
  81.1300507  41.4650879  72.1988831  80.7257843  41.1814728  73.0188599
  81.8867722  40.8885689  72.0929565  69.8992615  67.5914841  45.0276909
  69.7290878  67.6725464  45.9661484  69.1073761  67.9307404  44.6104927
  57.1905479  34.2401962  66.7683945  56.2698364  34.2519493  66.5069046
  57.3350449  33.3526535  67.0964584  32.8103256  62.3470497  71.9528961
  33.7348938  62.3193703  72.1991501  32.3658981  62.6884117  72.7289047
   2.7418833  40.0943756  81.3732224   2.1674531  40.8597603  81.3944244
   2.3742781  39.5379715  80.6865540   1.4579172  30.2717590  73.0053406
   2.1040323  29.6093559  72.7604141   0.6457008  29.9782486  72.5925598
  78.1157532   4.4404197  37.8522911  77.5214005   3.7038603  37.7092628
  78.7369080   4.3915567  37.1256485  66.0536957  64.8009109  20.5798397
  65.7751389  65.6647339  20.8838844  65.8783340  64.8101501  19.6388855
  22.2276516  35.7151070  44.8097153  21.7788582  36.1809464  45.5152740
  22.6347313  36.4062576  44.2873878  74.1675491   2.4306536  32.3541679
  74.1645508   3.0654144  31.6377182  74.8392258   1.7947028  32.1079178
  42.3801498  63.6743507  39.8058777  42.4418564  63.1128693  39.0331154
  43.2613831  64.0324554  39.9127274  52.1737328  22.8917694  85.7897949
  52.2942657  22.4494953  86.6300888  52.4531479  22.2485352  85.1383286
  79.4827042  54.5790672  18.6340714  79.4232025  54.7693024  17.6978550
  79.6200409  53.6327896  18.6779423  51.7659035  56.8002319  12.3332329
  52.2454300  57.6142464  12.4870586  51.6489563  56.4227333  13.2050428
   2.2788265  14.3052835  58.3806534   2.6031847  14.9837589  57.7884560
   1.9827771  13.6032104  57.8012733  65.8112411  58.4251595  82.7354507
  65.7515945  58.0536041  83.6155701  65.3641663  57.7896996  82.1763916
  77.6202393  69.6489105  10.9169207  78.0118179  69.8159866  10.0596066
  76.8020782  69.1920776  10.7216167  23.7317753   9.7599125  26.0118523
  24.1379509   8.9904099  26.4107494  23.9520931  10.4802780  26.6024170
  85.1821365  44.0595322  79.9099579  85.3277054  44.3400421  80.8134842
  85.4591370  43.1433945  79.8960114  51.4612350  14.6638756  65.1410141
  52.2406006  14.2039881  65.4529800  50.8223381  14.5577955  65.8458481
  54.0791130  11.0745792  28.5181541  53.3564301  10.8075771  27.9501133
  54.1136398  12.0270958  28.4301090  48.4818306   4.3818531  65.4246597
  48.4333534   3.4736116  65.7229538  49.1571312   4.3754411  64.7463074
  56.0861893  17.5557919  57.8041267  55.3737679  17.0263844  57.4457741
  56.4755859  17.9817467  57.0404739  46.1080818  27.4270458  38.3508224
  45.5888367  27.3454914  39.1508026  45.6902618  28.1385212  37.8655777
  57.0833168   1.2032280  12.1685486  56.6801872   1.7725947  12.8239412
  56.9990845   0.3219498  12.5325346  47.0061455  10.6381493  86.7777176
  47.2071190  11.1327572  85.9832382  46.0664787  10.7657452  86.9080200
   5.9911032  31.6262550  65.2136154   6.0652542  30.6844254  65.0597000
   6.5945067  31.7990799  65.9362946  50.7403374  52.1739502  54.4927597
  50.5461998  51.8524513  53.6123161  50.3800888  53.0606270  54.5088081
  65.0911407  14.7586775  28.1350060  64.8707962  15.6420975  27.8396263
  65.7972717  14.4802942  27.5518131   4.4602361  65.1077271  24.7007008
   5.3004332  65.0076752  24.2531624   4.1060920  65.9308395  24.3640900
   5.2246985  44.4913139  21.8271999   5.5680423  44.2423019  20.9690971
   4.2831197  44.3310547  21.7641335  47.1237450  29.0430794  80.5050583
  47.2770386  29.9783268  80.6393890  47.9864235  28.6871204  80.2921982
  47.0370827  12.6546764  59.4354248  46.3495216  12.4897757  58.7902145
  47.8121300  12.8596706  58.9124413  14.3014803  21.7991123  53.2219124
  14.9569530  21.3215370  53.7303543  13.5836620  21.9489536  53.8371506
  12.6231737  64.1913071  13.5223026  13.3540678  64.4855881  14.0658312
  12.6496887  64.7632141  12.7551975   9.7776423  44.8719521  33.9886284
   9.8163977  45.4284325  33.2107697   9.0107489  44.3166962  33.8479233
   7.6352067  10.2072306   1.9585665   6.9302363  10.8457584   2.0659459
   8.4385023  10.7205544   2.0448651  22.2084064  38.8677711  80.6113052
  22.2193470  39.8249054  80.6134949  22.8045769  38.6198120  81.3179398
  73.0687790  38.2552567  30.6378498  73.7206421  38.8331184  30.2411346
  72.9994659  37.5192604  30.0297909  12.3423786  45.1648445  88.4776611
  13.2870035  45.0917168  88.3414001  12.0716190  45.8785515  87.9001312
  79.5945053  51.4662323  78.1291809  79.5522385  50.9858780  77.3023148
  80.5224991  51.6739197  78.2383575  17.4354420   1.2650026  69.3148346
  17.9825897   0.8077804  69.9534378  16.8881512   1.8473488  69.8416901
  46.8570328  32.1842308  76.6240387  46.1523933  32.7127724  76.2493973
  47.6258698  32.4019165  76.0970306  46.4980583  19.6356201  60.7299423
  46.9588623  20.0681992  61.4488068  46.6340485  20.2113285  59.9774132
   0.7426506  65.9578400  88.3717651   0.8792754  66.0171738  89.3172989
   1.4527186  65.3956375  88.0619736  24.2641258  67.7014389  71.5460205
  23.5995846  67.7626724  70.8598251  23.8517570  67.1773758  72.2327118
  72.7002716   6.7527323  34.5717125  72.3031311   5.9263215  34.2968330
  72.7213440   7.2846308  33.7761803  37.2788506  30.9107380  59.6604004
  37.9169998  31.2828999  60.2690811  37.6649818  31.0475311  58.7952843
   8.0254126  37.7049141  17.2761440   7.2814226  37.9084396  17.8429661
   7.6286287  37.4304352  16.4494305  24.0631561  38.2650871  46.4813614
  24.4895859  37.4728355  46.1546669  24.7823238  38.8093109  46.8020668
  63.9110031  18.8103943  88.6439972  63.1620331  18.8520412  89.2385941
  63.5670128  19.1138382  87.8038635  18.6463947  23.0239754   1.3984375
  17.8946667  23.4460258   0.9824934  19.0530701  23.7173214   1.9181675
  44.1837349  65.1948929   0.9498343  43.3642159  64.8604660   0.5854477
  44.1354752  64.9829788   1.8820338  23.1867409  40.7125053  63.6701164
  22.2979774  40.4547958  63.4253349  23.7433987  40.3225670  62.9960861
  51.7856293  38.3464661  82.3840179  51.0451508  37.9025841  81.9706268
  52.5412674  37.7975121  82.1745224  32.2148209   6.5356693  18.8741493
  33.0122566   6.0463133  19.0762882  32.2867241   7.3361130  19.3941021
  80.4698563  35.3467789  69.3746338  81.3100281  34.9619026  69.6240768
  79.8185196  34.7070770  69.6623383  15.0979958  65.7426376  71.4381714
  14.4879522  66.4575348  71.6198349  14.7503986  64.9998779  71.9318542
  68.6683655  43.8540611  12.5945635  68.8519974  43.2686577  13.3292856
  67.7672348  44.1431732  12.7381048  41.6061478  50.7386971  64.4983292
  41.2304268  51.5743217  64.2211990  41.9401245  50.9067383  65.3794937
  86.2231293  28.9952297  71.7397690  85.4507675  29.4266148  71.3742752
  86.3782578  28.2499104  71.1595383  10.4588280  42.3083534  44.0831985
   9.5085659  42.1963196  44.1093254  10.7841177  41.5021973  43.6825333
  16.6070328  49.0468521  19.1331406  16.1013012  49.7100792  19.6028175
  16.0603065  48.2617989  19.1648903  22.9105072  33.5697174  46.6727791
  22.3725452  33.9806252  45.9960365  23.3702965  34.2989235  47.0888138
   0.5947287   7.0430689  16.7963409   0.1073849   6.9215927  15.9814968
  -0.0568925   6.9174271  17.4861507  10.8971033   9.6549902  10.4092979
  10.6086197   9.8498764  11.3009415  11.4596291   8.8861208  10.5022278
  49.7975082  37.5582008  15.5096731  50.0140724  38.4541702  15.2516546
  50.6428528  37.1117020  15.5572605  59.9058609  10.2102413  46.4094810
  60.4196281  10.2811022  45.6049614  59.1917458   9.6133661  46.1858406
  11.9825153  53.0059776  58.8878860  11.8370600  52.6300201  58.0197105
  12.5758801  53.7411804  58.7341690  10.7756710  37.9709854  56.4848671
  10.0132065  38.5433311  56.5703087  10.4152346  37.1339607  56.1921082
  63.8085403  70.7288666  40.6443634  64.3731003  71.3160172  41.1471176
  64.0838928  70.8515625  39.7358704  38.9277382  35.7839966  71.4293671
  39.0491791  36.3754120  70.6865921  39.4019241  36.2018394  72.1482468
  36.0553894  20.7936039  72.5366745  35.4940796  21.4508476  72.9480057
  36.0644608  21.0325871  71.6098328  67.4851990  24.4227104  73.6077499
  67.1232605  23.8429909  72.9375534  66.9285278  24.2806263  74.3733597
  77.1147385  59.2919540  67.4629440  77.5009766  58.5962639  67.9949722
  76.3425674  59.5696716  67.9557495  30.1461639  60.2406311  60.7779961
  30.7336426  60.1430817  60.0286064  29.6847916  61.0633392  60.6151390
  82.5913162  39.5664673  83.6519775  83.3288879  39.3742599  83.0729446
  82.9197311  39.3738480  84.5301971  51.7137985   9.8710032  38.6424751
  52.4158707   9.7569160  38.0019188  50.9382172   9.5076933  38.2150269
  65.3259201  20.6376228  25.9134674  65.3221817  21.3149700  25.2371387
  66.1553040  20.7639122  26.3743382  54.2079124  27.3263168  32.7535553
  53.7034264  26.7194862  32.2118149  54.2694321  28.1231937  32.2268333
  36.3953857  69.0143814  87.0916214  36.3748474  69.5169830  87.9059906
  37.2901306  68.6782074  87.0401382  71.9101105   0.7106447  83.9179993
  71.8426895   0.0359816  84.5936584  72.6036453   1.2925204  84.2289124
  22.4984531  22.4094086  77.5634766  22.8191872  22.7721615  76.7377777
  22.1404877  21.5539436  77.3262482  12.7968702  53.5274429  75.5374374
  13.5448914  53.4124374  76.1235046  12.0352669  53.5218925  76.1172333
  41.6042976   4.3540816  23.1619396  42.2394218   4.2690072  23.8730030
  40.7780495   4.0553122  23.5417824   0.2740163  48.3119278  81.4332123
   0.4686417  47.5480003  81.9761353   0.5274279  49.0604553  81.9733276
  45.8105469  36.3083954   0.1869983  45.5448227  36.4630928   1.0934701
  45.2877083  36.9258041  -0.3245480  72.0450974  56.2717590  39.1236267
  72.9727859  56.2508659  38.8887215  71.6150894  56.6685867  38.3660965
  19.9068260  41.3269234  40.5042458  19.0193176  41.0765915  40.2475395
  19.7911758  42.1267586  41.0171967  -0.0268903  21.1413231  87.9758835
   0.8983221  21.2206478  88.2080917  -0.3565467  22.0397587  87.9951477
  12.2223091  35.7493744  81.6355362  13.0654259  36.1954613  81.7154999
  12.0496740  35.7304573  80.6942215  73.2324600  18.8373623  60.3238907
  73.1166077  18.7606144  61.2709503  72.7133331  19.6038265  60.0804253
  84.8453217  28.4103889  27.1218853  85.7228851  28.7872524  27.0579586
  84.9635925  27.6146011  27.6405029  54.2508163   2.9179084  86.1666946
  53.5811691   2.9828358  86.8475647  53.9194183   2.2487259  85.5678558
  10.6805487  49.3155937  31.4676056  11.0171614  49.9818001  32.0668488
  11.0220594  48.4899750  31.8110600  25.4043236  62.7759056  22.2621403
  25.9503021  62.6964149  21.4799519  24.5728016  63.1233482  21.9395180
  10.1470222  31.1071777  73.9995651   9.3916578  30.5221024  73.9417419
  10.6023149  30.9936714  73.1652603  77.6058731  39.6234398  21.7986736
  78.2086716  39.3540535  21.1056366  76.7744904  39.7726097  21.3483658
  14.2104950  60.3423615  75.0714645  13.8278246  60.0650368  75.9038620
  15.1545029  60.2478294  75.1985245  49.1574860  51.9400215   8.7351437
  49.5326691  51.0836182   8.5301132  48.2123413  51.8136406   8.6517096
   2.3640997  43.3839836  27.1144447   2.9446335  44.0805969  27.4209442
   2.9512317  42.6573296  26.9059105  47.7190971  34.3161888  35.4436989
  46.9679565  34.3124161  34.8503990  47.9476471  35.2412186  35.5348816
  48.5830803  23.2235413  87.8799591  49.0479431  22.5124683  88.3209915
  48.4417534  23.8779011  88.5641174  76.7568588  14.6092854  64.9799881
  76.3738251  13.8651447  65.4445038  77.6845856  14.5862732  65.2145691
  77.6317215  11.5579290  59.4382629  76.9538803  10.9294567  59.1896896
  78.3619843  11.3680325  58.8492966  27.2424736  43.7589111  56.3920288
  28.1310501  43.5233688  56.1252251  27.3165550  43.9534187  57.3263245
  62.9010201  61.6518211  69.1037369  61.9734764  61.5322838  69.3077087
  63.1055984  60.9425545  68.4943771  65.6979980  49.4768410  48.0818481
  65.3675232  49.4508324  47.1838837  64.9351807  49.7095757  48.6111565
  86.4943008   8.3359289  76.6327972  85.9176025   7.7940578  76.0942612
  87.1228638   8.7060423  76.0130005  10.8309650  69.7245255   3.0536633
  10.5579214  70.0562592   3.9090180  10.1165447  69.1488495   2.7808437
   2.0103462  47.5118561  84.5145950   2.3522625  47.7412529  85.3787155
   1.1534429  47.1236687  84.6913986  35.7735939  24.3628902   0.7162805
  35.2097244  23.9353142   1.3608418  36.3997269  24.8628216   1.2399791
  13.0688152  34.5043716  22.0180435  13.7095671  34.4887924  21.3071098
  13.3151083  33.7686234  22.5786228  22.4017620  27.3103447  17.8745480
  21.8218517  27.5409489  18.6003284  22.3357620  26.3577003  17.8086166
  47.4278755  14.6200895  23.5483150  46.9877777  14.8185740  24.3748436
  46.7921143  14.0994301  23.0574474  34.2248459  70.4786987  20.5667191
  34.2221718  69.5261154  20.6605148  33.4150925  70.7633667  20.9903965
  73.3673172  33.0999565  54.3290672  74.0506287  33.6678734  54.6851463
  72.5505066  33.4671555  54.6670189  25.9924984  19.4395752   8.7575588
  25.9892082  20.1635761   8.1314230  26.3817368  18.7090187   8.2769222
  45.3431358   6.8709369  84.9676590  45.5906982   7.7779026  84.7877731
  44.4143677   6.9166965  85.1946640  48.4792900  38.6129990  24.2641239
  48.1499100  37.7656631  23.9645233  47.6915588  39.1250076  24.4473114
  10.1533909  25.4086246   2.4433379   9.6322269  26.1385155   2.1088514
   9.6002302  25.0064545   3.1130414  44.5003662  28.9555779  85.1803894
  44.5690804  28.8577938  86.1300964  44.5405731  28.0603714  84.8439102
   8.6710339  28.1269283  85.6844635   9.6200485  28.1315632  85.5596390
   8.5544882  28.0748615  86.6331100   5.8800640  24.4292088  21.4055710
   6.0911541  24.9113312  22.2050896   6.5948610  24.6380444  20.8041687
  15.2478018   4.8319740  78.1601181  15.0591640   5.6620803  77.7224274
  16.1594200   4.9110804  78.4410477  42.9051552  41.4778976  20.0108643
  42.8861084  42.4301147  19.9151993  43.7864876  41.2269707  19.7342358
  68.8483276  37.3923149  81.1994553  67.9033813  37.5448456  81.2059250
  69.2210464  38.1816597  81.5921936  53.2645950  68.1459351  82.7092743
  52.7920113  67.5473251  83.2876892  54.1208954  67.7357254  82.5879974
  80.8091507   1.8342576  10.6192427  79.8863831   2.0634809  10.5088568
  80.7984772   0.9088798  10.8637705  59.5415497  48.4402733  45.6619644
  59.8551254  48.9077225  44.8877602  59.3082504  47.5702057  45.3382607
  18.3649044  59.3768234   2.8583610  18.5688438  60.2276649   2.4701517
  19.1356354  58.8393440   2.6758127  78.0877838  43.6462479  21.1697235
  78.1695175  42.9603500  21.8323650  77.1499634  43.6880646  20.9827061
   2.0414588  16.9391327  48.1632881   1.1318849  17.2219143  48.0687256
   2.5550756  17.7356930  48.0294113  54.3636932  46.6460533  38.1410217
  53.9659576  47.4677048  38.4289970  53.6249466  46.1113777  37.8501434
  48.2648506  54.3397064  50.8472214  47.9192123  53.4471092  50.8415565
  49.1653824  54.2498245  50.5354576   9.4308672  30.6445408  76.7994232
   9.1056337  31.1222134  77.5625000   9.4296980  31.2911968  76.0936890
  63.8677368  23.9333286  77.2894821  63.7205238  24.7344379  77.7922592
  63.6391258  24.1693687  76.3904495  31.5215187  33.7313385  75.0265198
  31.2255325  34.0594978  74.1774368  32.3199196  34.2265778  75.2096100
  46.4455757  64.4078293  84.7806244  45.7119102  64.8261261  85.2311630
  47.2240372  64.7629700  85.2096863  44.1115761  37.9432640  45.5722122
  44.0981178  38.5866737  46.2807846  43.2573280  37.5142899  45.6219597
  76.4722366  68.0517044  46.4034882  77.3156586  67.8778687  45.9855652
  75.8260880  67.8859024  45.7170258  65.0020218   4.7529178  24.0255489
  64.6221313   4.6399593  23.1542511  64.9010239   5.6863966  24.2116909
   4.2117672  32.7071342  39.5886612   3.4017289  33.1491013  39.8430939
   4.7329054  32.6815720  40.3911552  34.5370178   8.9392271  66.9278412
  34.6936150   8.1138067  67.3865204  33.6539116   8.8502827  66.5694580
  83.5836792  69.3754349  54.7848778  83.3622360  70.2684097  55.0490608
  83.0067902  68.8203888  55.3096199  50.2312889  45.1645927  82.3380203
  49.7096214  44.4342003  82.0054169  51.0930443  45.0447006  81.9389725
  85.2329788  18.7292957  21.4156017  84.9507904  17.8323040  21.5945148
  85.5038452  18.7165718  20.4976139  32.5615158  12.5377750   4.5807481
  32.8610344  12.6637383   3.6803849  33.3409653  12.2466059   5.0539389
  83.2973938   0.5193721  55.2423859  83.8637695   0.6127884  54.4764061
  83.9009094   0.4948565  55.9849472  66.3359528  49.7815132  41.9641190
  67.2656021  49.9417267  41.8019218  66.0137711  50.6006889  42.3401299
   2.1491525  51.3069000  33.0343475   1.2961940  51.3368034  32.6009903
   2.7819417  51.2860451  32.3164520  33.8438835  41.7707367  83.5771637
  34.4143257  41.8934021  82.8183594  34.4405212  41.7565308  84.3255310
  51.9522285  57.0471611  57.4055443  52.3560905  57.4902039  58.1517601
  52.6766472  56.5915451  56.9767570  13.0191708  40.8289642  74.5614014
  12.9502878  40.7327271  75.5112534  12.7133904  39.9914932  74.2130127
  61.5679207  17.8069096  65.2421417  61.5278702  17.0423183  64.6676559
  62.4935112  17.8844852  65.4734344  83.8001022  26.2795887  59.8310471
  84.2872620  27.1033344  59.8122330  82.9417801  26.5168934  60.1820564
  62.6066475  19.2212505  71.0142975  63.1723213  18.4857788  71.2495193
  63.0421143  19.6283875  70.2654037  83.3290253  63.0048141   0.0188994
  83.9193420  63.6256218  -0.4081380  83.8561096  62.6135368   0.7155486
  46.0160484   5.4544048  76.7380142  46.1690750   6.3933587  76.8437500
  46.7090683   5.0394578  77.2516022  37.6118279  13.7299128  82.6555252
  38.0042763  14.1997318  81.9196701  36.6685143  13.8320255  82.5291901
  61.7755318  63.2348709  24.2815037  62.3691711  63.1701584  23.5334148
  62.3130493  62.9923515  25.0354881  79.4666519  11.0552807  56.5008087
  79.7402496  11.1288090  55.5864944  79.8084869  11.8463449  56.9174576
  77.9046173  42.0740929  43.9830894  77.9197083  42.6903687  44.7153549
  77.5985489  42.5932236  43.2394104  64.0254669  26.5181866  57.6974449
  64.4845428  25.7341518  57.3961639  64.1586151  27.1574936  56.9975967
  36.7312164  41.2969170   4.8898492  36.4502068  40.3997993   4.7097244
  37.4800339  41.4343987   4.3096719  50.4923401   3.0109689  14.3803024
  50.5342865   2.9195514  15.3322029  49.5825996   3.2496781  14.2024727
  23.6797581  50.3071976  31.3713646  22.9121189  50.6415939  31.8351955
  23.5389309  50.5628128  30.4597378  12.1263380  47.3702927  32.8048210
  12.7385597  48.1004944  32.8954926  12.5828810  46.7431831  32.2439842
   6.8882914  20.5666084  88.7391281   6.7774744  20.5039921  89.6878204
   6.5488329  19.7371120  88.4030685  20.8254089  23.0409908  29.2042866
  20.7294827  23.5790901  28.4184895  19.9402618  22.7269726  29.3890629
  80.1671295  13.4630184   7.2500324  79.3018875  13.6021719   7.6350322
  80.1540527  13.9737463   6.4405770  51.7918205  70.3932495  33.3304977
  52.3098679  70.0996857  34.0799522  52.0748100  71.2955933  33.1824303
   7.3593221  62.5776711  87.5604935   6.4513760  62.2958832  87.6721191
   7.5096092  63.1917534  88.2792053  82.7302856  58.4883919  22.3649063
  82.4114227  59.3494987  22.6352005  83.0792847  58.6277199  21.4845543
  43.4821472  59.8895340  63.1186066  43.2451706  60.5501175  63.7695351
  44.2363091  60.2626762  62.6622810  63.4945068   3.2933280  39.4702950
  62.5927773   3.2404473  39.7870331  63.5431519   4.1399322  39.0263062
  21.5097618  51.6794701  58.0672646  21.1633377  51.9527550  58.9166985
  21.5277538  52.4823456  57.5463982  50.4853630  30.0357971  20.5511227
  49.9049301  29.4839840  20.0268764  50.2604256  30.9304657  20.2957687
   6.0735254  39.8835411  52.1044197   5.3514018  40.1886024  52.6537018
   6.5478830  39.2615547  52.6561012  80.8823471   4.8350115  30.5853729
  81.1067123   5.5223951  29.9581585  80.1225204   5.1784182  31.0554466
  73.9955750  11.3616533  36.8414230  74.3549881  12.2324362  37.0111122
  74.7644424  10.7989950  36.7492332  53.2478409  15.7349224  34.8484268
  53.9216003  16.2758656  34.4365349  52.5888824  15.6116238  34.1651993
  85.9151382  50.3408051  75.8631668  85.9782944  50.5482826  76.7954788
  86.1951447  49.4275551  75.8015289  74.2744751  42.1729317   6.7987795
  74.3381119  42.7963600   7.5223246  74.1886292  42.7200470   6.0180588
  49.7302055  56.5390549  79.9749985  49.4768181  55.6433907  80.1981812
  49.5381012  56.6165047  79.0404739  76.2954254   8.1600227   7.9140692
  76.8609161   8.1639118   8.6863594  76.8535004   7.8292603   7.2102370
  78.5507431   8.2977877   9.5810413  78.2448349   8.9830160  10.1752758
  78.8776779   7.6081619  10.1587629  33.7085762  32.9101105  67.9161072
  34.1884003  32.5269127  68.6503830  34.3773575  33.3651009  67.4043045
  77.9897156   4.3142886  52.2257767  78.3446045   4.2367558  51.3401833
  77.2137985   4.8657579  52.1254349  32.3347397  18.7469559   4.1795096
  32.1971664  19.6384068   4.4998560  31.9302750  18.1887188   4.8435969
  33.6628380  71.4046860  88.1838455  33.9073448  71.1052246  87.3081970
  34.4589958  71.8077316  88.5301361  19.6361237   4.9934020   3.2797155
  19.0368900   5.5019951   2.7333772  19.0634041   4.4656010   3.8361778
  60.7469330   9.1140318  75.3127136  60.1168365   9.7988253  75.0885010
  61.5445709   9.3597269  74.8440628   6.1352940  18.6887856  86.3715515
   7.0910597  18.6662292  86.4188232   5.8865967  17.7979546  86.1249695
  24.4904747  54.2030678  52.5272293  23.7692280  54.8312263  52.4891357
  25.2674675  54.7397232  52.6837997  42.7095032  51.8785362  72.5572052
  42.1070862  52.0491142  71.8331680  43.0808792  51.0181503  72.3621521
   6.3408337  60.0218887  48.0386314   6.4798164  60.2978210  48.9445992
   5.4055657  59.8242302  47.9892540  12.2671261   5.8566475   3.7281749
  11.9862223   6.7594910   3.8771651  12.2479153   5.4535065   4.5961266
  74.3556519  18.4536037  82.2475891  74.0670319  18.2755814  83.1427078
  75.3039246  18.5627594  82.3189316  51.0367088  12.4340935  11.2523212
  51.1870651  11.8350687  11.9836168  51.8873024  12.8464422  11.1017036
  71.0530396  23.0424290  48.8146935  71.7945862  23.5767994  49.0989380
  71.1120377  22.2486935  49.3464203  84.3645630  46.1493797  56.5133743
  84.5970764  45.9684143  57.4240990  83.4975357  45.7584610  56.4053154
  52.6241455  58.3273468  36.3470535  52.7530022  58.4338837  37.2895355
  51.7522469  58.6863937  36.1824188  50.4172440  41.5875130   4.6592498
  49.8457680  41.4263420   5.4100289  51.2934914  41.3636894   4.9728184
  22.9662876  55.2409554  33.2544861  22.8346863  56.0684090  32.7916374
  22.4398041  55.3248444  34.0494766  53.3110123  64.5699463  85.7589951
  53.4549141  64.7172623  84.8242111  54.0926514  64.1006546  86.0506134
   9.7769728  67.8110962  68.7671280  10.6297216  68.2423172  68.7114182
   9.3300676  68.2562180  69.4871063  49.1430359  59.7288742  24.9418545
  50.0993347  59.7016830  24.9105625  48.8850784  60.0725136  24.0865154
   3.1362731  52.4318123  76.1518936   2.2668171  52.7478752  76.3976212
   3.4123600  53.0153847  75.4451752  11.7284002  38.3302727  69.0239639
  11.5469131  38.9356155  69.7428894  11.9349337  37.5011292  69.4553604
  72.0096970  17.3311958  28.9409256  71.8494797  18.2593727  29.1113701
  71.3876953  16.8730392  29.5061188  60.2930145  50.6715813  67.4414139
  59.5644035  50.2509956  67.8979950  61.0746765  50.3510590  67.8914185
   2.1888037  34.8319931  27.4266262   2.2786539  35.6982117  27.8239040
   1.4320886  34.4442062  27.8662128  68.1989822  18.2228699  75.6390305
  67.8149948  18.5346088  76.4585495  68.8943558  18.8516693  75.4459076
  46.7604561  49.5049744  72.4186401  47.6996689  49.6884270  72.4400330
  46.3707581  50.2942505  72.0425949  43.7054672   8.4920368  63.8078728
  42.9805565   8.9486141  63.3809433  43.5801620   7.5723290  63.5740585
  75.1833878  26.3141098  62.5820198  75.7803955  26.0117359  63.2664070
  74.8575211  27.1550217  62.9028168  27.8950863  53.9403648  17.4968643
  27.9481831  53.1294174  18.0026093  26.9581280  54.0704536  17.3505135
  17.2856312  32.3252029   4.7510347  17.5167408  31.6341114   4.1303797
  17.1501312  31.8668327   5.5803528   2.1153977  20.2725582   8.5814304
   2.7287965  19.9278564   9.2303953   1.7477973  21.0554829   8.9914675
  16.9318867  42.6252327  19.9222126  16.0376568  42.2887688  19.9803104
  17.0097618  42.9444046  19.0231590   5.8228688  49.8244095  11.6794157
   5.9820528  48.8982620  11.8614616   6.6583986  50.1496849  11.3442764
  18.7989883  38.5455513  19.3733120  18.4712601  37.6463394  19.3575249
  18.3242607  38.9608879  20.0932808  31.8832531  36.1887627  43.8404007
  31.6038113  36.5960922  43.0205078  32.6048698  35.6127777  43.5879211
  10.9847059  32.4833832  88.7566833  11.7658510  32.4228401  89.3065720
  11.1982040  31.9668560  87.9796066  36.8040619  58.6907845  54.5640182
  37.5842247  58.7988281  55.1079903  37.0486031  58.0216331  53.9247513
   2.5818472  57.6516762  65.1791382   2.7430034  58.5657997  65.4128876
   1.8972613  57.6923218  64.5113678  30.7545757  45.6715126   2.0648429
  30.3855877  45.9579659   1.2293649  30.5768642  46.3950386   2.6658063
  53.3198013  61.9991341   4.6304965  53.6856689  61.2537727   5.1067410
  52.7510033  62.4336052   5.2660565  42.6705704  50.8475418  12.0415745
  41.8516006  50.4189987  12.2903185  42.5994873  50.9687881  11.0947495
  69.8259277  33.9327850  35.9821320  70.3259735  33.6692696  35.2096367
  69.8137589  34.8891792  35.9447861  76.7341537  32.0583344  62.7781448
  75.8473129  31.7549267  62.9722557  76.6928177  33.0078049  62.8922768
  47.2609215  49.2705803  42.6708984  47.2448120  50.1446342  43.0607681
  48.0157433  49.2846756  42.0824471  46.2476921  30.5849571  32.8033867
  46.5480042  29.6846390  32.6790047  47.0401802  31.1153774  32.7206306
  35.0306549  22.8818760  12.9161053  34.6696510  23.6553802  13.3492327
  35.7368851  23.2225189  12.3670788  59.0256157  28.2161846  60.2544861
  59.2327423  27.3890171  60.6893730  58.1657829  28.0705776  59.8598785
  82.8980637  50.6778183  24.9496307  83.1404037  51.5908051  24.7948380
  83.3339920  50.1922646  24.2493191  77.5739746  35.1712036  74.9303360
  77.2646027  34.8162346  74.0969543  77.8952103  34.4083748  75.4111023
  12.7263298  69.7096558  76.8319778  13.1407051  69.4913254  77.6667633
  11.7872467  69.6580658  77.0100021  64.8288422  12.1219072  10.2265711
  63.9811745  11.6788321  10.1895370  65.0557404  12.2818203   9.3105049
   5.4361491  66.1281433  41.7067680   6.3335314  65.7953491  41.6931229
   5.4096298  66.7744522  41.0012131  54.9530373  49.5546684   2.7602098
  54.9520226  49.5996170   3.7163532  54.0628662  49.2867432   2.5320828
  84.5319748  41.9259415  15.7622080  84.8945160  41.4369469  16.5009117
  84.4240036  41.2717781  15.0718126   4.3737969  39.0896454  75.3183517
   3.6812034  39.0251427  75.9759140   4.0049405  39.6507988  74.6362381
  12.2923584  28.0564098   0.8379199  11.5591402  27.5148354   0.5458234
  12.7221222  28.3341866   0.0289855  28.5249672  32.4935608  88.9532166
  29.2974796  33.0568657  88.9069519  28.8774529  31.6146393  89.0928116
  64.2438202  15.0476637  67.0299530  63.7372437  14.2422800  66.9252090
  63.6995239  15.6019430  67.5891953  85.6052628  41.7259445  38.7566566
  84.7621078  42.1014557  38.5030441  85.8226929  41.1233063  38.0454712
  23.9690151  15.1211147   7.3309159  24.0319710  14.6692591   8.1723995
  24.1594925  14.4446888   6.6809940  37.1648903  66.5097580  56.3243294
  37.0692978  67.4550629  56.4404716  38.1092415  66.3717422  56.2509460
  42.7441864  61.1538582  55.8474846  43.3864708  61.2710953  55.1475143
  41.9545212  60.8504333  55.3996048   1.7117615  36.3546333  53.1762085
   1.2034310  36.1517143  52.3909340   1.1385095  36.1096153  53.9025536
  36.4260635  57.6083755  13.3659296  37.2311287  57.7464256  13.8649712
  36.3915100  56.6623917  13.2239552  71.7119293  64.2324600   2.5525539
  71.9326096  64.4502716   1.6469654  72.5557480  64.0579071   2.9693637
  29.9043503   7.7226615  17.8519001  30.5359478   7.2432733  18.3880920
  29.1891422   7.1020765  17.7119560  37.7287407  49.3641891  72.2548447
  36.9987068  48.8187714  72.5477676  37.4791946  49.6458702  71.3747253
  37.9755898   3.0616832  44.2879944  37.8213654   3.7346966  43.6250458
  38.9000549   3.1581354  44.5166702   3.4234443  68.2670517  55.8077240
   4.0812407  68.8302536  56.2155685   2.6031888  68.5050507  56.2398872
  11.7554150  30.0773087   7.2170544  10.9489498  30.2861137   7.6884832
  12.2755842  29.5740738   7.8434820  44.9794540  56.4236832  74.6241379
  44.1162376  56.6175766  74.9895020  45.1711235  57.1684761  74.0542450
  10.4132538  54.0121651  66.8995743  10.3507433  54.8305168  67.3921432
  10.7595596  53.3796158  67.5290070  74.5837097   2.2481709  84.9425278
  74.3981857   1.6272011  85.6469498  75.0068893   1.7216325  84.2643585
  10.9708471  49.3390884  19.5073414  11.8727827  49.5856285  19.7121887
  10.4780884  50.1570549  19.5733166  29.8731384  65.5413055  32.5656929
  29.3720417  65.4801788  31.7524300  29.2767906  65.2149734  33.2395668
  12.0244780  36.7079163   4.6342607  12.8492079  37.1937675   4.6357174
  11.5270491  37.0826073   3.9073467  11.1659060  46.4994316  55.5023003
  11.6969852  46.7790680  56.2479477  11.2872162  45.5507126  55.4642296
  16.7173424  45.5221901  32.6620636  17.1876698  45.2064590  33.4336433
  17.3725643  46.0135422  32.1665916  82.2492599  11.9827967  51.4038277
  82.1803131  11.1260738  50.9825172  83.0560379  11.9333239  51.9165573
   1.8231510  26.5150166  74.0040207   1.2994950  27.2541332  74.3134155
   2.1933653  26.1338539  74.8001938  33.6886864  47.3316841  45.4217987
  33.2731667  47.1885414  46.2721443  34.5704651  46.9731979  45.5227280
  46.8136330   5.9534144  28.7909431  46.9086227   5.8563385  29.7384586
  47.3055840   5.2186675  28.4243870  69.8944321  55.6197472  14.9599648
  70.0860367  56.5570107  14.9274197  70.1650391  55.3502998  15.8376923
  30.3861198  53.5886421  56.9417877  29.6919575  53.6985626  56.2919540
  30.7941570  52.7523880  56.7172585  28.2731819  51.1551971  17.5020161
  28.8607311  51.5623665  16.8654385  27.4001923  51.2606468  17.1238575
  78.2987213  27.2324600  10.6632442  78.8785095  26.7706585  10.0575905
  78.2570953  26.6660900  11.4337807  34.9805946  40.3122520  42.0167732
  34.4964714  41.0982666  41.7637177  35.7744217  40.6444626  42.4359398
  52.9915581  15.0297079  61.4906883  52.1110077  14.6587687  61.4335442
  53.0601807  15.6025286  60.7268829   2.3859878  42.9211960  49.2818489
   1.7105168  43.5540390  49.5257378   3.1122129  43.1043587  49.8779030
  24.9009132  27.7721462  73.5503464  24.1121120  27.2614136  73.7324905
  24.5869884  28.5298672  73.0568466  76.6465302  14.7830324  25.5029030
  75.9389648  15.2321529  25.0404377  76.9352875  14.1019726  24.8954411
   1.2531000  18.1945324  14.9664412   1.9514217  17.6963844  14.5416737
   1.7063032  18.9106846  15.4113731  16.5753613  28.7816868   1.2560027
  17.3134937  28.1810074   1.1531502  16.0362549  28.6339321   0.4789801
  49.5862198  21.0137405  11.1227875  49.5694275  20.1021519  10.8313179
  49.5425224  20.9607773  12.0775213  47.5309944  57.6170464  54.9354897
  47.2123337  58.1584969  54.2133293  47.0160027  57.8988838  55.6915169
  43.4370575  69.8313599  57.6821976  43.3835297  70.4766388  58.3871689
  42.7667885  70.1047058  57.0558968  40.3653755  17.9352055   3.2801218
  40.6399956  17.0271759   3.4077749  40.4922180  18.0945663   2.3448429
  59.2202835  43.1552505  81.4677887  58.9428825  43.9049263  81.9943466
  58.4044113  42.7153702  81.2288513  71.8316879  70.0845337   7.7389727
  71.4254532  69.3465118   8.1934319  72.4487686  70.4469604   8.3746567
   6.6535964  48.5932922  68.3190002   5.7761412  48.7202148  68.6798248
   6.9713035  49.4792252  68.1445923  74.6910706  52.6287651  65.3043747
  75.2233887  52.6377525  64.5088882  73.7877808  52.6492844  64.9883499
  46.6118317  35.3792725  47.9190292  45.8701401  35.9667702  48.0638542
  46.3509102  34.8444633  47.1692772  24.8183594   1.2888072  33.6280098
  24.2721596   2.0487535  33.8289528  25.7064075   1.6410714  33.5687370
  31.7966309  22.0717030  89.0567017  31.6318607  22.9945717  89.2500763
  31.8497162  22.0328541  88.1017609   0.6556727   2.1353750  10.2304811
   0.1815566   2.9600286  10.3372164   1.1974443   2.0670927  11.0166445
  81.7747726  71.0666275  30.7874241  80.8511581  70.8893433  30.9655838
  82.2396469  70.6875153  31.5333500  19.8943939  28.3290272  88.1611023
  19.3328152  27.8436604  88.7654877  19.3148537  28.5734329  87.4395523
  38.0718002   3.3657660   8.3058777  38.5428619   3.3808703   7.4727478
  37.9030266   2.4377565   8.4688063   2.1471376  18.9957447  54.6802521
   1.6346371  18.8076992  55.4665184   2.7953002  18.2923794  54.6429329
  12.1445847   3.2105682  62.8851128  12.8069706   2.8240077  62.3123589
  12.5795603   3.9675589  63.2775345  55.3304672  13.0264034  77.8086929
  54.3948441  13.1227989  77.6310883  55.7360611  13.7732096  77.3682327
  76.3532181  46.9518433  25.9425831  76.6150284  47.7007904  25.4070835
  75.7900238  46.4323730  25.3688259   3.0453224  59.7749748  86.3531113
   3.4828920  59.1289749  85.7986298   2.9235017  59.3282661  87.1908722
  21.0159931  35.7476273   5.9455452  21.1565380  36.6590614   5.6890922
  21.8580360  35.4671097   6.3040223  16.4919567  60.2936478   7.2759614
  16.9758949  60.1373596   6.4650292  15.5805426  60.3832092   6.9975104
  79.3700638  33.2739830  51.0903015  79.7903519  34.1037712  50.8643684
  79.8563538  32.9588242  51.8521576  44.7029953  37.2249718  65.6989136
  44.1338310  37.1216393  66.4615479  45.4171104  36.6050835  65.8472595
  48.2475586  27.3879604  72.5729065  47.9412003  28.2794781  72.4068527
  47.4824066  26.8370857  72.4076385  59.3048058  45.6439972  57.0056076
  59.8668060  46.1486244  57.5936050  59.4796448  46.0067825  56.1372490
   4.1752348  49.2132339  40.9475670   5.0784016  49.3349533  40.6548119
   3.6500630  49.7014732  40.3134956  72.2734528  14.3876858  64.0976105
  72.3716583  13.4356995  64.0800400  72.4984970  14.6351690  64.9944611
   4.3283801  66.7748642  36.4300308   5.2822361  66.7006226  36.4004021
   4.0130987  65.8955154  36.2213097  57.6900406  59.2805481  30.1515312
  57.4464989  58.5688820  29.5595474  57.2230110  60.0443192  29.8127556
  56.0598602  53.5404510  34.5730782  56.2678719  52.8516006  33.9418526
  55.1174278  53.4561005  34.7177658  50.9920578  11.8550186  13.9312811
  51.1014595  12.7937775  14.0829191  50.3576012  11.5779676  14.5922956
  50.2216339  29.7031422  69.3698578  50.2858238  30.6543503  69.4553833
  49.2886963  29.5372524  69.2344513  76.5488205  34.1570206   8.4227991
  75.6738052  33.7759361   8.4959869  76.8880005  33.8205338   7.5933599
  63.8150444  51.7790222  34.3833389  64.3008270  51.9193954  33.5706024
  63.3729362  52.6124496  34.5451202  65.9526672  30.7686920  77.4661560
  65.0548172  30.4732533  77.3151245  66.4832153  30.2345104  76.8750534
   7.9402037  66.7818222  46.9208603   7.7870646  67.0710144  47.8203888
   7.0808563  66.8349457  46.5026131   2.1084104  70.4426651   2.9030960
   1.5091556  69.7025146   2.8066485   1.9692811  70.7482529   3.7994723
  32.9092827  38.3754654  81.2582550  33.3773079  38.6890411  82.0321121
  32.8700027  39.1355438  80.6777649  85.6601486  34.8545990  15.9981775
  85.7004089  33.9360962  15.7317858  86.1022110  35.3279839  15.2933912
  63.7058830  33.8442383  61.5321541  63.4481316  32.9984550  61.1654854
  62.8993149  34.1989937  61.9060898  14.0267162  35.0743027  67.7098923
  14.7257013  35.5991478  67.3197708  14.2871399  34.9709854  68.6251678
  43.9318962  51.3707504  80.0761795  44.1281281  50.5590248  79.6083908
  44.0820389  51.1585884  80.9974136  75.5139160  36.0488701  77.4715805
  76.1954498  35.6449013  78.0087585  75.9825668  36.6784439  76.9236526
  19.9718666  22.6233997  85.3589859  20.7634945  22.4051323  84.8671341
  19.8727207  21.9053802  85.9841614  25.6605530  45.0688324  12.0989122
  26.4188786  45.4570999  12.5352879  25.7391720  45.3495216  11.1871748
  64.1341858  47.3164978  46.9555855  65.0538864  47.1060905  46.7940178
  63.8133354  46.5916557  47.4921417  33.5340805  21.3415928  68.8575439
  32.7990456  21.7184372  68.3738632  33.2484741  21.3487225  69.7711105
  70.4766006  50.5852547  44.3506622  70.7171173  49.6638145  44.2540627
  71.1663895  50.9564362  44.9008026  38.1383018   8.1668024  79.5828018
  38.7919960   8.0304260  78.8970032  37.8004074   7.2908401  79.7692108
  15.7330389  59.4364014  84.3307266  16.5634766  59.3234749  83.8682861
  15.6471272  60.3833427  84.4409714   1.5054637   1.1635542  31.9927425
   2.2905488   1.2098442  32.5383911   1.7268736   1.6697154  31.2110729
  79.5529785  33.8247375  47.6471901  80.1088028  34.4031105  47.1249046
  80.1625061  33.2062798  48.0499420  25.5520725  68.6079102  23.2897739
  25.3145351  69.5351639  23.2928925  25.6540470  68.3836746  24.2147331
  27.8046837  29.2294025  79.9752197  27.4417057  29.7933884  79.2922897
  27.0485210  28.7555313  80.3214874  59.6982880  22.1221256  88.9378815
  59.6270065  21.4958019  88.2175598  59.2772522  22.9158154  88.6077042
  27.4711781  39.2589378  10.5582256  28.3288403  38.8939476  10.3404427
  27.2136402  39.7481422   9.7768269  78.8852768  31.6811943   0.0311940
  79.0250549  30.7357635  -0.0222346  79.7094574  32.0261345   0.3746534
  82.8025894  19.9464130  49.8958588  81.9331131  20.1781864  50.2222366
  82.8935928  20.4434357  49.0828896  21.5732441  68.5132370  39.5113640
  22.1068306  68.4423904  40.3028793  20.7004719  68.7425537  39.8306046
  58.2432671   7.3278646  51.6623726  59.0315781   7.3256569  52.2053223
  58.5200615   7.7317429  50.8398781  73.3546448  27.5253658  44.6780396
  72.7181625  28.1471844  45.0308304  72.8596649  26.7138386  44.5655594
  79.1705780  46.4576378   2.2047982  78.7347488  45.6962624   1.8219136
  78.6422272  47.2037621   1.9212923  85.6070175  68.6729965  42.8368607
  85.9473801  68.4632187  41.9671631  84.8500824  69.2342911  42.6688461
  27.9742908  11.7649841  81.2079391  28.4155483  11.8795071  82.0496063
  27.9147968  12.6492891  80.8464127  34.5866814   4.8935471  10.1564665
  35.1554146   4.5153069  10.8270693  34.6542244   5.8389039  10.2905178
  77.6895294  43.3490372  30.1769581  77.0919342  43.9282455  29.7040615
  78.1455383  43.9248352  30.7907486   8.6215153  44.2595901  17.1209011
   8.5942955  43.4151344  16.6710300   8.9043989  44.8798981  16.4490166
  64.0987701  21.2960587  65.6591110  63.2696762  21.0357990  66.0604858
  64.1676178  20.7499485  64.8760071   8.8558378  43.7150841  83.1827698
   9.2417269  43.9217453  84.0340118   9.5855417  43.7805595  82.5667496
  73.3738937  49.9994812  16.3036842  73.4542313  50.6933136  15.6491814
  73.8720474  49.2677689  15.9394341   0.0975096  62.1764450  41.8577461
   0.2459024  62.9886360  41.3734360  -0.0542729  61.5177650  41.1800041
  30.4696236  21.1190376   2.6256523  30.7841167  21.4994946   1.8055434
  29.5315876  20.9898453   2.4855511  78.6517944   6.2453890   2.3748195
  78.1022644   6.5640225   3.0908632  78.0454483   5.7863340   1.7935748
  34.5663605  60.6634636  61.0523453  35.3313370  60.5022202  61.6046524
  34.9305496  60.9751587  60.2238235  61.7866974  19.1308575  79.9218521
  60.9186707  19.4666672  79.6982727  62.2815132  19.9053268  80.1894150
  18.0461082  28.0760059  10.5685320  17.1457195  28.3506107  10.7420874
  18.0244713  27.1220818  10.6446466  65.7140656  30.5951614   3.6681654
  64.8679657  31.0417633   3.6383159  66.2505341  31.1368504   4.2469678
  84.7603073   0.9951100  39.1073303  83.8101654   0.8902525  39.1570740
  84.8859406   1.8773843  38.7579880  70.9479294  35.0164833  77.4456253
  71.4733505  35.5543785  78.0379333  70.0505981  35.1169395  77.7633286
  27.1910572  38.3830070  13.3663673  27.9373016  37.8088493  13.5386896
  27.2249146  38.5432625  12.4232855  47.5325127  36.3267555  54.0709457
  48.0113373  37.0533371  54.4697418  48.2016602  35.6639290  53.9002647
   4.3493223  32.6382751  16.6626625   4.8381639  33.4439774  16.8303318
   3.4384742  32.8681335  16.8463840  34.6601982  33.3130341  17.7752972
  34.4008942  32.8829765  18.5901871  35.5105324  32.9288673  17.5618000
  17.2343731  54.9668388  11.8184109  16.7600346  55.7948952  11.8929939
  16.7770405  54.3742599  12.4150095  54.2613869  68.0467606  27.9843521
  55.1837769  67.8114243  27.8841267  54.1558838  68.8345718  27.4510136
  81.3348160  69.5176239  33.3453522  80.8038406  69.0334854  33.9777336
  81.7810211  70.1841431  33.8677406  31.5400219  47.0500565  28.5430603
  32.3134117  46.6366081  28.1594410  31.8877296  47.7812920  29.0535793
  57.5972176   1.3804982  28.4786453  57.4427605   0.4794615  28.7623825
  58.5124016   1.5487295  28.7030754  74.0625076  63.2993088  67.8975220
  74.9383392  63.1242332  68.2417603  73.5280914  62.5748405  68.2227554
  38.8889046  66.6248856  25.6976280  39.6482048  67.2023697  25.7763710
  38.1361694  67.1975174  25.8449574  52.5599632  19.8438911  73.0006790
  52.3653374  19.4507561  73.8514404  51.8053398  19.6210480  72.4555893
   6.5475202  33.1344604  32.0280304   6.4248528  32.3874321  31.4422607
   7.2652335  32.8716545  32.6042709  57.0442314  60.2075157  87.8493500
  56.8550873  60.8534355  87.1687317  56.2751236  59.6377754  87.8592377
  66.5513077  38.9661674  32.7328339  66.6363831  38.0963058  32.3425331
  66.8093719  39.5681648  32.0348129  52.7753716  44.3022804  32.7394142
  52.7710609  45.2231255  32.4781609  53.3493843  43.8755302  32.1033058
  51.2908554  42.1941605  42.7392693  50.7553596  42.7575531  42.1806412
  50.7945824  41.3780937  42.8023567  28.7200031  57.5902328  73.2571640
  28.0874004  56.8974075  73.4470062  28.9250393  57.4795341  72.3287582
  23.1191368  52.3983955  80.3262558  22.9003944  51.9881096  79.4895706
  23.8302631  51.8623390  80.6772156  69.5851440  33.2905121  27.0583839
  70.5127869  33.1778908  27.2657890  69.2618790  33.8945847  27.7268391
  63.2242165   1.9475181  31.1462364  62.5953331   1.3718568  30.7110920
  63.7283897   2.3355796  30.4310799  30.9764233  20.6855793  86.8829346
  30.7738876  20.7711735  87.8145447  30.7979031  19.7667942  86.6824493
  75.1854172  16.9016342  50.4953461  74.4481430  17.4533882  50.2341576
  74.9829102  16.0414219  50.1275749  61.0337753  30.8743572  48.3193207
  61.8734131  31.3138752  48.4537277  60.6885185  31.2587223  47.5135345
  68.8025818  20.9447136  46.7809410  68.7557755  20.9510460  45.8249054
  69.7279510  20.7947731  46.9744453  25.5732841  20.4944191  47.2210083
  25.5610466  21.3687019  47.6105118  26.1172924  19.9757576  47.8136940
  21.3027859  51.3172646  24.4476261  22.2482033  51.2998810  24.5963383
  21.2110863  51.4617386  23.5058460  23.6866493  43.8915825  13.4623804
  23.9458694  44.5711632  12.8401184  24.3796806  43.2341385  13.4015074
  18.3441277   6.0206857  81.0911636  18.8170681   6.8208241  80.8623886
  18.3272400   5.5123024  80.2803040  58.1882401  11.4470177  68.0376663
  58.2876244  11.5542383  68.9836349  59.0738716  11.5528727  67.6902695
  21.0394115   0.5508232  64.5476685  21.9085541   0.7095582  64.9159470
  21.1517277  -0.2209761  63.9927406  22.2209225  35.1816711  76.5215225
  21.2711468  35.0986366  76.4362946  22.3924904  35.0267944  77.4504013
  67.3773422  24.9933109  39.5331650  66.9935532  25.3219643  40.3461380
  68.2755661  25.3239880  39.5415115  67.2670898  68.0174255  18.5650768
  66.7549896  67.2272034  18.3932323  67.4023895  68.0138016  19.5126591
  50.5051346  25.9321804   6.4670954  50.4309311  26.6675110   7.0753851
  49.7002411  25.4309292   6.5979514  28.2754707  65.8497391  46.0168343
  27.8038864  66.5368347  45.5459366  28.1024780  65.0533066  45.5148468
  71.4717331  19.9087734  47.9459915  70.7924805  20.2583218  48.5227585
  71.2013397  19.0062332  47.7770462  33.4532585  43.1544571  57.6055489
  33.5582466  44.0377960  57.9589996  33.9954300  43.1461067  56.8167458
  50.1636276   1.7323443  78.5202026  51.0535011   1.3926319  78.6148224
  49.9578285   2.1067030  79.3767853  37.5389252  53.7264519  80.3614502
  36.9432449  53.9346886  81.0811996  38.0684319  54.5163956  80.2526093
  27.9758644  51.3402061  57.8119125  28.0259247  51.8587723  57.0089073
  27.0835857  50.9937477  57.8180542  27.3968296  60.8455429  84.3949127
  27.3190479  61.7994537  84.4102478  26.6148796  60.5489273  83.9292908
  56.1501846  14.4556332  17.7278824  56.2955208  13.9577303  18.5323696
  55.2389183  14.7429104  17.7853279   4.1144361   4.2190466   7.0724263
   3.3045475   3.9301984   7.4929957   4.2984004   5.0714993   7.4670315
  45.0405769  50.4571800  68.9495697  45.5719604  50.8372993  69.6491165
  45.2442970  49.5222588  68.9751129  60.8131180  37.0050201  25.6385651
  60.2900772  36.2439842  25.3866081  60.3072739  37.7563896  25.3290501
  47.9290581  33.0831223  79.1535416  47.9444122  32.5423546  79.9432068
  47.4936409  32.5378761  78.4982986  74.0699387  49.1887550  53.7911911
  74.4820099  49.2990456  54.6480789  73.5687714  49.9938164  53.6610298
  17.1510487  69.4974899  32.0553627  17.3470440  69.9485168  32.8765755
  16.7850704  70.1776581  31.4899731   0.2195702   4.1409650  66.3629227
  -0.4431984   3.4535649  66.4296417   1.0479525   3.6922057  66.5321274
  20.5370235  44.9067535  54.3722000  20.8815403  45.7674141  54.6105270
  21.2617741  44.3041039  54.5388870  44.3268890  41.1257668  38.2916298
  44.9079895  41.8206406  37.9822731  44.8720016  40.6009674  38.8778648
  16.1097164  32.2543983  24.5445137  16.1350346  33.0540009  25.0700855
  16.8011036  32.3737717  23.8933849  42.2584076  19.8651638  19.3143559
  42.4600639  19.3200188  20.0748692  41.3592072  20.1584320  19.4615517
  22.5565033  47.3612404  83.7521362  23.2257385  47.5354424  83.0903091
  21.8297977  46.9762154  83.2623520  48.6954727   3.5149052   6.1757793
  48.6170120   3.3653398   5.2335978  48.9313889   4.4393826   6.2527080
  79.4096451  16.7089787  38.0395126  78.7156067  16.3315411  38.5799561
  79.2876205  17.6550102  38.1192856  37.7926369  57.2068939  59.8948784
  37.1507530  56.7366409  59.3628235  38.6009407  56.7039833  59.7951088
  54.5173492  19.0005379  66.3650208  55.1061707  18.9318867  67.1165619
  53.7033539  18.5926743  66.6604614  28.8564091  68.0199509  88.7650528
  28.9507465  68.9674835  88.8626022  29.2565060  67.6568222  89.5551758
  34.8819656  55.0612717   1.8239369  34.3376846  54.2908325   1.9864695
  35.0929718  55.3938217   2.6963573  76.2508011  63.1557198  34.1919975
  75.9337082  64.0388184  34.3812408  75.4566498  62.6437874  34.0387802
  86.3195190  31.7022438  87.3177414  86.6480179  31.5047379  86.4406357
  87.1072159  31.7886772  87.8546753  53.7905006  48.4597969   8.4346542
  53.0151978  47.9027443   8.3651619  53.5951843  49.0526695   9.1603146
  20.0930481  67.1245804  19.3101501  20.7264900  67.6614151  19.7863770
  19.2398891  67.4611359  19.5841618  80.7780609  28.3581333  13.4466696
  80.5328522  29.0285835  12.8090153  81.4104309  28.7921371  14.0193577
  28.5270329  49.3264771  74.7369919  28.2043495  48.7159576  75.3998413
  28.8891144  50.0562515  75.2395477   6.5839744  48.3867302  65.4038620
   6.2851734  47.4791336  65.3471222   7.1810331  48.3959961  66.1519699
  24.8638058  49.4485092  22.5852871  25.3560600  49.9870529  23.2048740
  24.0425529  49.2539406  23.0368576  60.9633675  21.6541557  41.2184410
  61.4899940  21.9578266  40.4790649  61.4191055  20.8731327  41.5323448
  28.3774776  62.9028168  67.1171188  27.6325550  63.4399147  67.3870239
  28.5177231  63.1321297  66.1984406  39.1628456  68.6408310  35.6995544
  38.4072189  69.0340424  35.2629242  39.8027115  68.5102921  34.9997253
  32.4309883  63.0567131  11.5455656  32.8784866  62.6938591  12.3099718
  33.0043449  62.8442192  10.8091269  49.0228004  13.2429476   2.6370859
  49.5730133  13.6900997   1.9940042  48.2599068  12.9511795   2.1379919
  67.8942719   7.6212616  55.3277550  67.8700485   8.0885086  54.4926949
  67.7947540   8.3065281  55.9886169  41.2588272  42.6140671  79.9207535
  40.4453049  43.0564041  79.6783676  41.8596230  43.3242912  80.1462555
  15.4385300  50.4116745   2.9346366  16.2261772  50.7366257   2.4984555
  15.7559471  50.0437317   3.7593157  57.6707916  46.1975098  63.7699890
  57.1851921  45.7769547  64.4796066  57.9426422  47.0406189  64.1326065
  49.6414986  61.7350044  39.3241386  50.3605537  61.1614151  39.0592117
  49.3083992  62.0964813  38.5027924  70.8764191  19.6678047  54.5699387
  70.6681061  19.0108185  55.2341728  70.2006226  19.5551949  53.9014702
  73.7204895  45.1849480   0.6883993  74.5019684  44.6352310   0.7461816
  73.1158524  44.6848183   0.1402135   7.6703591   4.7665949   3.0764813
   7.8778696   4.0306382   2.5006871   7.9188170   5.5419474   2.5731633
  85.5928497   6.3749218  65.0201263  85.9119720   5.6242023  65.5209427
  85.8757553   7.1373634  65.5249863   0.0645669  68.3474045  35.2992630
   1.0094045  68.4717484  35.3889999  -0.3200934  69.0273285  35.8524055
  52.4317894  68.1730728  60.5308456  53.1533241  67.8241348  60.0075226
  52.8579750  68.7126617  61.1967583  19.7644043   8.9155006  68.2553711
  20.0967522   9.7033577  67.8251877  20.5147438   8.3217068  68.2804947
  37.1318245  31.5362511  85.4523239  37.9880981  31.2446766  85.7653885
  36.8499908  30.8479462  84.8498001  10.7883587  51.4347534  33.7120667
  11.1767921  51.7107201  34.5422440   9.8441782  51.4772377  33.8635597
  32.4974709  66.0276642  78.9061432  33.2505722  65.5112534  79.1931763
  31.7512741  65.6354065  79.3595200  33.9614830  70.5955811  85.5217209
  33.6963501  70.0052261  84.8164444  34.2775002  71.3792419  85.0720062
  40.6717606  70.0408325  86.6615143  41.2206078  70.8019028  86.8506393
  41.1467361  69.5666656  85.9790192  54.8522415   9.5822191  49.4354324
  54.7613068   9.2864704  50.3412437  53.9585838   9.5818281  49.0924873
  70.9411011   9.7065268   1.7904727  71.5392227  10.3625307   1.4324980
  71.3451614   8.8676128   1.5686790  51.3079033  30.6973763  78.1535263
  51.2333527  29.9516010  77.5581360  51.0182037  31.4478683  77.6348114
  77.0060883   5.6088400  19.1439705  77.9247208   5.4194903  18.9529247
  76.7042236   4.8505421  19.6440639  71.8301544  29.6708164  13.7653036
  71.6720886  29.7705898  14.7040768  72.1551819  30.5263634  13.4848890
  50.7302818  46.5116081  27.2418423  51.0594444  46.4898376  28.1404018
  51.5117111  46.4122353  26.6980362  84.8273163   9.5284529  51.7091331
  84.3681259  10.2263098  52.1764336  85.0265427   8.8792791  52.3837547
  57.1224098   0.7897412  66.5251312  57.5962143   0.0594549  66.1271057
  56.4631958   1.0307107  65.8742828  85.5986328  17.5798531  77.1755905
  85.2027359  17.1730556  77.9463120  86.5391083  17.5643387  77.3530273
  52.5957413  66.5279770  80.3731232  51.7417603  66.1301880  80.5425644
  52.4706573  67.4564514  80.5693817  43.9066772  36.9893303  68.5377579
  44.2874870  37.8580170  68.6666031  42.9611702  37.1354294  68.5678864
  48.3379822   1.7035906  66.2253952  48.7460251   1.0125604  65.7036514
  48.5416756   1.4715596  67.1314316  51.6170540   5.5081611  85.4245377
  51.8259811   6.2194009  86.0301132  51.0057220   5.8976636  84.7994003
  75.6402435  53.9978218  10.2976074  76.3694305  53.4734917  10.6286564
  75.9308319  54.2947235   9.4352608   2.7243128  44.5742302  11.8841972
   2.7903781  43.6973419  11.5061312   3.4188170  45.0733414  11.4543285
  44.1860046   6.8731751  74.6387939  44.6713867   6.5190949  75.3839493
  44.1913567   6.1673508  73.9922485  67.0659637  17.4595604  83.4721069
  66.8356857  16.5322914  83.5301971  66.4174728  17.8303528  82.8736038
  53.4416466  48.7894135  66.2334976  52.9764938  47.9849739  66.4631577
  54.0542603  48.9264717  66.9560928  82.1543884  45.6929932  23.9810219
  82.2622910  46.5094337  24.4688911  82.9539642  45.6177406  23.4601994
  27.3987312  65.3728638  78.7565536  27.4734383  66.3265533  78.7901611
  26.7349644  65.2080688  78.0868683  46.0271378  35.9386902  27.1969814
  45.6549606  36.8204803  27.2096882  46.9222679  36.0610619  26.8807602
  59.3250160  42.1959839  16.2508297  58.6205444  42.7396889  15.8982191
  60.1286812  42.6372757  15.9758396  32.0908470  35.5804710  36.2062111
  31.9730091  36.3930244  36.6982536  31.2305946  35.4042740  35.8252258
  19.3155422  63.1749344  36.6681862  18.7004089  62.9858246  35.9596100
  20.1493187  62.8168831  36.3634720  50.2472038  28.6558113   7.3650122
  51.1345711  28.8032932   7.0378079  50.0189285  29.4699993   7.8135881
   7.6150770  29.1650143  65.2855682   7.8664985  28.3869152  64.7879944
   7.0567737  28.8304386  65.9874191  69.3632660  19.6015530  38.4342117
  70.2343597  19.5488224  38.8274689  68.7619095  19.5606976  39.1778030
  47.0625267  18.8237801  76.8916245  47.0599899  18.0704918  77.4822006
  46.4898224  18.5642300  76.1699066  18.9689312  45.8665276  23.3100300
  19.8231201  45.5170059  23.0562057  18.4404335  45.8089256  22.5140381
  23.7370853  60.8186836  69.2689590  23.8828163  60.1094894  69.8950882
  22.9509258  60.5571747  68.7895889  47.8212166  27.9237118  45.7030792
  47.4437180  28.7233715  45.3366508  48.7633247  28.0170307  45.5618210
  44.5227013  48.7314835  62.4891052  44.9918404  48.0412369  62.9578247
  44.4538078  49.4464493  63.1218071  71.3480148  61.6402473   6.9476256
  70.4738007  62.0291786   6.9743052  71.3003540  60.9019852   7.5550184
  85.8057480  50.3575630  26.5216999  86.5553284  49.7828598  26.6768646
  85.3250198  50.3529510  27.3494148  11.9569101  41.4536438  39.7441750
  12.1208181  42.3961067  39.7778091  12.4657640  41.0959282  40.4717293
  61.5839844  62.1679306  34.3847275  61.6055679  61.2629128  34.0737495
  61.3102303  62.1004066  35.2994576  61.8586769  19.3172741  83.0773849
  62.2092476  18.5865803  82.5680618  62.3767586  20.0728779  82.8001022
  82.4284439  41.4600105  77.1461868  82.8005753  42.3418541  77.1361389
  81.8683319  41.4452400  77.9222641  74.3753662  17.7090912  44.0088120
  73.4396515  17.5606346  44.1453285  74.4828262  17.7014027  43.0576935
  79.1508865  70.6500168  31.0815983  78.7144852  70.9863205  31.8643379
  78.5317993  70.8183441  30.3712215  34.7223587  58.7965965  88.5715866
  34.4829292  58.1261902  87.9316940  34.3972397  58.4583321  89.4059143
  53.1152878  54.4115295  45.0367622  53.7695084  53.9937401  45.5968323
  52.5631828  53.6904182  44.7344170  81.6798935  58.6908340   8.4507303
  82.0034409  57.7956848   8.5520086  81.2965775  58.9046440   9.3013697
   2.2862084  62.8982162  43.1588707   2.8789835  62.1627846  43.3137589
   1.5566812  62.5187531  42.6689415   2.8739328   1.3000190  21.0775356
   2.4303834   0.4525924  21.0406036   3.5675201   1.2361406  20.4209614
  20.8197422   5.0031323  15.1194849  20.8087540   5.3902750  15.9948320
  21.1551056   5.6988869  14.5540733  79.3452682  14.1989346  40.9186440
  79.6233826  14.8445120  41.5683479  79.9187775  13.4471235  41.0673141
  49.2713699  36.9977951  69.0043411  49.1104507  37.6468620  69.6892166
  49.0537415  37.4504356  68.1894836  41.0193901  45.8669205  57.3991737
  40.7915344  46.7948227  57.3416367  40.3867760  45.4291840  56.8295975
   6.0406604  67.7601166  67.9470139   6.2747083  67.1449127  68.6419830
   6.8807116  68.0619736  67.6014328  60.1716957  66.8197021  46.7182426
  60.5634918  67.6929169  46.7031517  59.2988358  66.9551620  47.0870132
  44.8719292  30.8052540  19.6690521  45.2797318  31.2747517  18.9413815
  45.1456909  31.2879581  20.4489784  41.7816391  60.7161865  31.3627033
  41.9426460  59.9706154  31.9410019  42.5275841  61.2979889  31.5086670
  19.4075069  24.2849789  66.8758469  19.5357285  23.7957649  67.6885376
  18.4578381  24.3099995  66.7586441  62.8447533  60.7512169  76.4227295
  61.9718094  61.1337585  76.5113831  62.6877327  59.8753395  76.0700150
  53.4930458  68.4910431   2.9032164  53.9832230  67.6984863   2.6845400
  52.7347908  68.4724503   2.3193195  24.9685059  37.7724800  73.4662399
  24.3012714  37.5202370  74.1045227  25.4536343  36.9652481  73.2951813
  56.2875061  39.3832321  70.2591095  55.6118736  39.9253235  69.8518143
  56.0217628  38.4841309  70.0661469  19.0606461  11.9853725   0.8471292
  19.8459110  12.1059923   0.3132347  19.3788948  11.5775023   1.6524808
  55.8236351  22.3756561  11.2204227  54.9030914  22.2174988  11.4297400
  56.2828522  22.2517319  12.0510807  -0.1164259  34.9501266  47.0104141
  -0.4764838  34.6411819  47.8417664   0.7616661  34.5708351  46.9739990
  58.6177788  22.1549854  82.1638794  58.5025597  21.2059841  82.1154022
  58.1997490  22.4878864  81.3697357  12.9762850  59.8068810  84.7857285
  13.8911123  59.5477867  84.6753082  13.0142689  60.5947456  85.3280029
  81.7960739  41.2827072  58.5279503  81.6328278  40.6009865  59.1797447
  81.3715363  42.0625420  58.8855209  69.4599533   8.7245970  74.8542404
  70.3867188   8.9635592  74.8692932  69.0335846   9.4477396  74.3943405
  53.8435974   2.8145633  24.5385418  53.2744064   2.7237556  25.3027458
  54.6971703   3.0498545  24.9022560   8.1480865  18.3511295  71.1763382
   8.2324095  19.0632248  71.8104019   7.2111478  18.1560459  71.1584549
  34.2107086  38.5421944  51.5345001  33.7724953  37.7817802  51.9165649
  34.1449814  39.2196999  52.2074776  29.4955502  51.2666359  33.5544662
  29.1341515  50.4145088  33.3105278  29.6619358  51.1960258  34.4944458
  83.2882080   0.5653505  59.9418755  83.2036743   1.4972110  59.7400780
  82.3960419   0.2245186  59.8777962   7.0831180  40.0255890  74.7364731
   6.4328694  39.5814056  75.2806320   6.6428652  40.8217735  74.4389877
  79.7056808  32.7257767  59.7837868  79.1766586  33.2692680  59.1998405
  79.1465759  32.5795937  60.5468483  16.5277672  51.0518417  63.9040413
  16.1581650  50.9851074  63.0236015  17.1430244  50.3208313  63.9615631
   6.2325535  14.5153627  52.1169968   6.9910769  14.7493229  51.5820808
   5.5286040  14.3716488  51.4845161  19.0026512  32.4714584  17.6957722
  19.3495731  31.6325283  17.3923416  19.6097775  32.7474556  18.3823986
  68.1090775  12.9331551  42.7918663  68.2893219  13.8080893  43.1357193
  68.7375259  12.8220282  42.0784645  84.3429184  27.2378826  33.5150490
  84.7819977  27.8332596  34.1224785  84.8793259  26.4451923  33.5268402
  13.8124075   9.4016571  63.1311417  14.1877279  10.0962534  63.6723480
  13.0926304   9.8250551  62.6632881  74.1826401  41.8255043  15.1801825
  75.0529633  41.6325264  15.5287962  73.7372437  40.9783707  15.1655617
  85.5654678  68.9277954  88.8103790  85.4992599  69.7470627  88.3198242
  84.6668320  68.6008911  88.8530579  41.9404945  16.3839874   6.2961631
  41.3123016  16.3437004   5.5750651  42.3182220  17.2614479   6.2360120
  61.1484871  68.4321518  33.9627342  61.9368896  68.9663010  33.8660965
  60.4256706  69.0485687  33.8452415  40.3245506  53.5142784  67.3423767
  39.5685349  53.6901512  67.9025040  40.8439407  54.3173332  67.3819580
  58.2552719  23.8456459  46.9691391  59.0270081  23.7862034  47.5322723
  58.6101913  23.9654655  46.0882835  85.8891525  55.1836319  53.7834892
  85.5085983  54.3072319  53.8412437  86.2576904  55.3424606  54.6525040
   8.0446329  26.7756672  70.5586777   7.7193685  25.9725876  70.9654922
   8.9149570  26.5443096  70.2342682  85.3868408  45.6823425   3.3221040
  86.1814880  45.7122993   2.7893150  84.8720245  46.4333382   3.0267963
  63.5334854  31.1640530  66.3327866  62.5887222  31.1620293  66.1789932
  63.9081459  30.8092670  65.5265656  18.8197937  28.6090240  71.4254456
  18.9699535  28.3525143  70.5155640  18.0392113  28.1203098  71.6863708
  21.1131897  54.5542946  50.5865822  21.1937637  55.1701012  49.8582115
  21.6600018  54.9279022  51.2777023  19.6938438  49.4577179  28.5179863
  19.7803459  50.3616142  28.2151318  18.8460274  49.4338799  28.9616871
  48.8899498  59.7365036  72.3882217  49.4677315  60.4985962  72.4283981
  48.1561623  60.0207291  71.8432388  46.9206963  41.9461479  31.0356369
  46.4290657  41.6516838  30.2689400  47.7561188  42.2512436  30.6817818
  76.8142624   0.9334526   8.6000090  77.3301697   0.8817236   7.7953992
  77.4453812   1.1877177   9.2732620  82.0434647   2.6154656  45.0216675
  81.6277237   2.9884188  45.7990341  81.3913574   2.0103965  44.6682892
  46.2025185  34.9075203  65.5208893  46.6595421  35.3884087  64.8308792
  46.1752357  34.0041809  65.2055054  59.5242424  52.7881050   8.0044632
  59.9394913  52.5674171   8.8381872  60.0065346  52.2775383   7.3541183
  13.9292059  45.7585411  61.0832443  13.5865364  46.6484947  61.1656685
  13.2814884  45.2104950  61.5263443  50.3796463  39.6229095  41.2700844
  50.2735596  38.7278748  40.9477692  50.2090187  39.5608368  42.2099075
  74.0801773  37.7438278  35.0602455  73.8278656  37.3559151  34.2223358
  74.8455887  38.2806587  34.8548508  56.7718544  20.9116764  42.4561768
  57.2337074  21.6302738  42.0242767  57.4481964  20.2530994  42.6145020
  70.3377838  38.4491234  15.5559282  69.7550354  39.1741104  15.3300428
  69.9163818  38.0275078  16.3048515  12.3663960  31.9243832  15.6781111
  11.5509901  31.4250927  15.6327848  12.7006960  31.9190235  14.7812023
  53.7090034  34.7621613  32.3514061  53.1225510  34.0162277  32.4774551
  54.2961197  34.4888115  31.6465607  27.9597301  51.5157127   2.1892340
  28.7418137  52.0663986   2.1528831  28.1780949  50.7538376   1.6524882
  12.2301331  25.3208485  87.9508438  11.7335529  24.7332897  88.5204163
  11.5925865  25.6225891  87.3037567  63.9711075   5.0663385   2.0538881
  63.8693504   4.9988027   3.0032651  63.9764061   4.1591973   1.7484396
  22.8907566  26.0500431  80.3234940  23.2459793  25.9472485  81.2063828
  22.2339859  26.7411671  80.4085388  26.9996796  44.3511810  19.0336094
  27.6451550  44.5598373  18.3582897  27.4991531  43.8914642  19.7084560
  58.5223503  50.6122475  49.9951134  57.7991714  51.2151909  49.8227844
  58.2938232  50.1953621  50.8259048  77.6439819  40.2318726  58.7225113
  77.6625748  39.9901848  59.6485100  78.4741974  39.9074860  58.3735924
  28.6655502  60.9445572  34.4376831  29.5762787  61.1797180  34.6151772
  28.4428883  60.3146133  35.1231194  45.7290688  38.9364700  76.4470749
  45.3336220  38.9085236  77.3183212  46.5755959  39.3624611  76.5818253
  76.9907684  51.0370979  13.3418188  76.9630127  51.7265205  12.6783743
  76.6987076  50.2501259  12.8818102  74.4054031  27.4197693  87.1979141
  74.5208206  26.4807835  87.0522537  73.5480347  27.4935169  87.6170883
   2.4875453  37.6366158  14.3640718   3.0357547  38.3166237  13.9725504
   2.0678363  38.0667801  15.1090794  75.5392990  33.8020439  35.2992325
  74.6778641  34.1614456  35.5113564  75.3831253  32.8666878  35.1690178
  54.0184021  43.1203537  37.4347992  53.7922516  42.7132072  38.2710533
  53.5812416  43.9716072  37.4568748  18.4937992  33.1586838  73.5221252
  17.5548916  32.9972382  73.4292831  18.9068718  32.4919930  72.9733734
  56.5366096  62.2449493  74.1797333  57.1644554  61.6953087  74.6486969
  56.7360382  62.1006279  73.2547226  34.6687126  17.2694054  12.2182140
  34.6423073  16.4187660  11.7800970  35.3977623  17.1989002  12.8344507
   7.7836637  40.9128418  20.4182339   7.8022003  41.1195183  19.4837971
   8.3838100  41.5441399  20.8151169  47.8917580  19.1074867  30.3739758
  47.8161545  18.3776493  30.9886723  47.9218674  19.8863926  30.9295216
  30.0593929  60.4713402  49.1849327  30.4570217  61.1686821  49.7063103
  29.2034264  60.3286247  49.5888939   1.6557789   6.5121384  67.5573044
   1.1991035   5.9796596  66.9060364   2.3313327   5.9326091  67.9094467
  36.3976021  63.9588470  57.0316582  35.6929932  63.8841820  56.3880882
  36.6728401  64.8741837  56.9803581   5.9307961  43.0929031  80.3559418
   6.6449981  42.7251701  80.8764420   5.3044538  43.4163933  81.0034637
  25.7951832   6.2057047  15.9341259  25.2077465   6.9566150  16.0194702
  25.2130966   5.4458675  15.9267416  38.5895882  62.3049965  39.9273834
  38.2750778  61.4162254  39.7618446  37.9255600  62.8711929  39.5340424
  75.0959473   4.5280042  40.7875175  75.4623184   3.6950028  40.4906769
  74.4693527   4.7705770  40.1057777  62.8678627  20.6338596   6.2981195
  62.8116608  20.5528698   5.3460093  62.2063828  20.0265789   6.6296139
  31.0156021  46.3144951  21.3599529  31.8004875  46.8560791  21.2770329
  30.5007839  46.7420616  22.0443363   1.7186586  56.1288376  77.5004883
   1.4582404  55.2383652  77.2649612   2.6519442  56.0601349  77.7017136
  65.8066788   0.4134111  44.6186752  65.3916016   1.2481320  44.8358879
  66.1695862   0.5470688  43.7430801  12.5206709  43.0646133  86.2558517
  12.8675280  42.1989288  86.4715271  13.2716970  43.6517982  86.3418884
  11.3740540  53.7780838  72.4411392  12.1582060  53.6655655  72.9784241
  11.0165081  52.8947258  72.3512726  57.6796379  52.4827881  37.0513649
  57.8033981  51.5867348  37.3644180  57.0829124  52.3964882  36.3079262
  42.4595490  44.6485939  59.4822311  41.8328133  44.1577301  60.0137291
  41.9214554  45.0942879  58.8279839  27.6043892  33.8675232  68.9842072
  26.6787624  34.0829353  68.8699799  27.7189827  33.7982101  69.9319916
  63.7452507  11.2285233  85.1766586  63.0525475  10.9490814  84.5780716
  63.6273613  12.1752729  85.2541122  45.1942673  65.8547058  52.2013550
  45.9317322  65.5904846  52.7514114  44.8839645  65.0387802  51.8086586
  60.9752007  30.8085384  26.6749897  60.9961433  31.6672497  27.0973721
  60.6071320  30.2244186  27.3379822  70.1753998  49.8170929  33.4631081
  70.2175674  48.8837738  33.6713562  70.2249527  49.8518257  32.5078239
  44.2496223  35.1415024  86.8097687  45.1008148  35.0357399  86.3848877
  43.6169395  35.0974007  86.0928268  55.9473076  19.4276028  80.1265869
  55.0019188  19.5125675  80.2500992  56.2670135  19.0776920  80.9581985
  27.8828220  67.1166077  61.3123894  28.5590153  66.5870743  61.7349815
  27.4599590  67.5843124  62.0325737  66.2198334  59.3774338  40.4741554
  65.4446335  58.8269463  40.3634109  66.9301376  58.8735771  40.0768814
  84.1755524  37.3388748  75.1570587  83.3968964  37.6268311  74.6806107
  84.6584930  38.1455917  75.3365326   4.3291955  67.5747910  10.6233063
   3.8178320  66.8197632  10.3323154   3.6751447  68.2048340  10.9257812
  67.9206238  33.2346878  80.5566635  67.2597733  32.6444168  80.1946182
  68.0950165  33.8595428  79.8528366  67.3562164  29.7274761  25.5048637
  68.0873413  30.0099735  26.0542984  66.5799942  30.0828838  25.9377632
  81.6417618  43.6358185   5.6143026  81.4619751  43.6681519   4.6746945
  82.5963974  43.6676064   5.6767335   6.8952298  44.9818649  46.3329697
   7.2985425  44.5373650  47.0786171   7.6322460  45.3542213  45.8488312
  84.0855408  57.3302155   1.3439908  83.1821899  57.6213570   1.2198030
  84.2990417  57.5877533   2.2408316  31.7324562  34.0513992  62.6995125
  32.1795692  34.3682671  63.4843178  32.2821274  34.3483887  61.9743271
  77.5781403   8.6357193  87.3891602  78.1739502   8.1303492  87.9421844
  77.7257004   8.2970352  86.5061264  74.6262131  17.3253708  41.2904778
  75.2680130  16.6236401  41.3995781  73.8123169  16.8731709  41.0684090
  70.7537231  38.0928230  61.1626282  70.1164017  38.8049088  61.1079559
  71.1518631  38.0604172  60.2927589  42.3299446  27.3319798   4.7876616
  41.8761635  27.3555717   5.6301332  42.2876778  28.2330685   4.4675326
  57.5984077  18.5014248  68.7769012  58.1612663  18.4535770  68.0041580
  57.9334068  19.2494850  69.2712784  68.5540085  17.8267384  35.8256111
  68.9022369  17.9363632  36.7104568  69.1945343  17.2695427  35.3834686
  47.5489426  70.5362167  39.5627594  47.2361298  71.3507614  39.9563332
  47.4084778  69.8738861  40.2393799  63.2774048  50.5438957  43.4719887
  62.7068596  51.3078003  43.5565758  63.1530418  50.2508507  42.5692749
  26.8084526  43.5549545  47.5973549  26.8903103  44.4805107  47.3674049
  27.4122181  43.1067123  47.0050888  21.5122757  70.5356598  77.9792633
  21.5310879  69.7719574  78.5560150  21.1261253  70.2117767  77.1654968
  48.4864159  41.0056381  58.9693871  48.1534309  41.8463249  59.2833900
  48.7601280  40.5450706  59.7626038   2.0783117  30.5098648  84.1372070
   2.6372793  30.7221489  83.3897247   2.4435713  31.0181408  84.8614120
  27.2207203  65.1383286  65.7237625  27.7687798  65.9224625  65.6921005
  26.3373089  65.4558487  65.5366898  86.0849609  40.6153069  82.4457092
  86.4633865  41.3125534  81.9100952  85.7391357  41.0659943  83.2161102
  44.1682930  30.0310688  63.1465492  44.9565277  29.9956551  63.6884613
  44.2986870  29.3476353  62.4891701  84.8449173  32.9365196  25.8366299
  84.4108734  33.7174149  25.4930573  84.9332809  32.3585930  25.0787239
   7.8614340  13.9245234  86.0475540   8.3691654  13.9385843  85.2362289
   7.1730552  13.2788019  85.8881454  20.0195427  36.6574860  23.6140957
  19.8924294  36.0325356  22.9002934  19.4622688  36.3308525  24.3204880
  21.2735863  53.9348640  67.3247528  20.3189240  53.9417534  67.3940582
  21.5706902  53.5469055  68.1478271  85.1827240  60.8243294  30.0363045
  85.4449921  60.6424408  29.1338844  85.5830765  61.6705017  30.2361622
  85.4543304   8.9589233  49.2119026  85.0976791   9.4186716  49.9719467
  84.7562027   8.3612814  48.9441795  74.1497421  69.8880920   1.6500828
  74.6489487  69.7724686   0.8415911  73.3359985  70.3079300   1.3711618
  72.5540390  17.5425797  50.0029869  72.0463867  17.9249058  50.7187767
  71.8953781  17.2149258  49.3905792  19.9995689   3.9320621  73.3227768
  19.2737408   4.3204546  72.8343506  20.1894436   3.1155567  72.8607178
  65.0052185  31.9531212   0.6147374  65.9511795  32.0683975   0.7046852
  64.7110214  31.6965370   1.4887210  48.5880890  69.9260788  84.4205933
  49.0103798  69.1219101  84.1185913  49.3136292  70.4987259  84.6694031
  42.8427811   1.4234681  83.4292984  42.4181366   2.2301571  83.7211304
  43.6241837   1.3522667  83.9775391  29.6500416  63.2848778   0.7043729
  28.8845291  63.6349068   1.1601167  30.2529507  64.0259552   0.6448585
  72.0445862  29.2967110  26.0562115  72.8050308  29.8568726  26.2116871
  72.3220444  28.7048531  25.3569603  71.8477478  12.2612877  45.9996376
  71.8064804  11.8640337  45.1297417  72.5291824  11.7678776  46.4561806
  21.7185383  68.1727295  33.5509453  22.2763233  67.4646606  33.8730431
  20.8784618  67.7517471  33.3685150  36.1816864  52.9190063  11.0128279
  36.6788864  52.9012985  10.1950817  36.1808929  52.0098915  11.3123913
  74.2308960  63.3946228  20.2574577  73.9170761  64.2929077  20.1533947
  75.1798096  63.4814415  20.3483658  76.6689377  18.2682915   5.2652125
  75.8594818  18.0535088   5.7287741  77.2931061  18.4809227   5.9590654
  76.9593048  23.9952679  42.3671608  76.2614212  24.5278339  41.9856262
  77.7633286  24.3401985  41.9788399  85.5943985   8.6987257  34.4958305
  84.8318329   8.8362427  33.9338531  85.2829971   8.9057045  35.3769760
   5.7471051  40.8540955  49.4944115   5.9691143  40.6238251  50.3965836
   4.9665036  40.3353577  49.2999802  58.6813431  21.1241436   9.1742706
  59.4725952  21.1610622   8.6368761  58.6355476  21.9839115   9.5925188
  22.5274982   7.9832535  45.3434715  22.6373062   8.9339199  45.3636436
  21.5957050   7.8460989  45.5143013  56.4132690   3.0062540  60.3309402
  55.6281471   2.4625032  60.2665367  56.1293259   3.8724589  60.0388832
  41.6370277  44.2903748  13.4464254  42.0562897  45.1206665  13.2204523
  41.2268715  44.4525719  14.2959528  81.9494934  47.7848473  15.1877661
  82.7046661  47.8165092  15.7750864  81.7382584  48.7031631  15.0195179
  32.8952560  55.4694862   6.1216264  33.5206680  55.7722778   5.4632874
  32.6584473  56.2591171   6.6080780  73.4088211   9.5945578   5.4089932
  72.9304733   8.8370323   5.0719929  73.5325470   9.4052982   6.3391037
  80.3943100  59.8896370  72.3559723  81.1617889  60.4371338  72.5216522
  80.7119446  58.9930992  72.4634781  77.6247940  71.3180161  66.8280334
  77.9172974  71.0508041  65.9566727  77.6359787  72.2747803  66.8014908
  44.4010086  51.1163483  54.1552238  45.3321877  50.9554100  54.0027924
  44.0974960  51.5434647  53.3541756  79.0400314  12.1165657  61.6490097
  79.0569458  13.0657988  61.5269318  78.7896805  11.7693930  60.7928429
  32.6960182  52.8459282  26.3531399  32.0772324  52.5039787  25.7078457
  32.7702827  52.1499023  27.0060329  80.3626785  24.9192867  61.5175209
  80.5355530  24.2380772  60.8676758  79.8065033  25.5503922  61.0607910
  38.9142189  31.5549335  19.5818329  38.6349030  32.2360420  20.1936378
  39.8023491  31.8083897  19.3304100  33.2525024  50.1124878  34.5720863
  32.5012321  49.7307243  35.0260429  33.9454765  50.1340866  35.2320480
  32.0072098  27.8693104   5.2127752  31.7267132  27.8223095   6.1267471
  32.3408928  28.7605782   5.1101756  56.7565651  16.2215443  60.1550026
  56.3173409  16.3633423  60.9935760  56.2663269  16.7600384  59.5337791
   8.4148188  39.4617577  30.9288483   8.8967676  40.2069359  31.2875443
   7.6309609  39.3983879  31.4745426  47.8054581  42.5595627   6.8215308
  48.2398415  42.2572479   7.6191206  47.0350456  41.9972954   6.7405519
  10.2139444  26.9819508   9.9433756   9.5010195  27.3561153  10.4610338
  10.9380541  27.5984478  10.0521393   5.9541416   2.1191092  70.6898193
   5.7273135   2.0486040  71.6170807   6.7434497   2.6604552  70.6768188
  24.3520069  46.4940224   2.8953321  24.0921288  47.3831596   3.1364248
  23.5391293  46.0753746   2.6121476  15.9005394  55.6360931  45.6636925
  15.7898579  55.5298119  46.6085129  15.1715288  56.1969604  45.3987350
  42.9966393  57.2921371  67.6986923  42.0499115  57.4070435  67.6165924
  43.2021141  57.6163750  68.5755463  34.3819695  38.0516281  34.6258049
  33.8329506  37.6813774  33.9346237  33.7621880  38.3353271  35.2978287
  43.0369225  48.3097382  75.6422729  42.3125763  48.8951416  75.4212341
  43.8201637  48.7783775  75.3539276  33.0208588  35.7973976  48.0211754
  33.1668053  36.6199036  48.4885254  32.4600029  35.2865295  48.6048622
  23.2472343  49.8952179  70.3930206  22.4347630  49.3895721  70.4140778
  23.7257080  49.5484543  69.6399994  65.5279312  14.8462124   5.7483211
  66.2801208  14.4844913   5.2796965  64.7863922  14.3158379   5.4566875
  14.7567682   7.4597344  59.3202209  15.3819942   8.1327877  59.0512886
  14.7842293   7.4758549  60.2768936  34.7611656   7.4490309  87.6398926
  35.3909874   7.3566952  86.9250336  33.9355507   7.6633134  87.2055206
   0.9845883  52.1933365  79.9471817   0.3677731  51.8913307  80.6139374
   1.6177850  52.7247276  80.4298019  50.4840889  23.1533031  19.8337498
  50.7390251  23.4783764  20.6972141  49.5851326  23.4609871  19.7178173
   2.2006679   5.6734810  71.9349899   1.8740478   4.9324074  72.4452438
   3.0832970   5.8261876  72.2724457  13.4708261  67.9983521  25.4889450
  14.0805550  67.6761093  24.8251495  13.2338743  68.8764038  25.1904202
  38.8517914  25.0378075  81.4586716  39.3213654  25.5571804  80.8059998
  38.9907074  24.1303215  81.1877365  64.3729019  66.0876312  58.5939598
  64.8236618  66.2737961  59.4176025  64.5378494  65.1581726  58.4354248
  22.2646713  46.3954887  46.3181458  21.3821831  46.7581024  46.2409554
  22.8322315  47.1619225  46.3999481  12.9575882  57.7657471  71.7020111
  13.2454901  58.6755829  71.6275482  12.2072687  57.7028275  71.1110001
  25.6678848  62.6425667  56.2665596  26.4917316  63.0852737  56.4703178
  25.1356831  63.3125725  55.8375092  35.5648842  24.4810658  70.5699997
  34.6676559  24.8145161  70.5651398  35.4713631  23.5397568  70.4236221
  81.3152084  60.8640442  18.5108757  80.5413132  60.5401573  18.0499916
  81.5970001  60.1271858  19.0529709  63.7262764  37.7809029  84.3696442
  64.5138321  38.2790527  84.5883484  63.5948753  37.1995735  85.1186600
  86.4004517  17.8703804  18.9821472  85.8221741  17.2545853  18.5320206
  86.9727631  18.2086372  18.2934685  48.1804657  30.9801903  25.7822876
  47.5557098  30.8121109  25.0768375  48.7622452  31.6544609  25.4313927
  25.8584175  41.2307510  11.6317654  26.4849930  40.6085892  11.2622375
  26.4013901  41.9307137  11.9943476  58.3891907  18.1528072  85.3467102
  58.0549583  17.2569485  85.3024673  57.6823921  18.6900826  84.9889374
  68.8132095  19.9521046  23.4886169  67.8745346  20.0847912  23.3562965
  68.9516525  19.0225430  23.3070087  64.2998734  68.8143997   1.8405110
  64.5048141  68.0130157   1.3588254  64.9171753  68.8186340   2.5720544
  37.2261047  60.7710266  78.0566483  37.7550316  61.3259583  78.6298141
  36.3219757  61.0150337  78.2547607  62.3695259  16.8277168  47.5234299
  62.6237679  17.3462696  46.7600822  62.8527184  17.2195740  48.2508926
   5.5226150   9.8304567  10.4829016   4.6446595  10.2062178  10.5479355
   5.8488441  10.1294556   9.6341343  69.8851395  29.8463001  29.8643970
  70.1126862  29.5937214  28.9696026  70.1997604  29.1218281  30.4051228
  42.7511559  36.9921875  42.5868835  43.6647415  36.8361816  42.3476105
  42.7297821  36.8791389  43.5371437  61.1254387  71.1100388  13.8721762
  61.0271759  70.4395981  13.1960974  60.7711296  71.9052277  13.4742174
  68.7117462   4.1256313  55.4019890  68.7437286   5.0192351  55.7435760
  68.6614685   4.2339125  54.4522629  18.9278374  70.7521286  18.0767994
  17.9835033  70.9029922  18.0355053  19.2847385  71.5646667  18.4354553
   3.7550812  40.8237076  26.3272991   4.5325947  40.9309387  25.7793865
   3.2160320  40.1881599  25.8564072  69.3130646  31.3099213  76.4789200
  68.3861084  31.4784985  76.3098984  69.7575302  32.1084099  76.1941452
  66.8662262  15.7708673  68.8939438  65.9929504  15.4434862  69.1094360
  66.7387695  16.2873306  68.0981674  12.9958725  54.0926666  47.0079918
  12.4013023  54.6849022  46.5475845  12.9698801  53.2830276  46.4980469
  18.7341232  50.9062958  50.1453094  18.4261169  50.8612061  51.0504799
  17.9681931  50.6749763  49.6198807  33.9662361  22.8010807  87.0614243
  34.5884781  22.1203365  87.3176117  33.8528938  23.3311558  87.8503571
   1.8458756  58.7258911   9.8613548   1.5122845  58.7663956   8.9650803
   1.2740076  58.0970802  10.3015785  40.5802345   9.6967392  87.4528351
  40.4907036   9.7834187  86.5037842  40.8772240  10.5584908  87.7450943
  76.1663895  61.3007965  76.2095032  76.5555496  60.4325218  76.1051636
  76.9123611  61.9004936  76.1986084  83.7202301  64.0733490  31.3759651
  83.4814606  63.3625374  31.9709148  82.8910370  64.5085297  31.1777573
  56.9660912  52.9457130  49.5128059  56.1265182  53.1153793  49.9400711
  57.6037521  53.4307098  50.0366364  66.6524277  32.9954910  44.1530037
  66.7123184  33.0517159  45.1066742  65.7150879  33.0539322  43.9680252
  58.1120453  31.4685154  88.2215042  57.7778244  30.9867477  87.4649200
  58.3600922  32.3237419  87.8703766  70.7177963  44.9754410   2.2140403
  69.7941589  45.2225685   2.1688058  70.7102890  44.0830040   2.5600657
  38.4100647  23.2197742  20.9873600  38.3316612  22.4118690  21.4946804
  38.0534172  22.9980278  20.1272068   7.0916481  40.6028214  10.6025257
   7.5942655  41.3958588  10.4162445   7.0680947  40.1328621   9.7689714
   8.7123222  62.7362785  85.2435303   8.0218334  62.2170029  84.8314438
   8.5060968  62.7105141  86.1778946  72.7698135  17.5371647  -0.1652817
  71.8308868  17.3677483  -0.0881405  73.1683884  16.9893322   0.5109178
  34.0767860  70.8548126  24.4493980  34.9357643  70.4711685  24.6260433
  33.5990944  70.7623901  25.2737160  42.2407722  31.0778503  30.2686787
  41.3676414  30.7034454  30.3857021  42.6575432  30.5144596  29.6166630
  68.3747940  20.9758263  13.4916620  68.5414886  20.0571785  13.2806339
  68.6318054  21.0611210  14.4097586   1.3541186  59.6476212  15.0361471
   2.1253295  60.2145691  15.0418139   1.2360723  59.4130211  14.1156807
  55.5626411  51.2075233  20.9134235  56.4976044  51.3284187  21.0791340
  55.3835869  50.3102913  21.1947575  82.4301224  52.0649910  78.4493637
  82.7037125  52.4276505  77.6068344  83.1327896  51.4610672  78.6896973
  33.5874825  53.5083122  49.5163193  33.9865379  53.6762962  48.6626396
  33.3310204  54.3736076  49.8352585   9.7599096  60.0332642  81.1607971
   9.6856508  59.5417557  81.9788055  10.6341381  59.8221970  80.8330688
  20.6239948  24.9623661   2.4966435  20.6864605  25.8040104   2.9482667
  20.9056892  24.3197098   3.1476986  49.3815994  13.0003891  58.0182152
  49.7905579  13.5901575  57.3848457  50.0051994  12.9577818  58.7431564
   7.2395926  18.0366039  58.9217072   7.6971607  18.6094360  58.3062973
   7.0595245  17.2414341  58.4201965  82.8420029  58.5733299  19.4612904
  81.9387283  58.2572937  19.4825230  83.3746872  57.7794800  19.5090275
   8.5025206  29.1618137  10.6918030   8.3502398  29.3538361   9.7665091
   7.7323017  29.5124226  11.1390924  22.4208622   8.1216669  66.9549255
  22.3304844   8.2563705  66.0115738  22.5331364   7.1760616  67.0521698
  78.4481659  31.5183887  27.7045994  77.7952118  31.1616154  28.3067570
  79.2835388  31.1852493  28.0323277   3.9298220  39.1373367  48.1650391
   3.9134877  39.7300034  47.4135628   3.2650964  38.4783325  47.9648285
  63.1265678   5.5906024  37.9755173  62.8645363   5.2370205  37.1254845
  62.8443146   6.5049372  37.9519005  15.5338964  64.6500931  40.3670273
  16.3817253  64.9536972  40.0426216  14.9324560  65.3696289  40.1752892
   4.4038100  33.5709457  64.1742096   4.5613003  33.6135941  63.2310143
   5.1816778  33.1393967  64.5276489  30.9602623  56.3959312   1.0123544
  30.4625015  57.1673622   0.7415048  30.4115124  55.9775810   1.6757476
  28.6202793  24.4338894  79.7427597  27.7629623  24.5108089  79.3240433
  29.2468987  24.5826283  79.0346222  27.6783962  56.8417358  31.5195980
  27.9162521  57.5497360  32.1182556  28.5164890  56.4811172  31.2301350
  14.5388737   6.4030519  23.1309319  13.7929459   6.6419163  22.5806904
  15.2910109   6.4295812  22.5394783  39.0184212  22.8358994  44.7431107
  39.8407478  23.1485081  44.3659019  38.6103668  23.6197529  45.1109314
  86.7390442  53.5460434  29.1212635  86.5306091  54.4098892  28.7655163
  85.9685974  53.0134430  28.9238415  64.7106628   2.7956340  28.8676109
  65.5869446   3.0615299  29.1462765  64.2088089   3.6104279  28.8455620
  44.7158623  33.5852470   3.0207281  45.2611465  34.3492737   3.2082355
  44.6241226  33.5844879   2.0679348  40.4737473   6.1519756  80.1011658
  41.2000198   5.8561559  80.6500320  40.7117615   5.8716440  79.2174225
  32.5161896  43.3475151  43.6119499  33.2692871  43.7506027  44.0439110
  32.6937294  42.4076424  43.6487274  16.6358547   3.1686637  19.1300659
  15.9855118   2.7111344  18.5971928  16.3790588   4.0895729  19.0830059
  14.3084021  13.7204790  16.3264599  13.8366709  13.6739473  17.1580467
  14.5808296  12.8190517  16.1548691  86.0178070   4.6548758  34.2075119
  85.1371918   4.6964722  33.8346634  86.5985794   4.6239467  33.4472618
   6.5254254  44.1628799  27.8380394   7.0161586  44.0443459  27.0247974
   5.8391690  44.7915192  27.6142159  72.2462158  20.1580524  29.3561916
  71.9313812  20.7652473  30.0258389  73.1545029  19.9812927  29.6011353
  83.9570007  24.3874702  42.5250664  84.3524551  24.3234882  41.6557236
  84.1803207  23.5599995  42.9512711  11.8385248  39.4488144  85.1505814
  11.2248268  40.1829567  85.1252365  11.8351049  39.1652336  86.0648041
  50.5496521  67.0922089  35.6557693  50.4124985  68.0308762  35.7835197
  50.1712952  66.9097443  34.7956619  62.6355629  59.7399254  25.2896862
  63.1707611  59.0649033  25.7069893  61.7399788  59.5360413  25.5591068
  58.4682846  19.5736217  73.1617661  59.1614037  20.2204361  73.2938690
  57.9939079  19.5577507  73.9929962  72.8032761  47.3167381  47.5930061
  73.0228500  46.9689217  46.7286873  73.0201187  46.6078873  48.1985931
  61.8759155   2.3508596   7.3612466  61.7739143   3.3026049   7.3642888
  60.9815712   2.0143065   7.3054123   9.6939449  57.0251770  60.5353966
  10.1042824  56.6025162  61.2898560  10.1046333  57.8887024  60.4919167
  20.2042427  62.2879486  69.1485367  20.2781467  61.5455399  69.7481995
  19.2624187  62.4399643  69.0704956  82.5840225  66.6878281  70.4145508
  83.3944244  66.1966858  70.2794342  82.3228760  66.9652863  69.5364609
  59.4349480  70.3203278  38.9610291  59.0114861  71.1564941  38.7667809
  59.4324913  70.2669144  39.9167328  24.5709801  27.5452461  65.6397858
  24.8556747  28.2869511  65.1058807  25.3215160  26.9511833  65.6441193
  57.1470451  28.9911728  54.1404648  57.1837997  29.7888908  53.6127090
  57.4603500  28.3018951  53.5548286   8.4215536  48.6039467  34.7392960
   8.1532898  49.5065422  34.5672798   9.3710594  48.6090889  34.6182823
  12.4238319  62.0072250  27.3192368  13.2365532  62.4760895  27.5086613
  11.7354088  62.6598625  27.4471836  81.7806244  38.3343925  73.9692993
  81.5957642  39.2052727  74.3209000  81.4362640  38.3584938  73.0765076
   3.8799529  60.6387558  42.8022385   3.3181984  60.0472832  42.3014145
   4.6789222  60.7098198  42.2799072  61.4385757  25.7212639  58.4107170
  62.3392067  25.8154793  58.1005287  61.5110817  25.1776333  59.1952171
  19.6747036  49.7612953  61.4532776  19.3321381  49.2788200  62.2056694
  18.9881458  49.6898003  60.7901344  17.9731464  62.5556374  82.5752106
  17.1973438  62.4633865  83.1282501  18.0289669  61.7262459  82.1006241
   6.3994226  29.8500404  12.3938532   6.2990274  30.4166660  13.1587629
   6.7124805  29.0189266  12.7508898  76.0769730  43.6242142  81.9864120
  76.7516937  42.9517784  81.8925400  75.7735672  43.5345993  82.8898239
  29.7907658  67.3721313  77.4531937  29.6751785  67.5172119  76.5141373
  29.5617771  66.4518814  77.5833359  53.2973595  15.5058041  85.3881836
  53.9661598  14.8752146  85.1211777  52.8992538  15.1172981  86.1671677
  17.4454575  69.1154404  79.8199234  16.7428131  69.1656113  79.1718445
  17.6654816  70.0282822  80.0057907  75.9516296  26.5839310  47.9150887
  75.8137131  26.3724842  46.9917793  75.1343842  26.9993572  48.1903305
  24.1091080  30.3713360  85.4061432  24.8829651  29.8139820  85.3240814
  23.3946247  29.7628937  85.5946655  12.2845001  65.3717651  70.4042511
  11.7534285  64.7273941  70.8721924  11.8326416  66.2034760  70.5467911
  26.4701405  54.0895538  70.6900864  26.4973698  54.3406487  69.7668076
  26.0619011  53.2237778  70.6909027   7.9311986  56.6256676  35.3319283
   7.3053470  57.0559959  35.9144745   7.7187018  56.9622841  34.4614296
  43.8659477   3.1335196  18.1081467  42.9693871   3.1976445  17.7790642
  43.7760773   3.1851380  19.0597191   8.5216017  26.1413765   4.9781146
   9.2069712  26.2122555   5.6425524   8.4767580  27.0135536   4.5862870
  82.0726929  19.6421299  79.7966385  81.9201889  19.0366745  79.0711060
  82.5076370  19.1114559  80.4640503  84.3101425  20.3108196  45.6883507
  84.9544144  20.4396362  46.3844490  84.3243103  21.1304855  45.1942062
  79.7543564  49.6174698  75.9986343  80.5520554  49.0992661  75.8920059
  79.1147232  49.1929016  75.4269333  80.6202393  58.4422646  52.7096786
  81.2066727  57.7176056  52.9269333  80.1030960  58.1189575  51.9719353
  48.6816635  10.6206293  74.9184113  48.7931290  10.4585409  73.9816437
  48.3259697  11.5079412  74.9672928   2.5556049  10.3553076  61.3445816
   2.6201608  10.7461548  60.4732018   3.2381811  10.7919903  61.8541183
  47.6086311  65.1494904  60.6802444  46.9658279  64.6410675  61.1747513
  48.4561119  64.8383560  60.9983673   2.7051694  24.4693031  21.2576885
   2.4153807  24.3237381  20.3570957   3.6609397  24.4612160  21.2060184
  12.1016941  47.8859024  58.1609802  11.1644764  47.9778442  58.3324509
  12.3032169  46.9836769  58.4091988  79.2674942  58.3138313  85.2418976
  78.5618362  57.8557129  84.7853928  80.0654068  57.8671646  84.9589539
  62.4382820  21.9807453  78.7510376  62.6187134  21.2539139  78.1548920
  62.8434410  22.7401848  78.3323212  38.5687141  55.3921318  86.8149643
  39.0969810  56.1867180  86.7388229  38.0121574  55.5467606  87.5782242
  67.5135040  27.0152855  10.3709822  68.0905685  26.3665657  10.7739582
  67.3574142  27.6590614  11.0619402  37.5514374  49.5574417  58.9004974
  38.0338249  50.1068039  59.5183487  36.7499771  50.0482292  58.7187920
   5.0722704  53.7859535  37.6006622   4.3886337  54.4558334  37.5890503
   5.2997513  53.6918983  38.5256691  43.3168182  42.6756554  47.2465477
  43.3487892  41.9514465  47.8716316  43.7812805  42.3479843  46.4763908
  63.2947655  27.4912586  68.3180466  63.4639244  28.3841114  68.6187592
  63.2784233  27.5591087  67.3633957  43.2297630  32.5392418  79.2121506
  43.6657295  32.5445633  80.0642929  43.7605705  31.9508686  78.6752167
   6.9301229  48.1223640  15.0631647   7.0806284  49.0014992  15.4105911
   5.9951496  48.1023064  14.8590698  64.1308289  18.6847687  14.7682142
  64.8298950  18.1495152  15.1437721  64.2092361  18.5525894  13.8234320
  44.5066719  59.4627724  12.1392412  43.6766129  59.0496445  12.3770571
  44.7029762  59.1211357  11.2668991  61.3673134  55.4678726  10.1288948
  62.3000832  55.2544518  10.1538639  61.1499786  55.4831619   9.1968193
  62.8641624  57.7425308  79.3593369  62.7760124  57.4509392  78.4519043
  61.9865608  58.0373650  79.6024933   7.4028807  50.8810577  51.1008492
   7.4101143  51.1603279  52.0163727   8.1907692  50.3455620  51.0075569
  82.1250916  22.4632149  16.3510742  82.2605667  22.2826900  17.2812843
  81.4435120  21.8464184  16.0841751  56.5540733  40.4464607  15.8454933
  57.4984932  40.5943108  15.8948612  56.4562302  39.4969597  15.9169617
  64.9440842  10.2717772  19.1908092  64.2439194  10.4902945  18.5757885
  65.7399597  10.6040039  18.7755566  12.3257046  55.1350555  83.4071579
  12.3634396  55.2883720  84.3512421  11.5322294  55.5884285  83.1224060
  66.8211365  48.9172668  78.4235764  66.5761414  49.2487564  77.5596771
  67.6298294  49.3822861  78.6380539   0.1071263   5.3112130  55.9068565
  -0.7237657   4.9494376  55.5986862   0.7119123   4.5694494  55.8909569
  82.3347321   5.1530252  50.5785980  82.2460098   5.9395971  51.1168022
  82.6343307   4.4783902  51.1879768  45.1338081  41.9425545  65.1147842
  44.5096741  41.2171783  65.1376038  44.6973991  42.6177673  64.5952988
  34.7849770  40.7859077  63.9600754  35.0483284  40.4723167  63.0948944
  35.4050446  41.4872971  64.1595764  30.0395641  65.7311172  16.1951046
  30.8457699  65.2389069  16.0402050  30.1130562  66.0322723  17.1007195
  27.7555656  31.3671932  60.0156250  28.3421478  32.1223869  59.9727478
  28.1871624  30.7626610  60.6193619  52.4098053  67.3593216  64.3403397
  52.4191704  68.1586380  63.8138084  52.9512138  67.5676880  65.1017075
  26.4330673  63.2235794  61.1283951  26.1128635  62.3772850  60.8161659
  25.6441498  63.7566185  61.2269325  34.6643944  56.5148621  73.4615021
  34.9094734  56.8561134  74.3215714  35.2324600  55.7549782  73.3345718
   6.6317773  34.8929520  73.4186935   6.2163534  35.3495827  74.1502228
   6.2348781  35.2799416  72.6383438  24.1296177  58.6955147  48.1876144
  24.7024117  59.4261971  47.9547195  24.6843548  58.1118393  48.7051353
   4.1705427  60.8343506  67.7219315   4.9179273  60.8002930  68.3190002
   3.4120643  60.6533127  68.2770615  41.3521080  39.8449402  87.5780792
  40.5364037  39.8955193  87.0797806  41.2251205  40.4514923  88.3076019
  80.4897537  22.0219688  56.9174080  80.2260513  22.9408531  56.9658394
  79.9530334  21.6554794  56.2146683  31.9024372  59.9932899  66.7718124
  31.2984753  60.4783287  66.2095032  31.3346901  59.4777908  67.3446655
  52.3930054  65.5879440  74.5874405  52.4352264  65.9429321  75.4753799
  52.3066750  64.6427155  74.7112350   1.1363331  33.2460861  20.3055210
   0.6620749  33.8108406  19.6953087   0.5598062  33.1783485  21.0666142
  48.0203323  56.4834442  49.0407181  48.6479797  57.0941505  49.4271545
  47.9357147  55.7845917  49.6893158  64.3022461  43.4702797  84.8145828
  64.3692398  42.7187653  84.2255478  64.5865402  44.2154884  84.2853699
  44.7496185   5.2929606  36.7144470  44.4220314   5.5911794  35.8659286
  43.9710770   5.2483311  37.2695274  35.1238365  47.4904099  55.9061470
  35.9153900  46.9643478  56.0198784  35.4468269  48.3687325  55.7050209
  82.9853745  22.2024193  74.9931335  83.4850388  21.3876572  74.9408646
  82.7847595  22.4191875  74.0826416  38.0599251  35.3701210  33.0383415
  37.6604080  36.1530228  33.4173965  37.4227295  34.6741982  33.1992874
  72.8350449  42.2458839  22.4488869  72.7268677  42.4628525  21.5228996
  72.5771408  43.0422096  22.9131908  75.6454468   1.6629421  82.4503021
  76.5822906   1.8491304  82.5126724  75.3854218   2.0238907  81.6027527
  72.8759308  67.8163910  37.6314659  73.6764069  67.3044128  37.7469940
  73.1662979  68.6214294  37.2027130  85.6521912  29.9597340  11.6182423
  86.5256882  29.9433289  11.2271357  85.6394424  29.2055836  12.2075872
  73.5158539  62.9548187  57.9121742  73.5181808  62.0368881  58.1835213
  73.2447510  62.9326019  56.9944344   3.5846310  49.2115898  26.3344975
   3.3622816  50.0569992  26.7244587   2.7783649  48.6994858  26.3970814
  18.2456760  -0.0695654  82.1796875  19.1756210   0.0521840  81.9883423
  17.8675022   0.8058583  82.0969162  83.1269150   1.9776387  12.1140566
  82.2771912   2.1258132  11.6990261  83.6533127   1.5525857  11.4369574
   6.6720357  52.5472412  49.2993698   6.8952236  51.7152634  49.7167778
   7.4459410  53.0954285  49.4289589  27.4601364   5.6566982  25.5719910
  28.3009548   5.2862272  25.8403301  27.6145039   6.6007299  25.5372601
  51.7992744   8.8159409  69.2897263  51.3218765   8.4848003  70.0504303
  51.6594620   8.1540956  68.6124954  50.3574677  59.3766594  30.2909164
  51.1340103  58.8311119  30.1660748  50.6419373  60.2575569  30.0473404
  15.9109411  63.3035889  14.7168531  15.7183237  64.2403793  14.7561970
  15.2148705  62.8941536  15.2307434  45.6320190  31.4115467  66.5348282
  45.7280846  31.6712456  65.6185608  44.8645058  30.8396206  66.5424728
  16.0537567  59.5565147  44.5057602  15.4500380  60.1010208  44.0005226
  15.5596876  58.7573280  44.6886024  79.4377823  37.0031204   0.8273007
  79.0883942  37.7944717   0.4175219  79.3409805  37.1572838   1.7670314
  69.9587555  12.6443806   7.9622140  69.6027069  13.2175064   8.6411762
  70.7272644  12.2422104   8.3670359  26.2887459   3.0821428  41.2521400
  26.7622147   3.2537963  42.0661392  25.4084492   3.4230077  41.4106407
  25.0461578  58.3738022  13.3713560  24.5009174  58.0736656  14.0985851
  24.5954189  58.0584602  12.5880146  55.2752647   8.4803495   5.4285846
  55.7867165   8.3455372   4.6307912  54.3771782   8.6003532   5.1199255
   4.8208489  33.9502640   6.6911230   4.3470306  34.7765312   6.7860236
   5.5452952  34.1560822   6.1003203   7.9707336  62.2799797  56.2154045
   7.0419073  62.0822296  56.0953751   8.0416002  62.5508728  57.1307335
  74.4018555  36.3983650  20.3157806  74.2041397  36.8028297  19.4710617
  73.8747940  36.8897552  20.9458370  53.8706779  39.7998047  21.3309765
  53.8809319  38.8512878  21.2027550  52.9781418  39.9930954  21.6177711
   3.4137945  19.3710499  72.4093170   2.6468177  19.1051502  71.9020920
   3.1928637  19.1463661  73.3131638  23.6312695  37.2860603  82.3888474
  23.4757557  36.3575592  82.5618591  24.5669613  37.4064331  82.5507812
  86.7879105  20.9529762  17.5341091  85.8998108  20.6465721  17.7174778
  86.6663971  21.7122364  16.9640293  16.3518467  54.3093109  33.8978539
  16.9289989  54.3747215  33.1370316  16.1490612  53.3762627  33.9651413
  49.9697838  44.3711205  85.2614212  50.2286797  44.6491165  84.3828278
  49.7231903  43.4519348  85.1588593  41.7100563   6.4176250   0.3137993
  42.2254639   6.1536455   1.0759703  41.2946625   7.2384596   0.5782017
  46.0724640  64.5860291  56.4005432  46.3325310  63.6749115  56.5363960
  46.3936043  64.7986603  55.5242500  51.6882477  69.3413849   0.8413216
  51.4052277  69.2218399  -0.0652328  51.5682983  70.2762299   1.0083896
  59.6026649  69.9409103  20.2719841  59.0957947  69.2983322  20.7683735
  59.4402466  69.7177811  19.3554325  46.3097076  60.0939674  14.0263186
  45.6191254  59.9267044  13.3849497  46.7106552  60.9140015  13.7382040
  30.7052860  57.6230011  16.3261223  30.1982727  58.0405502  15.6298313
  31.4590302  58.1993828  16.4521751  66.2158966  23.4757023  68.6790390
  66.6852951  22.9835033  68.0055161  65.3048248  23.1964569  68.5885391
  50.8073616  41.1345139  82.2998581  51.4740791  41.8037949  82.4540710
  51.2333069  40.3120155  82.5413132   3.4013441   8.1830044  22.4444809
   3.2324455   8.7653122  23.1851711   3.3404434   7.3019829  22.8137035
  12.2817211  41.6413383  67.7807465  12.9837236  41.1289902  68.1819000
  11.8196917  41.0173950  67.2208786  76.5515900  16.9790249  30.1576042
  75.8190536  16.6257496  29.6528015  76.2899475  16.8649693  31.0712585
  75.4447937   2.7182131   2.9213102  75.4762878   2.7940345   1.9676379
  74.7863693   2.0433178   3.0863070  39.1300735   4.7124791  63.9944038
  40.0301552   4.4322114  63.8284569  38.5895042   4.0324798  63.5923882
  64.1744843  47.8082466  79.1357498  64.2696533  48.1408119  80.0282593
  64.9991989  48.0354500  78.7062683  39.6544533  19.5922451  67.6645432
  40.1242065  18.7690620  67.7984695  38.8101692  19.3293343  67.2980881
  45.4971924  13.8999949   2.9676123  45.8607903  13.0389757   2.7610323
  45.9904137  14.1904726   3.7348070  75.7835541  22.3549557  29.9157257
  76.6361694  22.7850571  29.9811745  75.9911575  21.4268036  29.8077240
  47.4907455  36.8679008  75.7041397  46.8083153  37.3704338  76.1490784
  47.0122452  36.2216911  75.1848297  65.9238052  20.5243340  89.2941513
  66.1963882  21.2020721  88.6756058  65.3534012  19.9496078  88.7837067
   3.8634479  65.6985626  56.5366936   3.8266637  66.6528702  56.4720879
   4.3176365  65.4219513  55.7408066  13.6183472  48.0159645  83.1735382
  14.3750916  47.8524132  83.7364120  13.7905073  47.5011101  82.3851776
  38.2253952   8.7156849  88.4601364  37.7917862   8.3093596  87.7097244
  39.0928764   8.9557190  88.1344223  86.5042267  61.9403839  63.1466141
  86.9203491  62.6954803  62.7307968  85.6210327  61.9205513  62.7780991
  38.3242073  37.7428856  83.9296722  37.4457054  37.4506149  83.6866760
  38.5422249  37.2267609  84.7057571  48.8719139  57.6585388  46.5377617
  48.5113106  57.3605118  47.3728523  49.0601196  56.8525925  46.0568695
  18.6694870   7.8451381  24.1796455  19.0742130   7.0008383  24.3786049
  17.9025688   7.8837137  24.7511196   5.2908559  29.8487587  30.5032558
   4.9598551  28.9738560  30.3002396   6.1967573  29.8397789  30.1942348
  26.5899487  54.5420303  68.0494690  26.4582634  55.4273872  68.3886414
  27.2220345  54.6493874  67.3387146  23.2084579  37.4014473  17.6870270
  22.7382851  36.5686798  17.6461334  23.6320000  37.4795952  16.8321972
  38.6573792  51.8346786   1.0868171  38.7258453  51.7354317   0.1372415
  39.0418243  52.6927109   1.2662929  65.2662506  57.0889664  29.7887192
  65.3514709  58.0351830  29.6719151  65.7647858  56.8999023  30.5836697
  37.0526924  36.5440292  66.5107269  37.5623741  36.4570999  67.3162689
  36.6075134  37.3868217  66.5987473  35.4498367   2.7904096   5.2490182
  35.4294777   3.3030748   6.0570974  34.7523117   3.1642511   4.7105608
  86.7444839   6.9300480   2.5203266  86.2891159   6.7648187   1.6947541
  86.8912888   6.0599136   2.8911982   7.3815379  10.5407286  16.5206699
   6.4905982  10.3749962  16.2124634   7.2816901  11.2194862  17.1881657
  24.3248444  69.8322372  79.8538589  24.3900337  69.7623138  78.9014435
  25.1128559  69.3979111  80.1804047  30.5853214  18.7313843  69.1622849
  30.8677711  18.4049797  70.0166321  30.3789177  17.9426079  68.6608276
   8.0109329  65.5197754  17.3380051   7.0553913  65.5370712  17.2844124
   8.3045092  65.8341827  16.4829044  30.2427292   2.4477522   9.4303799
  30.4771538   2.2074339  10.3267746  30.8299541   3.1724277   9.2153320
  52.1351891  29.8421021   3.1310465  52.4193764  29.5434208   3.9949093
  52.7158623  30.5755253   2.9282129  53.2677803  52.5433235  29.6976013
  53.5292740  53.1651115  29.0184631  54.0932465  52.2419395  30.0770817
  75.3535309  28.3494244  16.4548264  75.2095490  27.6758461  15.7901506
  76.2591858  28.2188683  16.7358646  71.5156555  46.7656822  64.7730865
  71.9173965  46.4457855  63.9653130  70.6644363  46.3291740  64.8064194
  14.3824911  39.6461220  68.0329132  14.0657749  39.1406822  67.2842789
  15.1501884  39.1638489  68.3399811  82.4261627  55.2979393  69.6127396
  82.0275955  54.7806854  68.9128647  83.2068710  54.8030891  69.8614426
  74.0414734  30.6859894  28.7225571  74.4550247  30.2609825  27.9711742
  73.9346008  31.5981789  28.4528885  53.6175117  58.6072693  18.5227509
  52.8781013  59.2125969  18.4672661  53.2145538  57.7399025  18.5618744
  76.7481155  32.7114944  47.6382637  77.6155701  33.0197945  47.9003906
  76.6296768  33.0542870  46.7524338  67.5287628  64.7733078  66.5565796
  68.0990372  64.0942993  66.1960602  67.2283630  64.4151459  67.3918762
   9.2248831  59.8016739  29.0700588   8.8229866  59.5080261  28.2524529
   9.4870415  60.7058372  28.8968639  67.7916641  11.2073593  10.8185434
  68.0237427  10.6149006  10.1034470  68.5293884  11.1503668  11.4257870
  77.0436935  46.6321678  36.1744041  77.3000183  45.7394829  36.4060211
  76.0866776  46.6168861  36.1847763  77.2381744  57.7737007  74.1989059
  78.0375061  57.4358788  73.7949600  76.7835159  58.2261276  73.4883881
  73.5150986   0.5243350  63.7938805  73.2648849  -0.2503848  64.2973022
  74.4705582   0.5463855  63.8473015  23.3378944  60.9964943  37.2529373
  22.4075699  60.8781090  37.4445419  23.7306194  60.1429596  37.4358978
  86.4138184  54.1828308   9.0528612  87.2963867  53.9750519   9.3596687
  86.1288605  53.3941956   8.5912514  51.5320663  13.2133722  62.8081284
  52.3097229  12.6595297  62.8769760  51.6499252  13.8772564  63.4875374
  85.7761307  22.2050438  82.3710632  86.1271439  21.5246220  82.9455643
  86.2802200  22.1188602  81.5619278   1.8175660  58.5686798  43.1124382
   2.7109401  58.2753563  42.9333458   1.4600880  57.9028358  43.6998863
  55.4397507   5.1363592  87.3050156  56.2723274   5.2748628  86.8535004
  54.9855385   4.4818258  86.7744370  60.1170998  28.3549881  68.2395554
  60.8062820  28.9174004  67.8860703  60.2850571  27.4968281  67.8502197
  34.0074692  41.1731110  86.3306198  33.5101891  41.9866791  86.4146194
  33.3842316  40.4860039  86.5665970  33.8641472  50.4936752  21.9129276
  33.6857109  51.0643578  22.6603985  33.1710243  50.6976013  21.2850533
  15.7820282  51.0326614  86.8230438  16.6651516  50.9854965  87.1892395
  15.8634691  51.6269722  86.0771255  26.3311768  71.0478592  20.8001099
  25.4008198  71.2676544  20.7515774  26.7767124  71.8081512  20.4263592
  38.2285500  11.1887522  61.4193459  38.9246292  10.6580181  61.0320053
  38.6828270  11.9440660  61.7926636   3.0617645  44.8539009  72.0814133
   3.6355512  44.3219681  71.5300064   3.6006155  45.0803909  72.8394165
  44.3447151  19.7205467  88.4820557  43.7905159  19.2730980  89.1214905
  43.7293053  20.1879120  87.9171906  34.6427879  43.2734833   0.4319210
  35.3926430  43.7704849   0.1049036  34.6946297  43.3602753   1.3837671
  66.3029251  64.2812119  88.5254822  66.2021484  64.2731934  87.5736389
  66.1281509  63.3787613  88.7924423  76.5605469  55.3793716  22.2894440
  76.5843506  55.2257195  21.3449574  76.2502747  56.2805710  22.3777523
  41.4661522  48.2899971  84.8161087  41.6800232  48.6737404  83.9656754
  40.7886238  48.8635902  85.1741257  36.9262352  10.7177629  86.6188278
  37.0348282  10.9649525  85.7004929  36.5917892   9.8214340  86.5876617
  60.7138100  34.8381538  59.6141014  60.2084618  34.2927094  60.2168808
  61.1573715  34.2134361  59.0403328  48.6916771  70.2185440   1.6085709
  48.0803413  69.8236694   0.9868224  48.9083633  69.5098190   2.2143676
  44.8012009  68.9909286  23.2738934  44.2985573  68.9803619  22.4593582
  44.2373390  69.4487076  23.8973732  50.5389748   2.3657088   7.8469391
  50.9426651   3.1993873   8.0882826  49.8687820   2.6009893   7.2052913
  39.5977554  64.2449722   4.1059308  40.4919891  64.5862808   4.1149158
  39.2861862  64.3659668   5.0028787   6.0787168  30.3685684  79.4318924
   6.1695113  30.3398819  78.4794388   5.5667672  31.1597004  79.5999680
  29.8236523  69.8655701  42.7548180  30.2025337  70.0222549  41.8898697
  30.3432713  70.4101486  43.3461380  56.1875343  65.5201645  71.3816528
  55.7036972  65.7123947  72.1848831  55.6964417  64.8087234  70.9706726
   1.0745050   0.2998187  49.7818565   1.4114983   0.7133287  48.9870758
   0.4225187   0.9165351  50.1147346  83.2320404   3.2632565  86.6610870
  84.0852432   2.8862007  86.8758316  82.5991669   2.6680241  87.0628357
  30.8137321  41.7289619   6.3647947  31.5053825  41.3692474   5.8094082
  30.0040035  41.3705101   6.0013595  79.0993729  70.4507751  75.3779144
  79.9201584  69.9914017  75.5554733  79.2940674  71.0058441  74.6227875
  56.1021881   3.1307044  76.8492355  55.4121208   2.7877312  76.2814255
  55.6377792   3.4586804  77.6192932  10.3603802  28.1620693  76.4952698
  10.5184546  28.1090603  75.5527039   9.7141190  28.8616810  76.5907745
  30.4530029  56.9726677  21.2627449  30.8332291  56.2306290  20.7925968
  30.5343208  57.7080688  20.6554527  18.5734444  26.9208241   0.8874524
  19.4068680  26.5435638   1.1690770  18.0625534  26.1714439   0.5814258
  85.9426575  47.3336525  13.5183935  85.7521896  48.1461029  13.9873018
  86.1807785  46.7108994  14.2052040  72.9325562  71.1344757  66.9631424
  73.6079025  70.4719009  66.8177719  73.3956757  71.9688721  66.8886642
  15.4011126  49.6901398  55.3968506  15.3297386  48.7568436  55.5970840
  16.2679577  49.7847977  55.0020676  70.9987869   0.0177469  81.5635605
  70.5426941   0.7833973  81.2142868  71.4069061   0.3298492  82.3711853
  66.3877640  40.7080612   3.4559617  65.7352676  40.4743042   4.1161380
  67.1678925  40.9374237   3.9609611  41.3041878  65.4331207  68.8850174
  41.5051422  65.1642838  67.9885941  40.4735069  65.9033279  68.8135376
  83.9551239  31.4075470   9.8149137  84.7335281  31.9416046   9.6564732
  84.2413940  30.7486992  10.4475269  48.4521255   5.9274230  37.4433556
  48.2341042   5.5914230  36.5739861  49.0116272   6.6853466  37.2738228
  51.5001221  20.7450027  76.9878693  51.9895973  21.5302620  77.2328415
  52.0878944  20.2699223  76.4004517  73.4845276  36.3238983  28.0624828
  74.3606262  36.7040100  27.9977570  73.1908646  36.2430801  27.1550331
  85.5860443  11.5580645  43.1386757  85.0559921  10.7834702  43.3264885
  86.0451889  11.7387314  43.9589081  35.2851791  13.6630993  73.5156479
  35.0322189  14.3146915  74.1696167  34.7007484  13.8271646  72.7755432
  43.1191864  34.2686691  15.8770523  44.0031357  34.3681946  16.2305431
  43.1980095  33.5692978  15.2282848  61.4662209   2.2949028  33.4790649
  62.2675591   1.7966408  33.6397591  61.0449486   1.8419257  32.7486000
  33.6387634  46.0441437  58.2167206  33.0686493  46.6175194  57.7044296
  34.4521599  46.5394058  58.3133545  57.4966850  68.1791687  52.1449852
  58.3973007  67.9818573  52.4022675  56.9591103  67.6244278  52.7102318
  11.6977167  16.0219059  20.2830868  12.3540039  16.1159706  20.9734993
  11.1079922  16.7650490  20.4103489  68.3843613  39.8739929   0.1752424
  67.5031891  40.2476540   0.1629542  68.2431870  38.9272881   0.1679187
  38.4075012  37.2706070  69.0301514  37.4764214  37.1102142  69.1837540
  38.4411163  38.1545067  68.6643372  61.0631866  13.2015610  78.0327530
  60.2123070  12.9704409  78.4053345  61.0142708  14.1471319  77.8922653
  84.5532074  53.9650726  25.5876465  84.5067902  53.4287682  24.7961578
  84.6346664  54.8623886  25.2645149  30.3236408  43.1343269  26.1494293
  30.6727543  43.9986839  25.9320908  30.5448380  42.5897789  25.3939342
  68.9501953  45.9962654  64.6670837  68.8170166  45.9479256  65.6137390
  68.5054169  45.2217636  64.3227844  66.1670685  11.9437313  21.3006821
  65.5219727  11.2835493  21.5541286  65.8364868  12.7589140  21.6780758
  13.0262680  60.0743294  55.7549744  12.6019964  59.6058006  55.0361481
  12.4563046  60.8252258  55.9208870   3.3212991  32.1683655  33.2402840
   3.2339573  31.3164864  33.6679611   3.6280749  31.9626942  32.3572083
  21.2682667  51.9780197  21.8906822  20.4465122  51.8171387  21.4269257
  21.8933697  51.3765755  21.4860287  51.1243057   1.6782777  32.3727493
  50.1701088   1.6184561  32.3262901  51.4136276   1.6019634  31.4635181
  39.9891968  19.7985973  10.1202621  40.8859673  20.1081448   9.9929342
  39.4798737  20.5950890  10.2700024  61.2368507  42.2063255   6.7836404
  62.1788445  42.0453262   6.7292461  60.8937340  41.4578362   7.2717705
  60.7512360  37.2797356  58.7985268  60.7157784  36.3667603  59.0839233
  60.5999222  37.7861900  59.5965500  64.9025116  35.1069374  63.8135681
  64.2093048  35.7315712  63.6001930  64.7426224  34.3637581  63.2318878
  72.5521545  63.1348534  22.4120121  71.7089767  63.3247986  22.0006771
  73.1451874  62.9719467  21.6785202  76.1021194  23.7131557   0.8897243
  77.0226822  23.6759911   1.1493472  76.0606766  23.2033501   0.0806425
   6.3135839  63.3015251  76.0079880   5.5781407  62.7359810  75.7723694
   6.0286765  63.7443771  76.8073273  46.1504364  13.2078915   8.6294050
  46.1427765  12.7140865   9.4493628  45.5960121  13.9686699   8.8027906
  59.8874512  33.9731293  22.3378582  60.4038696  34.3244095  21.6124973
  59.2330132  34.6487732  22.5152016  56.9813919   1.7019198  32.5688515
  57.9048309   1.6404260  32.3244896  56.5694809   2.1587787  31.8354740
  46.5458450  55.5439072  44.3473892  46.0389595  55.2114143  43.6066170
  45.9788704  56.2020302  44.7494431  55.9248772  20.8906898  13.9724121
  56.8466263  21.1005688  13.8222075  55.8784485  20.6676064  14.9020948
  63.1644707   6.3157220  73.4922714  62.4541397   6.1607814  74.1148911
  63.2281990   5.5009284  72.9939957  51.4842834  27.9167137  81.6859283
  51.7976570  27.0123501  81.6984100  52.2273827  28.4320450  81.9997253
  10.5823736  40.6148300  48.2433205   9.9134893  41.2690086  48.4455070
  11.3764687  40.9468918  48.6621056  51.8975563  70.1259460  29.1212845
  51.8185081  69.8554077  30.0360470  52.8245811  70.0058823  28.9152584
   8.1504335  37.9392014  50.0183220   8.5943718  37.3403397  50.6187477
   8.5182848  38.7990723  50.2221451  27.3081875  32.7363281  84.4958420
  28.2122498  32.4606400  84.3445206  27.3350639  33.1952095  85.3354492
  69.0193863   4.8393927  48.5037155  68.4623184   5.5452561  48.1755867
  69.4071350   5.1927862  49.3043365  47.5821686  12.6794529  42.0283127
  47.2858429  13.0353518  42.8660202  47.1077385  11.8530293  41.9379158
  34.9884148  67.6693954  53.8430748  34.1654549  67.3588638  53.4655304
  35.0844650  67.1683960  54.6530190  79.1752853  23.2976208  17.0267754
  78.4860992  22.8390064  17.5073166  79.6207504  22.6097908  16.5321198
  32.2845230   8.1666012  65.7986679  31.6008263   8.8276091  65.6897812
  31.8813648   7.4929862  66.3463364  19.2486305  68.5451889  30.2384682
  18.7701454  67.7175980  30.1897011  18.6120701  69.1697617  30.5862236
  46.1654015  55.1039734  19.3265133  45.5769310  55.5514793  19.9345207
  46.1114807  55.6165962  18.5199528  20.3754063  44.7903099  48.6679077
  21.1992493  44.8980827  48.1926193  19.7498074  44.5062141  48.0014648
  28.9081802  57.2577248  70.3485947  29.0904446  57.9631653  69.7278137
  28.1596699  56.7948570  69.9721451  25.1133060  22.2685661  84.1424332
  25.9409618  22.7163944  83.9673080  25.1782646  21.9942913  85.0571899
  52.5663567  51.0264664  32.3587914  53.1284409  51.3830910  31.6709576
  52.1691132  51.7960281  32.7664795  86.6567154  15.7711353  32.3590393
  85.9485855  15.2318754  32.7111511  87.3886337  15.6267471  32.9587746
  29.8252029  37.8548088  37.7264023  30.6062317  37.8104439  38.2779961
  29.2006969  37.2641563  38.1475334  21.1824703  55.3767815  58.7480316
  20.6704712  56.0429573  59.2066116  20.5661182  54.9847565  58.1294327
  67.7633972  42.5330696  86.6718292  67.5825729  43.4639626  86.8021164
  68.3199921  42.2912979  87.4120865  37.1527290  44.9596977   3.6527421
  36.8060760  45.6896744   4.1657715  37.5746307  45.3747215   2.9004211
  21.9364471  31.1704464  14.1761456  21.5683670  31.8602352  13.6239319
  22.7582550  31.5374565  14.5019779  31.5454235  45.4891357  63.2816696
  31.5533009  46.4195862  63.5062294  30.8117504  45.3955994  62.6740456
  32.7583771  43.7353058  87.5825195  31.8870659  43.6769524  87.9744949
  33.3554230  43.4847450  88.2874908  51.0387611  24.5647926  22.4277897
  50.8869781  24.4517975  23.3661003  51.3138962  25.4771748  22.3378353
  59.6904869  25.3230648  34.5362740  59.6300621  24.3707771  34.6119652
  60.5469398  25.4777985  34.1378059  69.7194519  25.6026115  74.6257172
  69.0556641  24.9537544  74.3920593  70.1976242  25.7599392  73.8115692
  44.6112862  50.2324562  64.9944687  43.7570648  50.5407906  65.2968979
  45.0242844  51.0071869  64.6130753  78.7325592  11.0319481  76.3869095
  78.9556808  10.1991282  76.8026733  78.4372025  11.5880213  77.1078644
  85.7746429  42.7876358  46.8204460  86.3873749  42.7051544  46.0896950
  85.4253693  43.6752968  46.7411270  72.7422333  60.9018669  86.2475510
  71.9132996  60.7464943  85.7948303  73.2427444  60.0969925  86.1137466
  70.3209534  17.3492908  47.7288933  69.8342285  17.1348400  46.9330635
  70.2314758  16.5725136  48.2810173  27.9827938  38.4497948  75.8437500
  27.3369370  38.9630699  76.3291855  28.6306496  38.1964684  76.5012741
  58.7746048  41.7133789  47.9871483  59.5223198  41.9303055  47.4302864
  58.0153999  41.7898178  47.4092255  57.4418831  69.1858826   4.2355313
  58.3884735  69.2949677   4.1444626  57.1281319  69.0592651   3.3401191
  41.9557114  16.6675167  69.0271606  41.0306931  16.4733429  69.1783829
  42.3038330  16.8666859  69.8962860  51.7734985  16.2981472   7.5501094
  52.3535957  16.7595387   8.1557808  51.9610519  16.6869450   6.6957722
  68.3537674  46.4733849  31.3350506  69.2488327  46.2150116  31.1151810
  68.0831146  45.8497086  32.0088501  76.3022537  15.3010340  42.3726997
  76.9854736  15.7710619  42.8507423  75.8179245  14.8286228  43.0498123
  42.5426712  51.5208015  75.4333572  42.4866333  52.4627953  75.5937958
  42.7203445  51.4477043  74.4956360  82.4408035  46.6896439  20.1245480
  81.7674255  46.0094032  20.1331043  83.1796036  46.2895546  19.6659298
  85.6365891  27.1905384  69.7293777  84.7746887  27.2396603  69.3159103
  85.7127228  26.2807732  70.0170670  66.1738434  41.2884750  83.9853287
  65.7890854  40.6683006  84.6046677  67.1010513  41.3184280  84.2211685
  80.3153381  40.1700897  18.1807842  80.1656799  39.5021019  17.5117359
  80.0907593  39.7381554  19.0049381  47.9393501  33.1537857  68.2043610
  48.2111130  32.3313026  67.7970581  46.9866829  33.1635742  68.1118240
  23.2739544   4.5555916  87.1188049  22.3451939   4.6445475  86.9049835
  23.4421539   5.2542849  87.7510834  70.4915771  45.2561264  43.8463020
  70.9142838  44.5827522  44.3793297  70.6078110  44.9559822  42.9448395
  68.2315674  48.7568703  47.3600578  68.8390198  48.7231255  48.0990372
  67.4109421  49.0721054  47.7387848  80.8130341  68.8415985   0.9135060
  80.6874466  67.8936844   0.8696893  81.5064697  69.0209351   0.2785078
  34.7818146  14.8344698   6.7502031  34.5817566  14.8598795   7.6859193
  33.9626694  14.5607786   6.3374934  75.7493134  21.1374836  61.3531303
  75.8028717  20.2653446  60.9623146  76.4020844  21.1267624  62.0531349
  34.6272049   1.2238617  68.9665909  33.8015709   1.1320395  69.4421234
  34.4583626   1.9133512  68.3244629  31.0251617  41.4685364  23.6326256
  30.9291973  42.2138367  23.0397110  30.9907818  40.7016373  23.0608540
  68.5601959  55.0333710   9.4240856  69.3412476  54.4883614   9.5197716
  68.5721436  55.6058235  10.1911507  25.5835876  70.2970123  71.4327316
  25.7765656  69.9926605  70.5459595  25.2267685  69.5281830  71.8774872
  14.8077164  24.1955376  15.4088717  14.1786728  24.2135906  14.6876154
  15.6139078  24.5485172  15.0324488  72.0648041  59.2635956  31.1818027
  71.7283173  59.3760948  30.2927876  71.7802811  60.0503197  31.6469326
  72.8509369  44.0242691  75.4634094  73.3759079  44.5754318  76.0438004
  72.7956161  43.1832428  75.9171066  72.2681274  25.7171478  18.2202415
  72.4923706  25.3358231  19.0690861  72.8216629  25.2503242  17.5942173
  22.4294167  48.8808022  61.6507645  21.7093792  49.3438072  62.0790215
  22.8666172  49.5511856  61.1257210  27.9043198  41.4715233  80.6535568
  28.1401844  41.9280357  81.4611435  27.5604382  42.1580582  80.0820236
  65.6908340  24.1635609  56.5792236  66.5989456  24.4200573  56.4186974
  65.7535858  23.2917118  56.9693222  40.3477745  50.2281303  75.4737778
  41.0762901  50.8429642  75.5602722  39.6283836  50.7563286  75.1277771
  44.3958588  53.7106781  75.3357697  44.9603882  52.9624786  75.5300369
  44.9210930  54.4749641  75.5728989  74.2695312  31.7743759  67.0582657
  73.4238434  32.2165909  67.1324081  74.4201355  31.7019806  66.1157608
  35.1975098   7.2494097   7.1371145  34.8168068   6.9727149   6.3036056
  36.1026382   6.9400573   7.1014476   9.4626884  16.2863426  65.1031189
   8.7013083  16.6194191  64.6281509   9.1059999  15.6195965  65.6900177
  37.9610825  64.5863037  14.5287724  37.7522202  64.3662262  15.4366131
  38.7255402  64.0487213  14.3217955  84.5745926  70.1192169  77.7010345
  84.7949371  69.2611542  77.3385391  84.6907272  70.7253342  76.9693451
  71.9297867  56.0174141  41.9747772  71.9999771  55.9833908  41.0207596
  71.3001022  55.3303947  42.1932602  63.3315201  33.4923172  41.1146889
  62.5773697  34.0672684  41.2447701  63.5644379  33.1997261  41.9958076
  20.0879173  32.8120308   5.3122373  20.4993172  33.6373558   5.0556779
  19.3213501  33.0747414   5.8217363   0.8064727  56.4656487  70.9106674
   1.6524261  56.7037735  70.5313339   0.4455001  55.8190727  70.3041382
  13.1645508  60.5317230  21.9292145  12.8228760  60.4258957  21.0413570
  13.1779661  59.6444206  22.2880306  60.2326393  52.4189339  88.1094971
  60.2572861  51.8696556  87.3259659  61.0383873  52.2028923  88.5788956
  59.4544258  18.4341087  33.1785049  58.6939888  18.4955177  32.6004105
  59.8961716  19.2779655  33.0836411  62.9061203  15.1504889   8.9896889
  62.4419174  15.2420788   8.1576090  63.8091049  15.3961983   8.7884998
  36.4893265  57.0652275   9.0715885  36.1661758  57.5079117   9.8563404
  37.4417458  57.0738907   9.1667509  77.1567993  28.6987610  58.4551315
  76.9114838  27.8221931  58.7512436  77.6523361  29.0684757  59.1858749
  16.5752106  20.3728333  74.5514297  15.9413910  20.7616196  73.9486465
  17.1968079  21.0777740  74.7328415  78.4815140  66.2152023  29.8540173
  78.1733398  65.4111938  30.2721405  77.9919510  66.2609100  29.0327568
  35.6112289  25.7375507  74.0582657  34.8512917  25.7374210  74.6402740
  35.2965622  26.1495018  73.2535858  11.3177824  40.4636421  23.3784809
  12.0135717  39.8072357  23.4136372  10.8128576  40.2358818  22.5978355
  86.0129929  28.1032944  49.2023392  86.0870590  27.6179962  50.0240631
  85.1720810  27.8285046  48.8368492  14.7732601  39.3506432  33.0180016
  13.8246155  39.4410057  32.9277802  15.0763826  40.2282143  33.2508392
  65.6890030  60.1368370  61.0796852  66.4459152  59.5574303  61.1669197
  65.1842041  59.9935989  61.8802414  53.2877121  22.6231632  51.6361923
  53.5894356  23.5249233  51.5265350  52.6015701  22.6793804  52.3012352
  51.7338409   8.0707245  22.5725517  51.9166718   8.9511137  22.2443447
  50.8924217   7.8385897  22.1796684  27.6204243  68.8639450  68.0002213
  28.1256657  68.0509491  68.0000916  28.2334843  69.5268784  68.3178864
  50.2524033  50.0735168  33.5695038  50.4482574  50.5341454  34.3854027
  51.0131187  50.2388763  33.0125465  74.8319702   1.6828121  66.4635620
  75.3909683   1.2854296  65.7958527  75.3502502   2.4101393  66.8079529
  51.7730980  28.2204590  71.2509155  51.6003113  27.8038158  72.0951767
  51.0644341  28.8555870  71.1477661  25.3451080   0.9003021  13.1146908
  24.9533253   1.5583695  13.6888733  25.5191860   1.3681666  12.2979708
  51.9583549  59.6394577   6.3132262  52.3350105  60.1444550   7.0338769
  52.5480461  58.8925247   6.2103066  64.2304459  54.3123970  69.9441452
  63.5261192  54.0306091  70.5278854  64.5915909  55.0931091  70.3640213
  56.5251656  41.7868004  46.4446487  55.7052460  41.9912224  46.8942871
  56.3355103  40.9883728  45.9519272   9.5687103  40.8324509  73.5180054
   8.8468113  40.3027802  73.8564453  10.1259212  40.9925232  74.2796631
   1.9490006  19.0057621  81.4438858   2.1065443  18.2111301  81.9537659
   1.0806481  18.8772163  81.0622177  36.7785912  38.9897690  15.0703526
  37.2596855  38.2694931  15.4777613  37.4437256  39.6572990  14.9023485
   5.8552279  27.4057522  21.1437836   5.9208021  26.4508018  21.1428566
   6.6939893  27.7030811  21.4963551  59.2292519  51.0947151  73.6286392
  58.4132271  50.5991669  73.6976700  59.2208290  51.4472733  72.7387695
  78.2203217  71.4526901  44.8466682  78.1068954  71.0045853  45.6848640
  78.4112625  70.7512283  44.2239876  58.4902687  48.6777763  86.2452393
  59.3051071  48.1854362  86.3446121  57.9023628  48.3027763  86.9009628
   5.8210921  28.2367382  67.3640900   4.9323678  27.9284401  67.5411530
   6.0159507  28.8336105  68.0865860   0.3818804  15.1950750  74.0474396
   0.4600691  15.5923958  73.1801147  -0.3588070  15.6467562  74.4519119
  68.8809280  24.5831184  36.2674942  68.6703491  25.2580967  35.6222878
  69.0871429  25.0703201  37.0652046  47.6082420  33.8936462   1.1526436
  46.7622375  33.8936615   0.7048600  48.1643906  34.4564056   0.6139122
  33.8260307   1.1692543   7.7152667  34.3915100   1.9414090   7.6996136
  32.9725266   1.4915237   7.4256039   7.1309438  34.6309166  20.0651760
   8.0286007  34.9412003  20.1842041   7.1350269  34.2100143  19.2054920
   3.6156895  51.2551346  48.6795044   2.8138871  51.2860374  48.1575966
   4.0618353  50.4606323  48.3863258  85.2861862  56.2363625  68.8554840
  84.3840866  56.4500694  69.0937653  85.2047882  55.5129700  68.2339478
  58.0814133  30.8974209  29.5769711  58.2092476  30.1376762  29.0089226
  58.9189148  31.3601341  29.5501747  82.1404037  12.2947149   3.0304778
  82.6433487  12.6326857   3.7714608  81.7098007  13.0659084   2.6616001
  42.1127129  60.8024025  24.8569603  42.9329834  60.8377953  24.3648872
  41.4298210  60.8557816  24.1883488  65.8988953  60.9069366  72.6563873
  65.2546616  60.2222710  72.4763336  65.3853149  61.7134933  72.7003250
  22.0494900  38.4363136  84.6700134  22.1318684  38.0296669  85.5326157
  22.8285542  38.1484871  84.1941452  80.6202011  15.1719761  59.7086334
  81.0966721  14.9187565  60.4992561  81.2427139  15.7051868  59.2142715
  25.1346989  10.8942709  80.8751221  24.8233337  10.6647882  81.7506866
  26.0024300  11.2712221  81.0206528  14.3681345  55.2284012  85.9605026
  14.3858309  54.8005524  86.8165741  15.2760038  55.1979485  85.6587067
  64.4543610  63.5404549  67.2221222  63.7471466  63.0233269  67.6076736
  64.8707809  62.9477730  66.5963745  17.3030338   7.1660962  64.4578552
  18.0742168   7.6078568  64.8133240  16.6715164   7.1707711  65.1771545
  75.4653549   7.4195671  85.3350906  76.4159851   7.4765363  85.4314804
  75.3230591   7.3690534  84.3898697  71.7207108  25.4153042  21.0338459
  71.3006287  26.2346840  21.2953320  72.5380859  25.3957214  21.5315857
  12.7895298  51.7459602  44.9330864  12.2406015  51.9785233  44.1842041
  13.3228273  51.0148048  44.6212616  65.8674469  68.9991608  25.2159481
  65.4755554  69.3642654  24.4226303  66.3559952  68.2343521  24.9116173
  74.4811401  68.2544632  86.9933929  75.0854034  68.6147461  87.6424713
  73.6128693  68.3922501  87.3720245  62.0189590  52.0509567  55.2074585
  61.2658386  52.2720490  54.6595879  61.6777534  52.0674896  56.1016235
  78.6092987  55.4983711  53.1443329  78.7121353  55.7613029  54.0589485
  79.2902451  54.8399467  53.0063934  61.3922195  58.7643013  86.4847412
  61.5630798  57.8232613  86.4461670  60.8430824  58.8764114  87.2607040
  54.0160637  69.2402573  62.7252388  54.7491341  68.6816254  62.4668427
  54.2059250  69.4802856  63.6321945  42.0037346  20.9539051  72.0412292
  42.4748421  21.7842407  71.9717026  41.1624260  21.1195126  71.6157761
  81.4052048  12.7801409  33.7555962  81.6278839  13.2761154  32.9677811
  80.9567871  13.4120007  34.3176498  53.5289001  71.6001053  19.1015873
  53.9137230  72.2879410  18.5584221  53.9304390  70.7913361  18.7839737
  46.1477318  55.3152428  26.5503864  46.7300568  55.9363670  26.1129723
  45.9133492  55.7451057  27.3728905  19.0391426  64.4485321  47.2845268
  19.5546055  63.9760933  47.9382362  19.6843185  64.9550095  46.7911186
  56.2602234  16.5523815   2.8374658  56.7712479  15.9869757   3.4166079
  55.5061226  16.8162804   3.3646462  31.5064640  43.4054947  21.5640049
  31.4607296  43.2924042  20.6146107  31.3781872  44.3442841  21.6998348
  79.9435730  52.1216049  17.2494030  79.6241226  51.6755714  16.4650326
  79.6641617  51.5618019  17.9738197  63.0044060  63.9590836  63.9834862
  62.8771286  63.9027824  63.0364571  63.9522820  63.8977890  64.1018219
  51.5139046   2.0595601  17.0565624  50.8470612   1.5220720  17.4839458
  52.1750603   2.2040777  17.7334824  45.1570053   4.1327052  46.9877090
  45.4995766   3.7845554  46.1645012  44.5105553   3.4859827  47.2707024
  55.4104500  63.4028511  86.8941269  55.9647408  62.8716965  86.3224030
  56.0096207  64.0385208  87.2854691  33.4072571  54.9548264  17.1073933
  33.9916115  54.8321152  17.8555279  32.5387001  54.7329750  17.4429760
  81.0304260  42.4218292  55.9093208  81.3094406  42.0052872  56.7247200
  80.2075119  41.9862595  55.6872368   5.5534716  37.6401482  64.4580536
   5.0705042  38.4505234  64.6201248   5.1884031  37.0145226  65.0837936
  50.1690292  64.0236359  57.8227386  50.1192093  64.8641739  58.2779884
  50.8579216  64.1455536  57.1694412  72.5746765  18.5236835  14.3590546
  73.1794281  18.5802822  15.0988522  71.9586563  17.8337498  14.6055136
  31.2986603  64.6090469  29.2834435  30.9783840  63.8403549  28.8114643
  30.5350761  65.1818848  29.3543816  84.0151443  44.4448395  12.7318745
  83.9564133  43.6516800  12.1992569  83.3256989  45.0142746  12.3903570
  81.5529938  58.3934097   2.2567477  81.7820816  59.3191872   2.1749513
  81.2322998  58.3044243   3.1542253  36.4873161  45.9588585  22.5011959
  37.2623672  45.6744156  22.0168228  35.7681046  45.8700714  21.8758316
  73.3884048  69.1566010  64.5756836  73.8872528  68.4292603  64.2037201
  73.2268829  68.8971329  65.4827728  61.6990089  59.5652161  33.2592850
  61.2001572  60.0890427  32.6324005  62.0110893  58.8165283  32.7510490
   4.4041586  42.5314827  19.6433887   4.2378192  42.2115974  18.7566910
   5.2514119  42.9728889  19.5837631  42.0119972  62.9653816  29.5551567
  42.2743950  62.2497673  30.1341877  42.2194061  62.6500473  28.6755104
  80.1237259  43.2761955  40.7346497  81.0655289  43.1362343  40.6364059
  79.8755341  43.7856331  39.9632149  31.1527557  38.9207344  79.0591660
  30.7841949  38.0838928  78.7761765  31.1487999  39.4631424  78.2704926
  28.7315235  28.0594254  73.4484100  29.5272331  27.9054279  73.9576874
  28.0181446  27.9263039  74.0725937  84.1602249  13.8905115  56.6151352
  84.8324127  14.4439516  57.0127487  83.6397858  14.4914265  56.0819588
   2.9471457   9.9914274  11.3931179   2.3626635  10.7450171  11.4750643
   2.6401424   9.3766327  12.0594578   5.3426018  58.0307770  23.8407402
   4.6980591  58.3632584  24.4654446   5.9581046  57.5294724  24.3756046
  40.3184929  68.5587234  14.0297194  39.4293404  68.8369751  13.8101406
  40.2005501  67.8912125  14.7055540  49.5829315  57.9326286  18.4012375
  49.9437943  57.7678986  17.5301056  48.7904396  58.4444733  18.2393379
  14.0307674  50.1058273  17.2376595  13.3678732  50.2356300  16.5594597
  14.7549286  49.6733665  16.7851105  26.5068684  46.6101189  24.0891094
  26.7669506  45.9857216  24.7663956  25.6958351  46.9970970  24.4188118
  57.3091850  32.4607086  70.2373962  58.1614418  32.7194366  70.5880356
  56.7547302  33.2307968  70.3629761  73.1616364  18.5618057  37.1599312
  72.6735840  17.9071350  37.6593704  73.6685562  19.0365868  37.8186035
   2.9941790  36.3210602  78.2553177   2.4663398  35.5730972  77.9757309
   2.6709120  36.5279198  79.1322098   1.5300615  37.9795799  47.4916496
   1.7253938  37.4953308  46.6894150   0.9446703  38.6827621  47.2104340
  30.4430656   0.5928844  34.0751076  30.3679600   1.2744370  34.7429962
  29.9007435  -0.1245081  34.4029274  14.4943256  62.5123749  80.1068649
  14.0651197  63.0900993  80.7379303  14.4104757  61.6379356  80.4870758
  34.5025406  63.5774307  85.6607742  34.3504295  62.7307663  86.0805969
  34.2869759  64.2214203  86.3353424  55.6838875  15.8399839  29.3658428
  55.8826637  14.9038095  29.3486423  55.0075951  15.9289389  30.0373726
  20.6094627  70.8501282  57.1600609  19.9853001  70.5194244  57.8060379
  21.3994751  70.3284760  57.3014336  52.7465248  22.6899471   2.9987080
  51.9454422  22.5482693   2.4943016  52.5251236  22.4043369   3.8850708
   7.0003338  32.4499931   7.5266352   6.1593056  32.8996887   7.6083479
   7.6376944  33.1539879   7.4066405   1.4751102  11.3977489  25.9645958
   0.6375034  11.7806425  26.2254410   1.8405993  12.0241270  25.3398552
   3.1615567   8.9972963   5.9514899   2.8873346   9.7514629   6.4732823
   3.1816392   9.3231611   5.0516891  63.1040039  24.4144688  26.7075863
  63.7483788  23.7235260  26.8612366  63.6083794  25.2267399  26.7529182
  51.7140846  14.2352591  21.1400871  51.4871788  15.1611204  21.0533428
  51.0400047  13.7755451  20.6395760  65.4692383   9.8091326  28.1976833
  66.4182434   9.9089861  28.1225033  65.1114883  10.5747089  27.7480831
  86.4021835  30.7972412   8.3258915  85.8817291  29.9992085   8.4180727
  87.3074875  30.5069733   8.4372683  29.6632538  45.4509354  54.4519691
  30.3075829  44.8934746  54.0157242  29.8669891  45.3686218  55.3836060
  33.4159431  69.0227814  10.4619246  33.6988716  68.7506180  11.3349133
  32.5021591  68.7428741  10.4081984  74.8328781  34.2831192  60.0271645
  73.9001236  34.3154945  60.2396545  74.9780579  35.0471649  59.4691391
  43.7482224  63.4175606  50.4048767  43.1135902  62.8879623  50.8875771
  43.2730484  64.2186127  50.1840630  32.3676376  22.1438541  75.7082291
  32.1056633  23.0239220  75.4378967  32.8941841  21.8161297  74.9791336
  80.3829269   2.4001997  53.8717613  80.0981140   3.2979999  54.0422478
  79.9816589   1.8846891  54.5713730  50.2763214  62.0977287  11.1805496
  50.2304497  61.2558098  11.6336517  49.7155838  62.6777992  11.6956434
  42.8439713  26.0869999  86.1016312  42.0792503  26.6573772  86.1797409
  43.3701172  26.4854126  85.4083252  31.2419605  62.3854218  79.2424545
  31.1567650  63.2411728  79.6627731  31.9220562  61.9379463  79.7459106
   6.6477532  36.6521492  84.3180237   6.5422764  36.6958504  83.3676605
   6.9507961  35.7595940  84.4845810  32.6475906  50.4771652  45.1387825
  33.3318329  49.8171921  45.2504845  32.2371178  50.5448875  46.0008507
  77.6056519  16.0652428  17.4774704  77.9756699  15.7452745  18.3002338
  77.8799515  16.9811554  17.4316597  77.3996124  32.2375565  86.6693802
  78.0295029  32.0348206  87.3610229  76.8777008  32.9572487  87.0241776
  72.6532364  31.8619480  52.2747002  73.1716690  32.0243645  51.4866142
  73.0800552  32.3840828  52.9539909  79.2986984  20.3014908  75.8534164
  79.5532608  21.2063446  76.0341644  78.4415207  20.2063274  76.2686539
  44.8269806  58.7817993  17.7686176  44.7068405  58.5039635  18.6766949
  44.3351555  59.6002350  17.7014923  69.4967499  51.6517792  27.6667538
  69.6322479  50.9771767  27.0013351  70.3701935  51.8168106  28.0218391
  77.2659302   9.2363377  45.9595375  77.2509918   8.3076525  46.1909485
  77.6480255   9.6675339  46.7239342  79.7690430  63.8776512  52.0209198
  80.2747345  64.6280365  52.3330574  79.7561874  63.2723808  52.7623444
  18.0608292  29.8117237  67.8940887  18.3867874  28.9405766  67.6680679
  18.3454151  30.3692627  67.1699371  26.5013275   5.4477491  73.9217682
  25.5651436   5.6380372  73.9816284  26.5508366   4.4919887  73.9043884
  52.6962891  65.1530533  13.8129168  53.4964943  65.5373001  14.1710453
  52.0470772  65.8540192  13.8712778  84.1828842  16.9800377  63.2783623
  84.0856476  16.1420918  63.7307167  85.1290359  17.1142845  63.2236061
   9.4096241  50.7758064  61.3784676   8.7752314  51.4734573  61.5429649
  10.2349396  51.1162758  61.7236710  26.7215576  16.6454258  71.9712143
  25.9092083  16.7170334  71.4700241  26.8088818  15.7097960  72.1534271
  24.0865574  45.3696556  48.0868149  24.8959293  45.7761345  47.7771034
  23.4145584  45.6821022  47.4809875   1.4076682  15.4691706  51.5192337
   0.7476794  15.3925695  50.8301888   1.4368967  16.4046288  51.7199669
  25.4536114  24.3738308   8.0878992  26.3063984  24.8023758   8.0148573
  24.8481865  25.0813828   8.3093987  38.1729660  44.9572830  13.4381475
  38.6727371  45.7101517  13.1224747  38.8211250  44.4066925  13.8774319
  66.9060059  58.3987503  74.8421478  67.7969971  58.7479477  74.8628387
  66.5770264  58.6330452  73.9743271  83.0733185  40.1578217  65.6097565
  82.5259705  40.2208481  64.8270264  83.2158051  41.0660973  65.8761520
  65.0213699  26.0712280  66.0770340  64.1091766  26.3540134  66.1415634
  65.0049057  25.3512878  65.4464417  18.4533539  34.6045570  59.7089920
  19.3405666  34.5379753  60.0620575  18.5787811  34.8256149  58.7861519
  49.5150337   0.7859067  48.9108772  49.7923470   0.1277255  48.2735977
  48.6485443   1.0600562  48.6104279  18.2770348  43.3126259   7.2339487
  18.2241554  43.2999878   8.1896029  19.2151833  43.3429947   7.0463629
  39.3604813  65.5463791  22.1909809  38.6197472  66.1234207  22.3769054
  39.9946175  66.1070862  21.7440929  24.2191525  67.2647934  34.7835922
  24.4808044  66.6848526  35.4987411  24.8941250  67.1416016  34.1161575
  38.4415703  54.2764130  32.0472450  38.7991295  53.3936882  31.9514408
  39.1959229  54.8542213  31.9318390  59.0321846  25.5901108  61.3617973
  59.2484970  24.8016396  60.8640518  58.0770416  25.5797615  61.4236984
  60.3010292  42.7751122  84.4960251  60.6307106  43.5664215  84.0701523
  59.6190643  43.0890808  85.0898056  68.8917465  24.9599056  11.4078770
  68.7101288  24.0476112  11.1821165  69.6357651  24.9144859  12.0083780
  76.6857605   9.5916262  36.4172745  76.9735489   9.7695732  37.3126793
  77.2244339  10.1667089  35.8738174  83.4701462  52.1741409  82.7095795
  83.2428436  52.7481956  81.9781265  82.6269684  51.8800316  83.0542221
  66.4631119   1.5344456  78.4587479  65.8165131   0.9706634  78.0341492
  67.0754852   1.7649336  77.7600937  34.0797195   4.7477555  13.5448971
  34.5792007   5.5511284  13.3987980  33.1852455   4.9718008  13.2880936
  62.7560005  11.1472979   6.9939780  63.6118546  11.0894661   6.5692406
  62.4041138  11.9909029   6.7098298  38.7646332  16.9845505  65.8920975
  39.5894775  17.3809032  66.1727524  38.1117401  17.6721764  66.0229797
  46.8014412  70.3008575  54.4435387  46.8584824  69.6452560  53.7484360
  46.5069466  69.8109131  55.2112961  50.7668381  15.9223747  12.5636101
  50.4469337  15.6692371  11.6976910  49.9734917  16.0615025  13.0807905
  41.2076530  39.1825409  43.0770569  41.3186569  38.2437134  43.2271194
  42.0197525  39.4544182  42.6494942  55.6277237  12.2110968  61.1292992
  54.8366547  12.4522429  60.6473312  55.5185966  12.6191673  61.9882545
  26.8355789  47.9668503  39.9030533  27.4273376  47.2285385  40.0477867
  25.9590816  47.5886688  39.9735260   1.7910527  25.2573395  41.6214294
   2.3926167  24.6750565  42.0854301   1.0744717  25.4029713  42.2391167
  69.3959579  30.6436806  19.2347031  69.0541153  29.7594566  19.3670826
  70.2278976  30.6521931  19.7080212  79.8311386   9.0196552  77.7824783
  79.8053741   9.2750006  78.7046356  79.7527084   8.0657673  77.7958069
  69.7395935  44.8839874  10.3883152  69.5708084  44.1478539   9.8002234
  69.3962555  44.5979080  11.2347860   3.3815851  37.7059708  89.2659225
   3.1587288  37.7147636  88.3350677   3.4358852  38.6304741  89.5079498
  85.3690796   7.7073359  88.9987717  85.0194931   7.0378280  88.4107437
  84.6744308   7.8472834  89.6422882  67.1185837   2.7214165  20.9046936
  66.6131439   2.4905553  21.6840916  66.4580536   2.9224703  20.2417393
  23.0348854   7.2619796  14.3714905  23.2288246   7.7006364  15.1998615
  23.2042999   6.3360763  14.5453701  17.2385616  67.4085464  47.5099106
  18.0426750  67.8112717  47.1821136  17.4649487  67.1019287  48.3879547
  37.6936874   1.7893622  37.6356430  38.0144081   1.0370902  38.1330910
  36.8776016   2.0345297  38.0716820  77.6906662  66.1369171  21.0721893
  78.1578903  65.8200302  21.8451805  77.1056519  66.8162079  21.4076805
  40.2981148  34.9731750  66.3445435  40.7610168  34.3834000  65.7494659
  39.4121552  34.6144981  66.3961105  84.3376007  46.1429672  22.5391769
  85.1810226  45.8668861  22.1804981  84.1677780  46.9900360  22.1270294
  27.0624313  51.2270546  80.4883728  27.4761658  51.9962425  80.8800507
  26.2280235  51.1428604  80.9497986  29.0569878   0.8079151  76.3018494
  28.4507351   1.2629666  76.8863297  29.8719616   1.3056638  76.3674088
  36.0867920  47.2205696  59.6684151  36.6925659  46.5059814  59.4718552
  36.6090431  48.0149002  59.5565147  12.3360014  58.0794411  46.9948120
  11.5645609  57.7453575  46.5371017  11.9804382  58.5936890  47.7196274
  82.7574615  15.5101185  46.9571648  82.8501511  16.4271965  46.6990776
  82.9564514  15.0161743  46.1617699  73.9851303  60.9502296  13.7124443
  73.8743210  61.8908424  13.5738640  74.0723572  60.5869331  12.8311729
  18.8367958  11.8557692   6.4776030  19.1705894  12.5137272   7.0874429
  18.8204803  12.3008919   5.6303535  69.4430771  58.7529449  75.5346298
  69.1318207  58.1646729  76.2225876  69.7307892  58.1693878  74.8325500
  83.5504379  54.8789520  42.8188171  84.2804184  54.5663452  43.3532639
  83.1213684  54.0812454  42.5093117  26.7903309   0.4420536  36.8664665
  27.7077808   0.1841821  36.7769203  26.3298740  -0.3744193  37.0603333
   5.5025172   3.6268406  77.0261459   6.3413367   3.9507117  76.6979370
   5.0882530   4.3934150  77.4223480  70.4880753   8.2560062  20.7062149
  71.1338806   7.5710444  20.8794079  69.6716919   7.7814126  20.5496464
   7.5799642  70.1893005  78.6567993   7.6481609  71.1391678  78.5601578
   6.6489758  70.0024948  78.5359955  21.0660572   8.6166306  88.2181168
  21.5068359   8.8235435  87.3940201  21.5223484   7.8415990  88.5457687
  57.1723976  31.9072762  83.0939178  56.2312698  31.9772129  82.9338531
  57.3102531  32.3725853  83.9189682  13.5384560  47.1230354  49.0952454
  14.4707355  47.2405968  48.9128494  13.2075205  46.6312370  48.3436813
  19.8954144  49.0660172  32.8648567  20.1545563  48.7150230  32.0128708
  20.4205456  49.8598137  32.9666519  81.7044220  32.1947708  26.7438469
  82.1514969  31.6177979  26.1246052  81.4517822  31.6204853  27.4667587
  13.4481678  46.3213348  21.1294117  14.1863012  45.9206581  21.5885925
  12.8172464  46.5231018  21.8203945  22.5020390  49.2163086   7.4221435
  22.9275322  48.4479561   7.0415821  21.6038818  49.1802673   7.0931325
  64.4496994  55.6449432  47.5683784  65.1285477  56.2015991  47.9498596
  63.7072144  55.7285271  48.1666832  78.6635590  45.3141479  31.9654369
  79.5707932  45.0128212  31.9168663  78.7160187  46.2575912  31.8124771
  84.5056915  52.4786682  10.8882523  84.1491547  51.6368332  10.6046553
  84.6208344  52.3837166  11.8337460  12.0542717  51.6851349  62.5009270
  12.9475555  51.5802040  62.8284416  11.7570362  52.5136299  62.8770599
  58.0639076   5.1553421  36.3473244  57.5316887   5.8808141  36.0207291
  57.6256142   4.3701315  36.0193367  24.7296963  50.8484840  47.4901695
  24.0283737  50.2126465  47.6319008  24.4811459  51.6024132  48.0250015
  15.3255548  36.3743134  39.2093773  15.7659664  35.8308868  38.5559540
  14.6807489  35.7914886  39.6103439  45.3416672  19.8209991  83.7605057
  44.9980927  19.0404129  84.1951065  44.5971031  20.4213543  83.7226715
  49.7029839  22.8001537  45.9484978  49.5629997  23.5655689  45.3910255
  50.1472511  23.1457634  46.7227135  42.4781532  10.3656006  82.3001328
  43.2659798   9.9832315  81.9136658  41.9441109   9.6117334  82.5505600
   3.5679069  68.7838898  34.8915367   3.9916337  68.1716461  35.4930687
   2.8640773  69.1777344  35.4070435   8.1990623  31.8185177  17.1158047
   7.9695992  32.6200066  16.6454887   7.3572783  31.4104156  17.3184967
   1.5671264  38.4606056   5.9153385   1.2478613  38.8548050   6.7270708
   1.0761285  38.9048004   5.2240758  48.5885887  55.8395729  22.4283638
  47.8751144  55.3659134  22.8559551  48.4040222  55.7569923  21.4927635
   5.4949908  27.9000492  36.8128738   5.6833873  28.8232918  36.6444626
   5.5013337  27.4924526  35.9468155  48.6022835  36.7611847  26.6289539
  48.6454315  37.3108559  25.8465023  49.4456139  36.3089142  26.6507435
   8.4460039  71.5938797   1.6304605   8.2960873  70.7973633   2.1396990
   7.9622145  72.2731552   2.1003108  81.4934998  52.1424751   5.9047527
  80.6650009  51.9696999   6.3519349  82.1582108  52.0476303   6.5869508
  76.6127625  48.9794044  10.0165319  75.7209244  48.8639259   9.6886263
  76.6326523  48.4847717  10.8357859  76.1855469  63.1294403  60.8772430
  75.8362274  62.2408066  60.8098984  76.5792236  63.1666183  61.7489510
  64.9335785   5.0177264   8.6143064  64.8979416   4.0748997   8.7756729
  65.7999191   5.1630669   8.2340927  16.1995678  29.2383842  16.2147026
  15.7780027  28.4169979  16.4673653  17.1221581  29.1121750  16.4363556
  22.5493126  48.1742210  86.1629639  23.4629936  48.1100922  86.4410019
  22.5739231  48.0115967  85.2200012  66.3797302  31.0673389  80.1572723
  65.4638672  30.8579292  80.3404694  66.4410324  31.0583782  79.2020798
  78.4424057   2.5755365  44.5788345  78.2951508   2.7667055  43.6525497
  77.9081650   1.8002421  44.7512627   4.7146373  25.0691833  80.2317352
   4.0508332  24.4515896  79.9248581   5.5399928  24.7207985  79.8946228
  78.4884186  63.0409927  18.6629753  79.2380676  63.2757912  19.2099018
  78.8231125  62.3628464  18.0761795  51.1076317  43.3373260  77.4989014
  50.5925407  44.1335983  77.3690491  50.4664421  42.6778336  77.7638016
  22.1393986  64.7269287  34.5126686  22.8497505  64.8367004  33.8805466
  21.5157394  64.1482544  34.0740204  42.5832291  53.9982262  38.3726578
  43.2527924  54.0374527  37.6897392  43.0206184  54.3310738  39.1563225
  48.5494728  14.3628378  80.7696075  49.4413452  14.3091974  81.1129990
  48.0126839  13.9201880  81.4269943  41.7463760  53.6779709  70.2931290
  41.7007027  53.5849266  69.3415527  42.3680763  54.3919449  70.4344025
  33.7024460  48.2275162  65.4836655  34.5392647  47.7819824  65.3514938
  33.6767998  48.4155884  66.4218597  69.1278534   5.2414775  23.6439285
  68.9288177   5.2614336  24.5799942  68.6792374   6.0081425  23.2872753
   2.9076943   2.7063725  66.4900742   3.6016123   2.5098162  65.8607254
   3.1277118   2.1826808  67.2605057  34.0932808  43.4773102  72.2583008
  33.3503265  44.0805740  72.2763290  33.8373871  42.8008690  71.6312637
   2.8923421  23.1486187  23.6474705   3.5441515  22.6075974  23.2017441
   2.6233511  23.7900620  22.9898796  57.5790291   0.7134001  51.6748199
  57.9294357   1.5441896  51.9961243  56.6527061   0.7352634  51.9149895
  72.6906586  50.5678291  77.6304855  73.3128586  49.8456802  77.7176361
  72.0637512  50.4308739  78.3407364  43.3009872  63.2533035  85.9419174
  42.5449715  62.7199326  86.1872559  43.9386101  63.1000786  86.6391907
  12.2772894  37.3016586  77.8322449  13.1006899  37.4281349  78.3036804
  11.8704300  36.5475426  78.2588730  46.7068825  10.5913820  23.1346302
  47.6164017  10.6274910  23.4307785  46.3457909  11.4473810  23.3650875
  11.0970821  58.1852417   8.3364201  11.0657730  58.7357597   7.5539994
  11.9655933  57.7835884   8.3120718  79.1418686  12.4971266  81.3458710
  78.4410248  12.8365202  81.9025269  79.8690109  12.3366823  81.9473267
  30.9159508  58.5378113   5.6314626  30.7880974  59.0109596   6.4536643
  30.5856915  57.6569405   5.8081803  46.1633911  50.9518585  18.0136948
  46.7395248  50.5127068  18.6393509  45.6468048  51.5559807  18.5469971
  55.3246346  37.0729904  54.7349205  56.2035942  37.4449959  54.6622849
  54.8983574  37.5964165  55.4135551  76.2613983  19.5892811  69.7671127
  75.8493958  19.0340748  70.4291077  75.5621338  20.1749058  69.4767532
  82.4277878  62.9498100  17.0747795  81.9768295  62.1948357  17.4527702
  81.9003677  63.1865578  16.3118820  55.0768890  14.7471380  82.1093750
  54.7581329  13.8446064  82.1173859  54.2848663  15.2802715  82.0407791
  29.9174004  16.3177624  87.9528732  29.9757977  17.2404861  88.2006760
  29.1717606  15.9827509  88.4508896  78.0852509  10.6747875  25.4037113
  78.1952362   9.7785225  25.0861492  77.3133240  10.6357899  25.9683666
  25.8436012  58.9056892   6.8263335  25.3092403  59.6251678   6.4901118
  25.2374077  58.1678963   6.8928437  46.3704796  64.5176773  72.1782913
  47.1553993  64.6426392  71.6448898  45.8670654  63.8509407  71.7110977
  44.5494728  47.9253273  35.8279495  44.0945930  47.5299759  36.5715981
  44.1810188  48.8063583  35.7626686  10.2065544  17.6285191  74.5866089
  10.9849863  17.9813900  74.1556091  10.5474234  16.9826641  75.2054062
  35.3798523  39.5196342  26.6685867  35.6041641  40.4110680  26.4016361
  34.4719162  39.4066811  26.3872929  38.3122025  30.0966206  82.6221695
  37.6952667  29.7169418  83.2478409  37.7715149  30.6496315  82.0581970
   4.9124570  13.6515322  81.0373154   5.2131271  14.5596924  81.0045471
   4.2745337  13.6360331  81.7507858  76.7549591  38.6199074  42.5869255
  76.9911118  39.3276634  41.9873047  76.4124222  37.9294243  42.0193558
   8.1116724  63.3959084  58.5378265   7.5205317  64.1388626  58.6594963
   8.9674339  63.7227631  58.8154449  53.2080269  53.2458496  56.0660973
  53.3935089  53.0467606  56.9838104  52.7256012  52.4826622  55.7482224
  72.4087830  32.4549599  81.1715164  72.5281830  33.3506088  80.8556213
  73.0024109  32.3834801  81.9189911  40.5645714  13.6476936  66.6912231
  41.1701622  13.9651995  67.3610611  39.7720680  14.1692705  66.8182220
  25.8056583  35.3286591  58.4878273  25.7533283  34.7240181  59.2280273
  25.5611649  34.7995148  57.7285767  20.7496967  17.1490383  14.1671171
  21.0703201  17.2552261  13.2714844  21.2947941  17.7386513  14.6881342
  50.6892815  32.8990097  25.9787560  51.2018204  32.1979713  25.5761604
  50.6632538  33.5881958  25.3149986  72.1403732   9.9881067  17.5574741
  72.8314056  10.6257515  17.3782883  72.5180740   9.1469898  17.3003845
  54.4362373  48.4753036  84.9196625  55.1566086  49.0274391  85.2237091
  54.0507965  48.1215515  85.7212372  54.5072594  65.0375977  78.2872772
  54.5794525  65.0023270  79.2410965  54.6965561  65.9495010  78.0663071
  46.0910492  47.0153084  64.0930252  46.1467476  46.0877228  64.3226166
  46.2920609  47.4761505  64.9075470  26.3902760  67.6922989  19.3270168
  25.5767059  67.5803223  19.8187466  27.0145302  68.0283432  19.9701424
  15.3038511  65.8136978  30.0207310  16.1902714  65.6023636  30.3136959
  15.3446999  65.7473297  29.0667095  54.3806229  56.3371086   8.9273596
  55.0088463  56.8841476   9.3988609  54.9225121  55.7514496   8.3985977
   3.2333748  21.4860954  37.3034172   3.8753610  21.9827290  36.7960320
   3.0294235  20.7282467  36.7554207  13.7889242  52.0618668  70.6137924
  14.0034666  51.7682304  71.4992218  14.3336382  52.8375244  70.4801102
  66.3566284  50.9583359  28.9303169  66.3111801  50.0360985  29.1825943
  67.1248627  51.2951927  29.3913746  63.5112495  11.2430067  37.3057060
  63.2539139  11.4503984  36.4073753  63.9685516  12.0265980  37.6108170
  17.3092461  24.9096642  71.9302368  17.0707989  24.0394573  71.6106796
  18.0747242  24.7596493  72.4850082  28.8539925  61.7818489  19.1473846
  29.7224045  62.1823807  19.1882057  28.8865776  61.2175369  18.3749084
  78.0104523  57.3968391  46.8564606  78.7641068  57.6485443  47.3901978
  78.2574158  56.5541000  46.4756241  35.7196541  66.9531403  18.1906109
  35.2029572  67.7043610  18.4820404  35.1666107  66.1947556  18.3782825
   1.8338228  35.6065788  31.2793961   2.6125274  36.1204300  31.0653610
   1.8863832  34.8419304  30.7060051  58.8485031  30.4127045  35.6994667
  57.9874725  29.9954472  35.7269096  58.9428406  30.7079144  34.7938232
  26.0882034  37.0711937  84.2660065  26.3716450  37.9241791  84.5951157
  25.5702858  36.6991043  84.9798279  72.8688202  46.7400055   3.4604168
  72.5493469  46.2695808   2.6904345  72.2885361  47.4974861   3.5361404
   9.8232327  61.1140594  89.0644226   9.3473015  61.6127281  88.4003067
   9.2402277  61.1089134  89.8235703  11.0728416  60.0793114  48.4681587
  10.6976690  59.7063599  49.2658958  10.3207598  60.4298477  47.9909477
  71.4069214  67.5187836  49.4923096  72.0787888  68.0186234  49.0286522
  71.7755508  67.3727570  50.3635254  50.9830780  53.0067444  33.2668304
  50.2721558  52.7573128  33.8572617  51.3455200  53.8045654  33.6519852
  84.5985107  53.5222015  59.4321289  84.1915207  54.3441544  59.1582985
  83.8683929  52.9083862  59.5120621  85.2469177  58.5075569  36.9930458
  84.8736496  57.6984749  36.6433525  86.1602173  58.2893028  37.1787453
   2.6213284  13.9278898  75.0453186   3.0706668  14.0064135  74.2037888
   1.8952159  14.5489426  74.9879837  44.5478287  18.0164833  86.1410217
  44.3475304  18.7838364  86.6770096  45.4286804  17.7581501  86.4123001
  71.4925842   8.8786411  64.2678375  70.8391190   9.0343018  63.5859375
  71.0568466   8.2942677  64.8882141   2.3048284  14.0842228  63.4242973
   1.3550152  14.2026720  63.4167938   2.5998030  14.4615374  62.5955276
  67.6430588  55.5968285  58.4720001  67.1715851  55.7445374  59.2918320
  67.3466034  56.3007202  57.8950424  74.2193604   3.3010151  70.9535522
  74.6132507   2.4314847  70.8828430  74.6037140   3.6742835  71.7467575
  56.0203705  53.8942871  57.6112328  55.3817291  53.2383804  57.8907852
  56.8697395  53.5071449  57.8231888  45.1813698  54.7639160  11.3250761
  45.3886528  53.8658524  11.5834446  44.3629723  54.6891098  10.8343010
  51.8455048  12.5767288  47.7309456  52.1984329  11.8076887  47.2834549
  51.8114510  12.3225899  48.6531639  17.2637043  14.6882229  69.7239380
  17.9462261  14.0171585  69.7321625  16.5021210  14.2506170  69.3435135
  74.7882538  48.6278038  74.7652893  74.1807404  49.3646736  74.7006226
  74.8003998  48.2495308  73.8860855   9.0704613  50.1380196  47.7225647
   9.0880032  49.7399292  48.5928802   9.9716673  50.0661278  47.4080925
  31.8151493  55.8019409  82.9586792  32.0841217  54.9404411  83.2775879
  31.4365921  55.6306572  82.0963669  21.9226933  23.8164425  65.4048767
  21.8438892  22.9288311  65.0553513  21.0751972  23.9883671  65.8152695
  17.4817810  49.2849884  66.7223053  16.8348274  48.6982346  66.3306351
  17.1416378  49.4658356  67.5985641  35.6704979  58.6659813  71.4122772
  35.0529213  57.9927597  71.6979370  36.3867607  58.6181335  72.0454483
  66.4438782  55.8648796  64.0037613  66.5502090  55.8257675  64.9542313
  67.3376083  55.8433533  63.6616821  49.4958267   0.1334658  44.1702003
  49.9116859   0.8729320  43.7269363  49.2753563  -0.4752242  43.4651299
  55.0231133  44.0970764  60.5126190  55.6357269  44.7994728  60.2945023
  55.4324532  43.6422310  61.2486839  73.6252823  55.4011574  83.9821243
  74.2552643  54.6865387  83.8889389  73.6963577  55.6650124  84.8994904
  52.7100563   1.7737836  44.4888496  52.8103409   0.8466159  44.2731285
  52.2479973   1.7760357  45.3271408  63.5777855  43.0877037  67.3048782
  63.3418274  43.8115578  67.8850479  62.7407188  42.7677498  66.9684677
  19.9271240  39.0321121   6.3833790  20.2823849  38.9022217   7.2626691
  19.0164013  39.2885475   6.5284863  80.1481171   7.3488283  36.7671013
  80.6386414   7.6412621  35.9989243  79.4715195   6.7713127  36.4136543
  21.6791592  22.6893044  72.3105545  22.1901531  22.9282761  73.0838699
  22.3335075  22.4301357  71.6617966  60.1935005  41.6327972  36.7310486
  60.4119606  41.0301552  36.0201836  60.5176926  42.4825974  36.4327660
  47.2478676  54.4721031  38.1968765  46.5639229  53.9523697  37.7745934
  46.9225731  55.3715630  38.1596184  60.1296806  50.9055710  71.0657578
  60.3108749  50.0191536  71.3782730  59.4357300  50.7933121  70.4160919
  51.5570259  31.6880016  42.1697998  52.3960571  32.1109886  41.9872017
  50.9502678  32.4133987  42.3177032  35.0335579  21.0599785  15.2301264
  35.6888008  21.6371593  15.6222382  34.9023094  21.4103260  14.3490686
  63.9124413  27.0267715  14.0749168  64.7345963  26.5412903  14.1427641
  63.2996750  26.5380898  14.6244078  22.6183720  19.6678410  76.8629150
  21.8522091  19.3118267  77.3128891  22.3826065  19.6469288  75.9354401
  19.4133835  58.1169128  35.4113045  19.0647678  58.5738106  36.1767731
  19.7891788  58.8104057  34.8690147  18.5171604  47.0116692  77.0590515
  18.6294746  47.1626282  76.1205215  17.8167591  46.3616371  77.1149521
  34.2290001   6.2453303   4.7548399  33.8651962   6.7603784   4.0346971
  33.6699219   5.4697399   4.8009248  31.1281624  41.4568100  66.4904099
  31.1322422  40.5099564  66.6307068  31.4149570  41.5658340  65.5837173
  24.2748108  10.9412651  33.7670746  24.2143536  11.5405941  34.5109711
  24.1412945  11.4976912  32.9997444   9.4826880  16.4749680  12.3685484
   9.6889515  16.3495655  11.4422865   8.5472107  16.2829666  12.4337387
   6.1549397  60.7216301  16.8857327   5.8372660  61.5616913  17.2168121
   6.0372553  60.7779427  15.9374647  48.7468872  22.6479931  71.1790161
  48.0010643  22.7399654  70.5861282  48.4215240  22.9600639  72.0233994
  80.2986221  54.5832481  27.5097637  80.7292557  55.0722008  26.8085403
  79.3656082  54.7565804  27.3845940  78.8586197  56.8226204  72.3056030
  78.2324142  56.4342461  71.6946487  79.6319656  56.2618637  72.2446671
  75.9014664  48.5625305  69.6611252  75.5800095  47.6900902  69.8885880
  75.5447998  48.7292519  68.7886429  73.9626389  65.2872009  46.7279892
  74.2590942  65.2178726  47.6354790  74.1124954  64.4164200  46.3598785
  72.7933807  67.4931641  34.6644135  72.6155930  67.4659424  35.6045647
  72.1040649  68.0525436  34.3064041   2.2739453   4.2732563  46.8855553
   1.9094194   4.2108793  46.0026855   3.2101016   4.4183311  46.7484550
   8.8173666  46.4661484  23.4723721   8.4778633  45.6033249  23.2346630
   8.9106426  46.9251404  22.6375923  70.9104996   2.9877219  44.7428436
  70.5344391   3.2440341  43.9007530  71.4848633   2.2509284  44.5343361
  74.9207382  52.6050491  44.9349365  74.4431229  52.8148422  44.1323776
  75.6954269  52.1293793  44.6352272   3.1950300  31.0847168  65.9898987
   3.9616294  31.6004524  65.7397537   3.2308557  30.3128891  65.4248886
  13.3257389  31.9134464   9.6549625  13.0200348  32.7223816  10.0653296
  14.1980762  31.7729492  10.0230942  38.3718796  42.0961494  16.7829838
  38.8541832  41.6362419  17.4700813  38.2043991  42.9648705  17.1483612
  34.2676811  62.5582962  36.6013985  34.3601646  61.6066246  36.6461563
  33.6916428  62.7079620  35.8517227  13.1452160  45.1243858  76.4329529
  14.0692520  44.9475708  76.6093750  12.6927843  44.8537750  77.2318954
  20.9236927  54.2606010  40.7850189  21.7182178  54.6318245  41.1686287
  21.1055183  54.2242584  39.8459511  20.4552784   8.5293169   1.7218770
  20.3484707   7.6052074   1.9473652  20.7616005   8.5207310   0.8150558
  72.3444443  54.2296906   3.7947896  71.7451782  54.7497711   3.2594149
  72.0607605  54.3887215   4.6950464  76.2490692  52.6401024  63.1400375
  76.7062531  53.4489212  63.3703194  75.8941193  52.8059349  62.2666893
  39.2437973  15.4155436  77.2831726  39.3808746  15.4726572  76.3375626
  40.0045929  14.9331436  77.6067657  84.3901367   5.0379696  48.3425827
  83.6968079   5.4622669  48.8480492  83.9681168   4.2722983  47.9528694
  55.0580177  66.0938416  15.1074028  55.8685646  66.6025696  15.0863571
  55.3006592  65.2744217  15.5385637   2.2786505   2.5333149  89.1002579
   2.1622150   1.8574784  88.4324875   3.1688116   2.8565881  88.9611969
  71.5960083   6.1347733  44.5986900  72.4217911   5.9774189  44.1409302
  71.2262497   5.2620697  44.7324791  83.4965820  37.3350182   2.1302171
  83.6161118  37.8569107   1.3367611  84.0832977  37.7361450   2.7713830
  38.9035835   2.0776432  77.3102341  38.2106514   1.9158666  77.9504776
  39.6869354   2.2306075  77.8386230  14.8139811  23.1352081   6.4487419
  14.2607317  22.8583431   5.7183366  15.6689072  22.7472649   6.2621083
  50.5206718  51.4436150  70.4752274  51.4391594  51.6114922  70.6860199
  50.0989685  52.3002472  70.5428696  83.4730606  55.8032188  63.8058281
  83.3690033  55.4170952  62.9361687  83.8412704  55.0982246  64.3384018
  64.6383896  57.8219185  72.6845932  63.9541283  57.2362709  73.0086823
  65.0238419  57.3533363  71.9442596  72.1063156  24.8226891  58.6511078
  72.5832062  24.9192848  59.4754105  72.4878082  25.4848270  58.0746803
  74.5387650  58.8891869  76.8244400  75.3587341  59.0206833  77.3004608
  74.2407150  58.0210724  77.0960464  68.2741394  12.5944118  63.5238457
  68.5953064  13.4944839  63.5781593  68.0034714  12.3823729  64.4171600
  37.7239456  65.3325043  88.4729996  38.0143089  64.6979980  89.1282272
  37.8903656  66.1851044  88.8750000  37.8080826  33.1163788  66.9670029
  37.2961464  33.2462082  66.1686935  37.2462502  33.4464684  67.6681519
   9.7465010  55.7654076  82.8876495   9.1127911  55.7454910  82.1705399
   9.3485317  55.2297783  83.5739136  53.6423035  64.9672470  46.6317406
  54.2443962  65.7087021  46.5687332  53.7869225  64.4720917  45.8254318
  23.7374191  11.9211626  31.1716652  24.6433716  11.7058640  30.9500160
  23.2286854  11.6205654  30.4186306  12.0411539  22.8815746  62.5625381
  12.8929911  23.1976452  62.8637123  12.2414112  22.3518314  61.7908516
  81.5341873  47.5134659  75.4895401  81.4245682  47.5615234  74.5398560
  82.4792328  47.5819244  75.6253281  55.9883728  19.2944260  50.8242493
  55.2866020  19.9442711  50.7861557  56.7090950  19.6912689  50.3350563
  46.7868385  54.2974892  77.5884933  46.8918991  55.2364922  77.7416687
  46.0998688  54.0305634  78.1992722  21.0689125  50.0852699  19.8835354
  20.9163799  50.3846130  18.9872322  22.0212231  50.0211792  19.9558525
  76.4141235  68.0281219  49.5453491  76.3053284  68.0531082  48.5946808
  76.0727844  67.1717987  49.8030701  16.0898628   6.0247254   5.4217010
  15.8632526   6.0837178   6.3498173  16.7719936   6.6849828   5.2992673
  66.8334885  34.8884964  70.3264084  66.8659286  35.3698387  71.1531448
  67.4811249  34.1912575  70.4296341  10.2472267  67.7601852  25.6786976
  10.8591089  67.3241501  25.0856495  10.1754456  68.6511154  25.3361702
   7.1189227  15.9252930  79.2730789   7.5123744  15.1081715  78.9669113
   7.5664558  16.6084270  78.7738113  43.7640228  51.2895622  41.3696823
  44.4432144  51.5526581  40.7486229  42.9769211  51.1871948  40.8346863
   3.2731657  47.3289795  79.1456299   3.0639493  47.4226265  78.2162781
   4.0794048  46.8131943  79.1588440  19.9038963  38.3301773  79.1004944
  20.7893696  38.3325195  79.4640427  20.0287857  38.1604462  78.1667786
  61.6629028  71.3534851  30.0068150  61.4552460  71.6551590  29.1224518
  61.5202408  70.4074478  29.9768372  19.0014973  44.4953079  69.6462860
  18.7012768  44.8019028  68.7906570  18.9187946  43.5427208  69.6019135
  72.5032196  28.1704369  83.2581711  73.3126450  27.6730862  83.3752670
  72.7771301  28.9723969  82.8131256  75.8168106   6.0538373  22.9677296
  76.5161819   6.0269980  23.6207218  75.5096817   6.9603009  22.9828339
  14.8860807  53.6442070  82.4243011  14.9519663  53.2816734  81.5408630
  13.9791403  53.9422913  82.4938507  50.4222527  11.4160175  79.3841019
  50.1110764  10.8174744  80.0631790  51.3670540  11.4706650  79.5276031
  26.8932686  66.3486633  28.2717419  26.3148689  66.2250061  29.0243340
  26.3998337  65.9979782  27.5302715  16.0861263  50.5928726   8.5447092
  16.1659374  49.6530838   8.3814487  16.6711884  50.7580681   9.2840633
  67.1212845   3.9201720  30.2143173  66.8174362   4.8094459  30.3962460
  67.8294601   4.0340114  29.5804653  21.7253666  59.1143379  12.7613487
  22.3384743  59.7076263  13.1953278  22.2654953  58.3762283  12.4790630
   0.7738618  -0.2061314  39.6215324  -0.0856078   0.2127077  39.5755157
   1.3968298   0.5146219  39.5284882  27.3128052  49.4501762  33.1481743
  26.8762798  49.7052612  32.3353996  26.9767590  48.5737343  33.3356628
  16.7684479  53.3525848   4.4361210  16.7157421  54.2547607   4.1206322
  15.8922472  52.9960976   4.2897663  58.8536453  39.8829689  13.4280272
  59.2037621  39.4241829  12.6643734  59.5347404  39.7930298  14.0945454
  73.6057281  55.1693535  51.2348518  73.5270004  56.1196632  51.1514816
  74.5344391  54.9919548  51.0856705  77.5746231  15.4234476  71.8811264
  77.9849930  14.5587311  71.8715057  77.1101379  15.4588385  72.7173309
  52.2360001   8.7953053  47.7989883  51.9378815   7.9638472  47.4301567
  52.0460663   9.4410391  47.1184082  28.6015186  54.2632027  66.2607346
  29.3015289  53.6988029  66.5888672  28.9211884  55.1529350  66.4104691
  29.8383999  68.4199142  14.9056692  29.8133888  67.4632874  14.8840628
  29.1576881  68.6912766  14.2898569  33.3508148  70.4737930  80.3909988
  33.8934097  69.6915665  80.4907074  32.6363297  70.1980820  79.8167801
  83.6973038   5.2067637  32.4276924  84.0030670   4.5292573  31.8245945
  83.8253174   6.0270381  31.9512520  78.9048386  30.9796009  45.0112343
  79.2748871  30.6120853  44.2085953  79.1489334  31.9048042  44.9857712
  83.6110077  15.3423548  61.0160179  83.8363495  16.0632896  61.6039848
  84.0649033  15.5488358  60.1989632  16.9600430  63.3096657  62.3962555
  16.9473724  64.2209320  62.1035767  17.3109398  62.8233490  61.6501999
  37.7622070  57.0407906  27.9518147  38.2057686  57.6369743  27.3484516
  38.3201675  56.2633400  27.9737682  77.6377640  13.8123713  83.2067413
  76.9149323  13.6092176  83.8004456  78.1022568  14.5328484  83.6326447
  58.7546120  39.1751328  69.0173798  58.4387169  38.2718544  68.9942780
  58.2369041  39.5923805  69.7059402  57.1520805  31.4680080  77.9171371
  57.1849022  32.1010361  78.6343765  56.3327484  30.9925785  78.0545959
  10.0592155  37.6466942   2.7044210  10.7744579  37.7836838   2.0832174
   9.3070726  38.0823784   2.3035538  47.9737358  64.2533875  64.1539764
  48.6447678  64.4662399  63.5054092  48.3373451  64.5605011  64.9844589
   7.0353584  66.0892868  35.6429176   7.2708058  65.8086700  36.5272560
   7.6944838  66.7453842  35.4163742  59.5009232  15.9671555  49.8780022
  58.7449760  15.6548033  49.3807945  59.8219604  15.1916542  50.3381805
  33.0896416  58.1011810  53.3396835  33.4199867  57.4338799  52.7381744
  33.2835388  57.7553864  54.2109261  32.2372665  22.0897846  82.2739792
  31.5002365  21.9137211  81.6891556  31.8328247  22.2577896  83.1251144
  54.9483643  59.9642181  22.3361397  55.6120300  59.6223526  22.9352322
  54.2398338  59.3216057  22.3716564  38.1150818   1.0662307  87.5658875
  37.1675835   1.1292444  87.6863480  38.2329445   1.0132463  86.6174545
   1.0448006  21.6166630  80.4730377   1.5788543  22.0218697  81.1562881
   1.4579829  20.7672081  80.3183060  70.7695160  54.1047516  12.6557074
  70.5259857  54.7309761  13.3374462  70.2868881  53.3086586  12.8782825
  71.9568710  49.9662361  11.0624981  72.2741928  50.8654099  10.9786711
  71.0675888  49.9921761  10.7093287  83.8556290   0.4305683  83.7265778
  83.5035095   0.2303214  82.8593140  84.7946396   0.5478832  83.5825882
  25.4148273  50.7969398  37.9111214  25.8404732  51.4694176  37.3793030
  25.9746685  50.7119942  38.6828690  43.4007835  28.2068539  24.7679253
  42.7128754  27.6101875  25.0628891  43.5758018  27.9427814  23.8646717
  26.7066689  23.7138710  69.7959518  26.1732616  24.0408325  70.5203857
  27.5324211  24.1920261  69.8716888  22.0656796  58.9837494  83.7251053
  22.0441513  59.2376137  82.8024368  22.8750839  58.4809875  83.8163681
  72.0177078  13.6633224  80.9851303  72.3086166  13.8762817  81.8718414
  71.6591797  14.4839525  80.6471176   7.2847624  30.9158268  71.7608719
   6.4268165  31.1850567  72.0890121   7.6936374  31.7288589  71.4641724
  76.8157043  24.1232643  60.9684258  76.6869202  23.1955738  60.7708435
  77.2968292  24.1273670  61.7959099  13.0016956   3.4640176  78.5620651
  13.4283752   2.6268988  78.7448425  13.7235651   4.0671587  78.3849869
  60.9663086   2.6121871  14.8322849  60.3186951   2.4332888  14.1505051
  60.7136040   3.4655278  15.1846790  46.0394058   9.6278267  40.0344887
  46.7358437   9.8798828  39.4281273  45.8929939   8.6984806  39.8581047
  20.6628914  10.5571833   9.0635691  21.1477871  10.1833935   8.3277779
  19.7796764  10.1989460   8.9750910  83.7866592  53.1878090  62.8170319
  83.1008148  52.8606796  62.2349319  83.6607666  52.7020798  63.6321716
  69.2731247  37.3610153  75.3237610  68.9857178  38.0996780  75.8604202
  70.2265472  37.3599167  75.4086761  69.4392014  28.6890678  34.6836166
  69.2724762  28.8853512  35.6055183  69.1155701  29.4571190  34.2128792
   2.1874073  67.1238251  49.5725784   2.1009395  66.5733032  50.3508301
   1.8218350  67.9686508  49.8349915  23.0427761  19.3811684  85.0848770
  23.6495037  19.1651554  84.3767395  23.1973324  18.7071018  85.7466736
  70.0410690  11.3396149   4.0058126  70.2912979  10.6669283   3.3724797
  69.1129150  11.4976463   3.8332400  35.7063370  57.6863136  42.8754692
  36.3714485  56.9995117  42.9219284  35.1094246  57.4909248  43.5977936
  17.1895885   7.8688006  68.2137222  18.0835686   8.1918602  68.3262558
  17.2511139   6.9291186  68.3853149  78.9447937  48.5158081  68.0095291
  79.5957947  47.8573570  67.7668991  78.9657211  48.5321083  68.9663544
  63.1481400  11.2323780  24.7822266  63.7460556  11.9131956  24.4736576
  63.3414268  11.1491022  25.7160015  29.6246395  13.2364140  12.9041862
  28.8140469  12.8348894  12.5912209  29.3760967  14.1326027  13.1306887
  14.1366272  32.5752831  71.8409195  14.0233269  32.3033371  70.9301834
  13.3061600  32.3536491  72.2621460  23.9146233  23.4853382  11.0168352
  23.0218182  23.2570419  11.2757025  24.0073090  23.1264095  10.1343317
  81.5129013  30.8342209  37.3407326  81.2427979  29.9279041  37.1928673
  80.7373505  31.2584038  37.7079201   1.7526677  49.0809364  22.2850552
   2.3720038  48.4921837  22.7163601   0.9271512  48.9419670  22.7492142
  65.8849716  67.2341156  55.4171066  64.9525299  67.4495239  55.4364586
  66.3244553  68.0799942  55.3301239  35.5322189  55.8855095  58.5886536
  35.7339401  55.5009117  57.7356415  35.1064987  55.1795235  59.0750504
  54.2761879  32.1182518  75.9784088  54.1830978  31.1984196  76.2263489
  54.3719444  32.1011162  75.0261612  36.1304283  59.3099823  32.5274506
  36.4715042  58.7608681  31.8214951  36.5628014  58.9822350  33.3160362
  64.3992615  28.2056522   4.2575450  64.9340210  28.9795341   4.0804372
  64.0782928  28.3354282   5.1499400  10.2438450  19.1616478  82.9064255
  11.0015831  19.4821262  82.4171829  10.0778685  19.8392467  83.5618210
  47.8772087  43.3697624  59.8152618  47.5923653  44.0080452  60.4692459
  47.9671021  43.8771858  59.0086174  10.7412109  60.4755630   3.6367719
  10.2876787  60.8196068   4.4062991  10.6796570  61.1773911   2.9887915
  26.0757942  52.1036301  45.3132553  25.4711857  51.5684242  45.8272972
  25.5257950  52.7892075  44.9341583   3.5149956  68.4787445  62.1452827
   3.7492378  68.2971420  63.0554390   2.5935514  68.7353439  62.1817398
  39.9007072   1.2539470  61.2729568  40.6553955   1.8398523  61.2147446
  39.1431656   1.8263829  61.1517830  24.6586514  12.6210098   0.2733395
  24.5430508  11.7198400  -0.0279270  25.1367130  12.5382423   1.0984683
  69.6513062  45.2299080  21.1012173  70.3244858  44.6324959  20.7753983
  70.1416397  45.9457207  21.5054588  14.5585890  31.4055080  76.1391602
  15.4031658  31.2381783  75.7209244  13.9324980  30.8924351  75.6282806
  60.8209000  56.3020973   7.3812904  60.9926605  56.8096313   6.5881090
  60.0586777  55.7660980   7.1623011  82.6239395  44.8887138   8.9916391
  82.5144577  45.1634293   9.9020109  81.8170166  45.1673851   8.5586748
  69.1666336  55.2730484   4.5973892  69.8792725  55.3094940   5.2353945
  69.2199478  56.1071587   4.1308537  29.4593868  40.7647324  29.8173008
  29.4080772  41.5171738  29.2278671  28.7437344  40.1932297  29.5389938
  46.8685989  51.3732834  12.0825338  47.1155853  51.1884499  12.9886599
  46.7987900  50.5110893  11.6726770  53.9616623  34.8144417  24.0272694
  54.4752998  34.3266907  24.6710892  54.5602798  34.9438782  23.2916527
  56.5560417  59.0355072  36.8406754  56.9171944  59.3097610  37.6836357
  56.5064659  58.0814590  36.9003372  59.5311775  69.3830643  89.1230774
  59.1934738  69.7169724  88.2919998  58.8382034  69.5710831  89.7560654
   7.2034669  56.4625244  63.9023285   6.4994144  56.0961571  64.4374161
   7.1886973  55.9428482  63.0986176  40.8924561  24.1721172  54.8767357
  40.5976791  23.2615490  54.8624535  41.2537460  24.2931614  55.7548294
   9.9261551  68.5337982  12.6156931  10.6687155  68.7992630  12.0731421
   9.2132816  69.1128006  12.3458891  65.7568436  69.2847672   3.8537266
  65.8202362  70.1339645   4.2908506  66.3899460  68.7318344   4.3116260
   3.1987553  29.8592224  41.8538475   3.8966434  29.3995285  42.3206062
   3.2754858  29.5559063  40.9492226  67.2256088  52.5911598  68.7608490
  66.9084320  52.3149986  67.9009781  66.6353149  52.1648064  69.3821411
   6.6995106   1.4872882  41.5105133   6.3984451   2.1113555  40.8501129
   6.7825551   0.6593348  41.0374107  10.9132500  35.9422646  38.6433105
  11.6138830  35.5654030  39.1755867  11.2680807  36.7765427  38.3362160
  29.6445808  63.4789925  51.5630112  30.0130558  64.3326187  51.7905540
  30.2340813  63.1348267  50.8919868   5.5839977  39.6126366  31.7263451
   5.4621921  39.8612213  30.8100452   5.3571591  40.4004555  32.2204285
   3.1180561  32.6779900  55.2203331   3.0184851  32.5070152  54.2838058
   2.2614205  33.0035477  55.4967766  45.9922295  31.9356403  21.8329449
  46.8336678  32.0089722  22.2833157  45.4184952  31.5041256  22.4660759
  68.6184311  40.4086494  17.7632809  68.2409744  40.4785614  16.8864288
  68.6031876  39.4712944  17.9565678  47.1281662  20.9719734  58.3393097
  46.4066391  21.4933605  57.9874802  47.7560196  21.6186180  58.6616211
  77.3857193   5.0839372  15.6669760  78.0193024   5.2276716  16.3699265
  76.9755020   4.2462149  15.8818636  46.9101868   5.1858888  33.3100433
  47.1022491   6.0754485  33.6067352  47.0836906   4.6358995  34.0740051
   0.0042052  64.4822006   7.2755203  -0.1934262  65.1213074   7.9601498
   0.7165073  63.9554482   7.6379976  12.4845953  19.5038776   3.7730746
  12.1566563  19.0505829   4.5497413  12.1562252  18.9868565   3.0374835
  24.5496712  56.8921356   0.6142123  24.4095421  57.1490326  -0.2971603
  24.6362362  55.9393387   0.5838862  22.5642338   1.2742316  69.7610855
  22.7580757   0.7097396  69.0127563  22.7161999   0.7188612  70.5257492
  63.8564758  43.1767464  11.8846731  64.7949677  43.3627243  11.9143419
  63.6591148  43.0887146  10.9521866  57.6123352  28.2982655   6.8023062
  58.0899773  28.3882160   7.6269269  56.9924202  29.0276051   6.8038001
  52.3867989  65.4297638   8.9879360  52.2659760  66.2781906   8.5615377
  53.3337593  65.2903671   8.9799061  82.9329453  51.2722015  75.2211990
  83.6627121  50.8289566  75.6538696  83.3056946  51.6069679  74.4055862
  32.7714195   1.6308374  20.4089718  33.2935219   1.4650820  21.1939373
  32.4380608   0.7697272  20.1567993  75.5078430  28.2956181  34.6650505
  75.8179016  28.4598198  35.5556297  74.7628326  27.7049332  34.7759094
  30.1814194  54.8888741  80.5167847  29.7949581  54.8870621  81.3924942
  29.4383869  55.0180817  79.9273453  47.0003662  52.3153839   1.9241396
  47.2014923  53.1581268   1.5172418  46.3441353  51.9221840   1.3488275
  82.6678925  30.2372036  20.6639786  83.4247742  30.8119240  20.7782555
  82.9165115  29.6533718  19.9473457  45.6563835  39.3988609  40.5871353
  46.6087570  39.4603462  40.6608582  45.5057678  38.5903549  40.0973778
  36.2005539   1.4906412  75.8834763  36.7360344   2.2573330  75.6793213
  35.8746605   1.1930532  75.0340805  78.4911652   3.1253524   9.7650013
  77.8473053   3.7957747   9.5365162  79.2777328   3.3731885   9.2790775
  12.1664209  64.4783249   0.6706528  11.6515799  65.0862656   1.2012970
  11.6149740  64.2989426  -0.0908973   3.5440776  61.2230148  47.8936501
   2.8861902  60.5605850  48.1048431   3.3790534  61.9313812  48.5159149
  19.4592419  35.1867142  57.1301155  19.6280346  34.4402199  56.5552330
  19.0345383  35.8325691  56.5655556   1.8994472  34.9068031  86.5324860
   2.4989941  35.5916061  86.2361374   1.6362668  35.1824150  87.4105530
  83.3328705  12.7196064  75.1361237  84.2682343  12.6763258  74.9374771
  83.0837860  13.6185637  74.9215012  35.4050903  67.8292923  44.7284927
  35.0909081  66.9837112  45.0486679  34.6882057  68.1623993  44.1887283
  77.2419510  37.0609856  23.3096237  77.2439728  37.8376503  22.7501431
  77.3469696  36.3283043  22.7026787  65.6819077  23.3752632  27.4863892
  65.9938812  24.2142830  27.8254337  66.4777527  22.8611774  27.3500767
  61.6652603  36.9906082  79.5096893  61.8710327  36.1866760  79.9867325
  60.7099800  36.9954224  79.4492722  63.3684692  24.1807098   8.4669161
  64.0497665  24.8374405   8.3227787  62.9690742  24.0569725   7.6058683
  18.3121719  71.2463989  77.5709839  18.8390808  70.8933868  76.8540573
  17.4533710  70.8383713  77.4604950  35.9219284  54.0426064  67.0512085
  35.6990051  54.5631485  66.2794724  35.6545677  53.1518555  66.8246918
  74.2891083   9.3769617  51.6832771  74.5669250  10.1177216  51.1444588
  74.5739288   9.6044416  52.5683556  14.9925385  13.4972572  22.9833851
  15.1383657  12.6124382  23.3181400  15.7538691  13.9947643  23.2818737
   0.1522546  69.7940063  14.4298868   0.7526157  69.0681610  14.6000338
  -0.6194137  69.5959778  14.9604950  72.5224152  50.0273705  39.0989914
  72.2519989  49.4379616  38.3949318  73.4257965  50.2591743  38.8835907
  44.4414444  21.9406052  25.3821449  44.4095917  22.8752670  25.1781273
  44.6858406  21.9055138  26.3069534  51.8441124  59.4157982  76.1869965
  51.6313744  60.1909943  75.6673355  52.6925354  59.1273422  75.8505325
  40.7688408  20.3308830  74.8183670  40.6437187  20.3634853  73.8699417
  41.0296211  19.4269104  74.9946136  42.6490211  70.6763916  53.7448082
  42.8927574  69.7587738  53.8665237  42.4052429  70.9775772  54.6200752
   3.2395291  38.6418190  53.0528259   3.6845245  38.6004906  53.8992920
   2.4817646  38.0654984  53.1522064  78.2109985  34.2947121  26.8457527
  79.0739365  34.3037872  27.2598667  77.6224289  33.9670410  27.5257874
  76.4880600  69.2921219  74.2322464  76.7616119  68.5744324  73.6610031
  77.2991028  69.5967407  74.6392593  14.3046246  29.8297291  60.2628250
  13.8497076  29.0456085  59.9555206  14.5631552  29.6203651  61.1603584
  38.7985916  39.7498970  81.9135742  38.9899483  40.6754570  82.0650635
  38.8772736  39.3445892  82.7771530  72.6471863  28.3277035  29.8997345
  73.2090912  29.0905132  29.7633114  72.4460678  28.3426456  30.8354492
  33.4973946  53.4383430  56.5047722  34.3542633  53.1331062  56.8028297
  33.0071983  53.6004181  57.3107948  47.4325294  30.0380421  62.1809425
  47.6974297  29.4802303  62.9123154  47.8240700  29.6255188  61.4110374
  73.6312103  23.3485718  30.9717731  73.2319260  22.6254749  31.4554443
  74.5105438  23.0368671  30.7576828  21.4269352  41.5165634  80.4440308
  21.0361900  41.9597893  81.1970901  21.2978764  42.1236496  79.7153168
  67.0952988  44.0323906   9.0694799  67.9108658  43.7005081   8.6940727
  67.0299759  43.5996895   9.9207935  50.6642380  33.9351425  28.7173405
  50.7506256  33.3812256  27.9414902  51.0426750  34.7745247  28.4556980
  20.0901604  20.9286652  74.0588303  20.1599445  20.0627079  73.6569824
  20.2949505  21.5387363  73.3502350  13.4819517  29.8712406  71.5322113
  13.5513287  29.1108437  72.1094589  14.1740685  29.7434063  70.8834686
  42.8720703   1.4612269   8.8760881  43.7369461   1.0666043   8.7643051
  42.7104301   1.9212524   8.0523882  84.6170273   9.2517223  69.8562927
  85.2716217   9.8617687  69.5163193  85.1035309   8.4430542  70.0162964
   2.2057788  23.8947124  72.6138992   2.1015980  24.8456478  72.6470795
   3.1500721  23.7598591  72.5341721  80.3663101  26.1684246  38.6736374
  79.6613617  26.1669369  38.0261192  81.0902557  25.7160950  38.2405853
  80.6545639   8.8698759   7.6310363  79.9799194   8.7907925   8.3054466
  80.8263626   9.8097525   7.5731649  85.6114120  23.5051537  46.1592369
  85.1664581  23.1967793  45.3698349  86.5262527  23.6037922  45.8954659
  65.1044083   6.6512189   5.5589142  65.9983902   6.3376851   5.4221005
  65.1356735   7.1037993   6.4017816  28.6973171  44.1938667  13.9298944
  28.4361305  45.0216408  13.5264025  28.5967674  43.5454712  13.2329712
  83.6059418  26.5745277  45.0468712  83.5555420  25.9066029  44.3630829
  84.4382477  27.0192261  44.8864288  44.1267204  23.1634808   2.5053473
  44.6285057  22.8276272   1.7626213  43.2846909  22.7117119   2.4494312
  84.2594299  18.8704758   2.1501369  84.7750778  18.8527584   2.9563785
  84.3150253  19.7777557   1.8501620  44.3626137  51.0432892  46.1620827
  43.9575806  50.8388138  45.3192482  45.0625191  51.6601906  45.9480858
   1.1803775  19.4010582   6.1708345   0.8232827  20.2855129   6.0904794
   1.4286060  19.3257790   7.0922179  27.5274830  52.1408882  86.4709473
  27.0453377  52.6361351  85.8087540  28.4475250  52.2555237  86.2330170
  74.8252106  26.7746944  83.5269928  75.3613052  27.2287064  84.1771469
  75.3029633  25.9653206  83.3456192  13.8124590  53.1518517   6.7009854
  13.6351118  52.6091003   5.9327388  14.1604261  53.9682465   6.3423123
  81.2015305  63.8240700  42.7605286  81.4035797  64.7061157  42.4484367
  81.9703827  63.5683403  43.2701340  57.9341316  43.3611679  55.7091904
  58.4531860  44.0084724  56.1864853  57.0261421  43.6241455  55.8596420
  76.1422577   0.8813571  31.2796192  76.2741852   0.5139269  30.4056492
  76.6293793   0.2974197  31.8609676   3.2701869  46.9394455  23.4207516
   3.7697241  46.3130226  22.8970242   3.9341710  47.5038338  23.8167591
  15.5047016  20.5062180  86.7488861  15.0991554  21.3708057  86.6836700
  15.9724178  20.5234222  87.5838547  55.7270126  40.6142464  59.1966438
  55.1047897  39.9343872  59.4552193  55.1788406  41.3578339  58.9460030
  27.2227745  57.8161316  59.8158112  27.0369034  56.9803734  59.3878059
  27.5507603  58.3773384  59.1131706  34.9645119  16.7362919  87.9977646
  35.2722206  17.4012432  87.3818207  34.9989891  15.9174671  87.5032272
  37.3398056  31.1617966  63.2929649  36.5174980  31.5944176  63.5229263
  37.8619385  31.8465233  62.8749199  80.7182388  21.4753742  36.4918251
  81.1608124  21.4167862  35.6451073  81.3867111  21.2245178  37.1293526
  41.2606316  31.1406593   1.9471152  41.2039833  30.5795937   2.7205675
  41.5747375  30.5609665   1.2531964   8.4477329  45.7941780  57.2597923
   9.2346716  45.9906197  56.7514915   8.3969908  44.8383293  57.2628632
  75.8917313   7.3942413  15.4297047  76.2627792   7.7444925  16.2395687
  76.3124313   6.5411129  15.3228369  77.1706848  43.5807381  37.7526131
  76.8117828  44.1389046  38.4424438  78.0746231  43.8783188  37.6497841
  50.0329971  23.9935913  25.0926228  49.3534126  24.6127548  25.3591347
  50.4420853  23.7190742  25.9133053  58.2738800  51.9659233  21.6443825
  58.7454567  51.5114861  20.9462891  58.6921234  52.8253708  21.6958504
  50.2202225  35.6647797   2.9064162  50.9363747  35.2432404   3.3814511
  49.9101639  36.3496170   3.4989500  45.3304367  53.7095070  82.8464279
  45.8207359  52.9140167  82.6389923  44.6297836  53.4142342  83.4279175
  30.6416969  20.2436142  72.3093567  30.0832481  19.4732838  72.2046738
  30.0360966  20.9495087  72.5356140  60.8641281  35.1118240  73.6107712
  60.7517929  34.1612434  73.6131210  59.9849968  35.4572754  73.7657776
   1.7586643  60.4860573  35.9749947   1.4221920  59.7195587  36.4392128
   1.0031163  61.0682487  35.8947868  29.9571590  43.3732529  51.7612839
  29.4537163  43.3968201  50.9475136  30.3025036  44.2610435  51.8550682
  30.3320179  26.9549427  80.0561295  31.0681801  27.4414406  79.6851654
  29.5622883  27.4784260  79.8331680  77.8855972  61.2006569  11.6942692
  77.9622421  61.5064583  10.7904768  78.3395538  61.8659286  12.2115335
  46.7210503  42.6267662  46.1883392  46.6279945  41.8576584  45.6261559
  46.8917274  43.3474503  45.5819473  45.7406311  40.3180542   3.8266160
  45.4610405  40.7923355   4.6096354  45.6816330  40.9632187   3.1219788
  20.3483772   1.6692740  71.5801315  20.9314384   1.3704315  70.8823090
  19.7795982   0.9194085  71.7545624  67.9210510  71.3171539  73.4301910
  68.4157104  71.7036743  72.7075958  68.0185776  70.3726807  73.3090286
  68.4974136  53.9727097  23.0567837  68.0087738  53.3022804  22.5793076
  68.9586411  53.4899979  23.7427025  85.4793091  64.0522995  85.0972977
  85.0169983  64.8582077  85.3275452  84.9813004  63.3585968  85.5297318
  70.4692459  51.0058861   8.5385914  70.0105209  50.4540138   7.9051542
  71.3868942  50.9680786   8.2689180  19.4824352  57.2212830  39.5230637
  19.1748028  56.5682144  38.8944931  18.7914906  57.2613907  40.1842842
  73.2560349  36.4965134   8.6143522  73.5793839  36.9629326   9.3851500
  73.8554382  36.7496376   7.9123006   9.2297945  15.9392061   3.0493441
   9.6966486  15.6194830   3.8213909   9.0687284  16.8647003   3.2330582
  19.8704758  52.6064682  77.8170166  20.0892925  53.3751030  78.3438492
  20.6817760  52.0995560  77.7844543  33.2001915  50.6668663  49.8726425
  32.6687355  50.6773491  49.0766029  33.5401917  51.5586815  49.9453926
  50.6456223  27.0277061  73.6186905  49.8054619  27.3995686  73.3502197
  50.6304665  26.1325092  73.2801285  55.3815117  39.3809204  45.4667091
  55.4471016  38.4265022  45.4985924  54.4415092  39.5577583  45.5035324
  58.8644333   5.1285510  57.6180763  59.4267120   4.5303845  58.1102867
  59.3858299   5.9259520  57.5257301  58.6233139  47.1018600  38.1674881
  58.1022644  47.4434471  38.8941650  59.2404442  47.8047256  37.9641037
  19.3833122  66.6960220  33.5176964  19.6521034  66.3277054  32.6760750
  18.4610672  66.9219589  33.3966827  41.6073494  17.2950783  66.4977112
  42.2942543  16.7500114  66.1139069  41.6439590  17.1021633  67.4345474
   1.6423494   9.4286642   2.9624701   2.0063312   9.5072737   2.0806711
   1.4967247   8.4897680   3.0786533  50.1188164  69.5051117  60.9601784
  50.6094666  70.3225327  61.0457230  50.7916336  68.8300629  60.8715172
   2.4396348  52.1995049  26.9132404   1.6716070  52.7446442  26.7423954
   3.1848624  52.7766609  26.7466373  28.4333229  15.6261101  10.5852242
  28.4244709  16.0898552   9.7479105  29.3586750  15.5853281  10.8266602
   6.9253964  71.0796051  75.2388458   7.8344498  71.1717148  74.9535904
   6.8860245  71.5529022  76.0699158  44.0104408  48.7979088  25.8342896
  44.5395813  48.0475273  26.1047955  44.6380730  49.5157127  25.7502251
  41.6359901  47.6785965  10.6324606  41.3034325  48.5639992  10.4851398
  41.5265312  47.2383080   9.7896109  19.5268230  62.8323097  44.5746574
  20.3879871  63.1877670  44.7943840  19.5841141  61.9053383  44.8063240
  21.0427322  60.8025856  55.9304657  21.9367485  60.9529495  55.6232872
  20.5082245  60.8350601  55.1370697  64.3524017  65.9487152  82.4540405
  64.9064789  66.3868866  81.8080978  64.9099197  65.8600464  83.2270508
  71.5916367  25.8451233  80.7523575  71.5580292  24.9755707  81.1510773
  72.2383575  26.3222103  81.2723312  15.9038286  23.0744591  68.5066833
  15.4779673  23.5212097  67.7750473  16.8377094  23.1136189  68.3003693
   6.5103512  54.3959160  61.3568459   7.3790407  54.0003395  61.4284668
   6.6372786  55.1499596  60.7810555  36.2514534  23.8295918   4.6126051
  36.5180130  24.4430180   3.9278524  36.6386566  22.9945068   4.3500423
  16.2421875  19.4698696  84.3305130  16.1086502  19.8916016  85.1793594
  17.0678291  18.9951134  84.4261856  45.6436081  66.2628632  20.0483971
  45.0071030  65.7251205  20.5194855  46.4780922  65.8109207  20.1733379
  36.0804062  33.8808250  86.8520355  36.6312523  33.2591133  86.3763504
  35.1904526  33.6855583  86.5586319  75.2238007   7.5768833  11.3591938
  75.6900711   7.6321874  12.1933203  75.3796082   6.6822486  11.0565643
  73.2988510  11.9363480  88.3924026  72.7471161  11.2048979  88.1152649
  73.1751938  11.9838696  89.3403931  56.4828186  57.2990875  74.1288528
  57.0043945  57.9382172  73.6433640  56.6605072  56.4650688  73.6940308
  65.4406738  41.0627098  63.0845375  65.1721344  40.1811867  63.3434486
  65.5163116  41.5420685  63.9095993  53.6933594  54.6082382   5.3958917
  53.1228905  53.8827553   5.6498070  54.5043640  54.4563522   5.8811059
  13.4495564  40.5160828  42.1915932  12.6532631  40.3078728  42.6802635
  13.7395878  39.6756401  41.8369598  49.3181572   3.6067514  23.8609753
  49.4145622   4.1591926  24.6366997  50.1724396   3.1874719  23.7578583
   9.1482658  55.3411942  24.2869263   9.4130220  54.4238167  24.3544140
   9.5826540  55.6582146  23.4950714  70.5159607  41.2166443  26.1922379
  71.1346359  40.8051109  25.5888195  71.0314026  41.3953590  26.9787598
  56.1508751  36.4774246   2.6725719  55.5855370  35.8687973   3.1481695
  56.6179886  35.9282265   2.0429540  15.0150290  18.5581093  81.9927750
  15.0642395  19.1976929  81.2823181  15.3441582  19.0264912  82.7599258
  44.7706223  68.0809326  60.1370544  44.2046204  68.6520004  59.6176796
  45.2414894  67.5568542  59.4890900   3.0228140  18.4044514  30.0978470
   3.7946382  18.9685516  30.0497646   2.7021899  18.5130386  30.9931908
  38.9360924  71.6392441  75.1104736  38.9352646  72.1759415  75.9030533
  38.6296921  70.7806473  75.4022980   2.3882015  71.2898788  78.0261230
   2.7642877  72.0631714  77.6056290   2.0874848  70.7444305  77.2992935
  77.4162216   0.5009589  26.0616074  76.5715714   0.3866630  25.6260223
  78.0598526   0.2068822  25.4170227  68.3474503  34.9296379  78.5405579
  67.4234390  34.7199287  78.6764450  68.4129333  35.8635483  78.7399521
   0.7870155  51.3153267   8.9853277   0.8575922  51.5028534   9.9213209
  -0.1544267  51.2536201   8.8237400  82.2804413  38.5722160  55.8186378
  83.1377563  38.7135315  55.4170380  81.6632309  38.6194267  55.0885315
  24.1226883  36.9661789  76.0632858  23.7288761  37.8322449  76.1685181
  23.3840160  36.3594856  76.1134720  44.1402855   0.3844867  49.0228043
  44.1792526  -0.4979607  48.6540222  44.9748688   0.4903206  49.4794197
  41.0232201  43.4884949  65.6321640  40.3779907  42.9225121  65.2084045
  41.8674469  43.1712952  65.3113861  67.4745636  11.0998306  47.3356361
  68.3729782  11.0938845  47.6658516  67.0385590  10.3952599  47.8149185
   2.7562685  44.3753510   3.1165538   2.0316434  43.8965073   2.7142386
   2.3416657  44.9180374   3.7872453   8.9308271   4.2082305  14.8230400
   9.0259762   5.1327586  14.5940733   8.6516151   3.7875884  14.0098162
   0.7647732  39.0072060  74.2409515   1.2826294  39.7183647  74.6181946
  -0.1209059  39.1535187  74.5732117  50.9250603  49.1518402  81.8228073
  50.2705421  49.5234070  81.2313843  51.5970268  48.7945061  81.2422867
  31.9367428  58.5959778  32.9056396  32.8145218  58.8545303  33.1865082
  31.8688946  58.9165878  32.0062866  53.1563454  45.8687820   0.2204882
  52.7016678  45.5514832   1.0007595  52.5682487  45.6537285  -0.5034780
   7.1306019  23.5471992   3.3843815   7.0206375  24.1537571   4.1166563
   7.4540896  22.7414436   3.7873030  13.0925426  34.9729729  27.3155594
  13.9815044  34.8805580  27.6582508  12.7958202  34.0740242  27.1738529
  72.3062286  26.1696873  36.6810760  73.0167084  25.5933743  36.9627037
  72.0706100  25.8512077  35.8097038   9.8855095  60.1605415  40.7033043
   9.9782162  59.8107262  41.5894547   9.7455282  59.3888206  40.1545906
  62.2290993   1.3075598  56.8219872  62.9408302   0.6730767  56.9062653
  61.9635544   1.2491120  55.9042206  74.8831787  13.8534098  78.9050140
  74.5685654  14.7484865  79.0318604  74.1949234  13.4278135  78.3937378
  67.7699203  42.7496986  77.4917297  67.5523987  42.9854584  78.3935852
  67.9760361  43.5835266  77.0692596  10.9811440  29.8919926  86.6260223
  10.0761404  30.0871792  86.8691330  11.2411604  30.6223240  86.0645599
  40.6864243  55.0154724  30.5628853  40.1730194  54.6640244  29.8354721
  40.8708229  55.9202728  30.3107567  57.1734009  31.0849457  74.3039169
  56.6247711  31.7906208  73.9614792  56.5744324  30.5442562  74.8188171
  63.0485725   6.0469503  59.4656830  62.7968521   6.3682661  58.5998726
  62.2198753   5.9462166  59.9340248  23.8741760  30.1418095  21.7187061
  24.8030891  29.9110794  21.7294445  23.8647556  31.0922565  21.6055965
  61.1685295  35.5160255  83.8167114  61.8168182  36.1809006  83.5845642
  60.5730133  35.9621162  84.4188690  75.9120407   3.3479774  45.2789307
  75.8007660   2.5818524  44.7159882  76.3427353   3.9950871  44.7203712
   3.1048081  57.6138535  55.8609772   3.9906371  57.8908882  55.6269035
   3.0822182  56.6804276  55.6501808  23.6937237  22.0912647  70.4031830
  23.4626350  22.6756020  69.6811142  24.3200722  21.4758282  70.0221863
  34.0419617  41.6058578  15.1670675  34.5444031  41.6043739  15.9817963
  33.7357979  42.5082016  15.0761280  73.0543442  58.2972832  87.3871918
  72.5464401  58.6693077  88.1082077  72.6275864  57.4611778  87.2000122
  17.8662243  22.3284531  71.8234787  17.4348011  21.5294094  71.5207596
  17.8490200  22.2629375  72.7782745  41.5443420   6.9160271  75.6652756
  42.3657112   6.8076539  75.1858597  40.9410248   7.2926993  75.0246887
   2.4115646  31.3354454  61.8262138   2.6267560  30.7672539  61.0865631
   2.7257113  30.8581982  62.5941849  57.7978897  33.9169235  32.1393700
  58.4950294  33.2820129  32.3040428  56.9943428  33.3968048  32.1435928
  49.8493004  45.7997742  20.7416019  50.1514626  46.0554733  19.8700829
  50.6099358  45.9325256  21.3073273  21.5151978  24.6420174  23.2889900
  22.4142780  24.7817364  23.5862541  20.9949455  25.2622623  23.7997417
   9.9131784  61.1740952  21.7704391  10.4653454  61.7846794  21.2820415
  10.1180458  60.3160973  21.3988209  14.5157280  10.8168087  19.7888851
  14.1016188  10.7451591  18.9288788  15.4151020  11.0846043  19.6000900
  39.8197479  58.5232735  26.2738991  39.4318771  58.9882660  25.5325680
  40.1715889  59.2156792  26.8333740  51.1399460  41.4670258  17.9687061
  51.7433205  41.9262123  17.3844795  50.3361015  41.9858398  17.9387112
  52.8352318  45.1238174  64.3690109  52.2953568  45.8276482  64.7287064
  52.5804710  45.0735092  63.4477043  48.8078041  30.3067379  16.2801590
  48.6043205  30.6313858  15.4029884  49.4526176  29.6142330  16.1356392
  15.9190664  39.4979820  18.1873093  16.6795731  39.6787224  17.6348648
  15.2741547  40.1568832  17.9300785   6.9941649  34.1830406  25.1915112
   7.1362014  33.5378342  24.4988556   6.0566168  34.1321526  25.3776436
  65.1509705   1.2701375  33.0228539  64.5588989   1.4502461  32.2926178
  64.5810699   0.9400521  33.7174683  68.1807251   3.8610935  79.4088287
  67.3635483   3.9152858  79.9043274  67.9508591   4.1717052  78.5330887
  18.0139103  55.4821053  38.2183418  17.8912735  54.6032867  38.5773239
  17.9606552  55.3630562  37.2700691  79.8260651   1.1695440  56.2624474
  80.5909195   0.8399374  56.7342415  79.1641541   1.3008412  56.9413147
  19.2025814  17.7894135  24.0147228  20.1153717  18.0531464  23.8985634
  19.2041225  16.8453045  23.8569698  67.6706085  37.3239288  20.3347950
  66.8609238  37.3328552  20.8452530  68.3554764  37.1319046  20.9753551
  77.3715668  58.6694603  11.1401653  77.8810349  58.4049225  10.3742046
  77.7746277  59.4898834  11.4242172  75.5705414  56.4668999  31.4699593
  76.4381409  56.7589607  31.7496071  75.5086670  55.5648651  31.7841835
  65.4677048  23.7086449  64.4815369  65.9688950  23.4901600  63.6958427
  64.9921112  22.9054089  64.6933136  72.2073364  46.4333839  10.0430698
  71.5316315  45.7890511  10.2539997  72.5344009  46.7248154  10.8941450
  39.1704483  56.6617889  10.5935555  39.2721901  57.1942520  11.3824539
  39.3687706  57.2603302   9.8733845  86.1756821  66.6061325   9.2997904
  86.9073715  66.7918167   8.7112513  85.9067383  67.4649353   9.6259279
   7.4739366  59.5732269  67.8478470   7.0255685  58.7304344  67.9178696
   7.9664345  59.6511230  68.6649246  29.0783863  64.0555725  76.8982086
  28.3905773  64.3880005  77.4749603  28.6105347  63.7375641  76.1260529
  15.6080027  50.8577347  27.6820049  15.9155588  50.2448959  27.0141182
  15.5092573  51.6887169  27.2173061  19.6556911  66.1749268  36.6036949
  19.5536900  65.2509384  36.8318939  19.4167366  66.2207870  35.6779366
  72.0275497  14.3839655  75.0527420  71.7193222  14.7692165  75.8729935
  72.5419617  13.6235676  75.3236771  77.4069672  41.0703239  13.6416416
  77.2449112  40.9713669  12.7034636  78.3199692  41.3521385  13.6985769
  56.9400711  26.8122864  24.2599487  57.1887093  27.6119347  24.7236004
  57.3048401  26.1042995  24.7909203  13.8918247  68.0687408  65.0418777
  14.4345856  67.6607895  64.3671799  14.2132673  67.6986618  65.8640366
  61.1069870  64.6441345  14.9805584  60.9530792  65.0607681  14.1326427
  60.3396835  64.8755646  15.5039301  77.8169708   1.5656024  73.7470016
  76.9192200   1.2359666  73.7068863  78.3293610   0.9257724  73.2527313
  27.7415409   1.2425075   2.1637266  27.7404366   0.9947174   3.0882971
  26.9785957   0.7969583   1.7954414   3.3509989  32.3004532   4.2729011
   3.2190783  31.4224262   3.9152775   2.8321424  32.3119278   5.0771947
  53.2972260  42.1655617  78.6908264  52.3938484  42.4143906  78.4953079
  53.7832108  42.3836937  77.8955460  17.2842236  63.8131218   6.5617013
  17.3212280  62.8975792   6.2848506  17.0857677  64.2977905   5.7604871
  22.8823547  57.6771088  14.9672146  23.4319534  57.4027290  15.7013044
  21.9972248  57.4139099  15.2192135  55.2082214  28.4212818  27.3832645
  55.3057404  27.5012226  27.6286526  54.2721519  28.5257587  27.2127151
  86.2599411  26.7655983   2.9687352  86.3160172  26.5452003   3.8985262
  86.4458847  27.7038956   2.9333615  43.5360565   8.9606400  77.0386124
  42.8845139   8.4802866  76.5277405  43.2547340   8.8531799  77.9472046
  19.5888100  58.5133209  30.8523731  20.2610683  57.8545876  30.6780987
  18.7623997  58.0664635  30.6690903  14.5770445   9.0172281   9.7733221
  14.3032360   9.2858515  10.6503067  15.1695890   8.2804489   9.9225817
  25.0169048  10.6229000  15.6149282  25.5368690  11.1681938  16.2052860
  24.5467682  11.2480621  15.0632248  48.5118294  23.4455509  30.2941494
  49.1965637  22.7825737  30.3826618  48.8469009  24.2017460  30.7759457
  61.7257538  34.9281273  20.4170399  62.5866585  34.6798172  20.7538204
  61.8799973  35.7467842  19.9456139  60.1051636  60.2800903  50.5553284
  59.7408905  59.6579361  51.1849747  61.0533142  60.1919250  50.6526413
  34.6705589   7.7622085  64.0147934  33.7207794   7.6799889  64.1007843
  34.9544525   8.1411572  64.8466797  33.7121086  53.2523956  79.5654221
  33.0537796  52.5599174  79.5079117  34.1782799  53.2096291  78.7305069
  43.1214714   3.6035445  30.1271629  43.7783470   4.0608425  30.6521606
  42.8806839   4.2307887  29.4453869  86.2249146  36.8983650  78.1528091
  86.5567627  36.2834816  77.4985733  86.2064819  36.3951340  78.9668427
  66.5272293  49.7103157  36.1508217  66.4933243  50.5738335  36.5624275
  65.7155380  49.6532478  35.6467018  67.6493301  48.7416000  55.9806213
  67.4722290  47.9470520  55.4770699  67.0950165  48.6617317  56.7568855
  65.9057541  43.5709190  61.8052750  65.7733383  42.7078934  62.1975594
  66.8518600  43.7101936  61.8466110  63.2672577  14.2508116  13.3724861
  63.8826752  14.1685362  12.6439781  63.6597710  14.9105358  13.9442616
   1.6860328  48.4156952  32.1388702   2.5383832  48.5650902  32.5480309
   1.2214030  47.8479881  32.7537308  48.5552101  32.4284401   5.5917768
  48.9275436  31.9079933   4.8799229  48.0615730  33.1195869   5.1503358
  70.1761551  51.9132652  36.9696846  70.4648972  52.7102089  37.4143600
  69.6388550  51.4583855  37.6182404  12.7015324   4.6708784   1.0434059
  12.4814930   4.8691554   1.9536260  12.3483095   5.4081650   0.5455368
  71.2062378  12.8516865  70.1843033  72.1328583  12.8681498  70.4237289
  71.1546021  13.3833599  69.3900223  65.8118744  33.6452484  77.2171555
  64.9553070  33.7309723  77.6356888  66.0245209  32.7152252  77.2950668
  81.8186417   1.3285105   7.1833053  82.3561707   0.5416740   7.2737846
  82.3321304   2.0188980   7.6027474  37.0168190  69.2068253  42.7618370
  36.5557747  70.0355148  42.6317062  36.5004730  68.7468262  43.4236717
  74.5681381  19.4176197  11.6770744  73.8227615  19.3752995  11.0780296
  75.0069809  18.5732899  11.5733900  40.9800224  53.4001884  85.9953690
  41.0052185  53.5310249  85.0474854  41.0596733  54.2812271  86.3609619
  68.9817810  50.3923988  18.6628399  68.0399780  50.4584656  18.8205681
  69.0916748  50.6642609  17.7516594  37.3895187  28.7344627  64.5671387
  38.2930489  28.6858521  64.8793869  37.3063507  29.6191616  64.2112961
   1.4794416  23.5168457  34.5481110   1.4457572  23.9002972  35.4245033
   0.5774022  23.5637550  34.2313232  58.5154381  40.1039925   3.7227857
  59.2206421  39.4592247   3.6662576  58.9656258  40.9458618   3.7921827
  85.9716797  59.5545654  79.3962860  86.6569595  59.3235207  78.7691956
  85.1546936  59.3238678  78.9540863  68.8605804  22.3810005  31.9187851
  68.1722794  22.7417183  32.4776802  69.6609268  22.4711838  32.4360313
  45.9657249  41.2565460  34.7095985  46.8121986  40.9993782  35.0750885
  45.8774643  40.7291794  33.9156685  59.4908295  11.9548864   1.7535648
  58.9874229  12.3834810   1.0613797  60.3404884  12.3954735   1.7396518
  47.1164017   5.8433199  72.9574127  47.1896667   5.6951618  72.0145874
  46.1813507   5.7545204  73.1418686  73.7620239  27.9770470  23.9004936
  74.4798737  27.7841320  24.5035686  73.0781860  27.3490810  24.1334457
   8.5403214  38.4479218  63.2716599   7.6820021  38.1916504  63.6090698
   8.7941732  37.7295036  62.6922951   1.4002308  25.5542412  83.2035522
   0.7182395  26.1533527  82.8999329   2.1936417  26.0889778  83.2316437
  15.3785706  65.7788086  14.2273598  15.7354012  65.5688858  13.3643208
  15.1511068  66.7070084  14.1731853  62.5418472  31.2744083  60.6005211
  62.1886253  30.3847771  60.5957451  63.0148163  31.3487701  59.7716637
   3.7789001  69.8493271  23.2874756   4.5066524  69.4534531  22.8080082
   3.2660408  70.2990112  22.6159153  69.9813919  39.7990761  81.9792328
  69.2408371  40.1287270  81.4701767  69.9052124  40.2395401  82.8256531
  77.8772583  54.9885445  15.0377569  78.6157303  54.5027199  14.6705122
  77.6294250  55.6047592  14.3484879   7.9929299  37.5266342  88.5203171
   7.2594938  37.8992767  88.0309906   8.0424290  38.0549507  89.3169785
  41.7646103  45.3608818  84.5200806  42.5410271  45.2344131  85.0654373
  41.6709290  46.3111534  84.4534302  51.3525085  25.7442284  51.1957054
  51.1175156  26.4672394  50.6140976  52.3034630  25.8076725  51.2845383
  49.6712494  67.5664368  40.2224884  49.5606956  66.6362457  40.0256615
  50.2767830  67.8828049  39.5520592  23.0986176  33.3294830  19.1289883
  22.9934425  32.3978157  18.9361935  23.8866158  33.5857620  18.6498108
  65.1569061  23.5329227  13.9007854  64.9824524  23.6654892  12.9690008
  65.9659882  24.0175724  14.0643005   2.0112047  42.9383011  33.3503761
   2.3969333  42.4959297  32.5942345   1.9038360  42.2467308  34.0033951
  57.8341255  37.3873978  25.1438560  57.5621796  38.2778435  25.3660717
  57.1595650  36.8278694  25.5287247  83.9242172  44.7742615  16.5632915
  83.9115067  43.8449059  16.3344536  83.3598938  45.1892929  15.9109764
  74.0538177   9.9647284  13.8150587  74.0503998   9.8563604  14.7660990
  73.3635864   9.3786287  13.5047340  10.7527933  42.2400322  78.5673370
  11.0765400  42.0252609  79.4421463   9.8073368  42.3389168  78.6794357
  83.4082794  33.6654854  74.0278091  84.1036148  34.0529060  74.5594482
  83.7852554  32.8498268  73.6979218  64.3556747  18.1984253  23.1496086
  64.7369537  18.9674969  22.7260666  65.0841370  17.5824718  23.2282200
  34.7695847  40.3863335   0.6252655  34.8372116  41.3303146   0.4819061
  33.8736267  40.1686096   0.3681835  72.3015213  52.4139709  64.3181534
  72.2868042  52.1256943  63.4055138  72.0837402  51.6290283  64.8208160
  41.1140633  44.8805618  31.5939808  41.4879799  44.5472260  30.7783203
  40.6961403  45.7053490  31.3464031  77.3820877  45.1606827  66.6529465
  77.3454895  44.8126678  67.5438919  78.0481949  45.8470306  66.6910858
  18.8829727  31.9349766  61.6473236  19.3654079  32.7616997  61.6436882
  18.7298584  31.7429466  60.7221680  46.1011162  39.5932999  24.7398338
  45.7000427  39.2152328  25.5224190  45.8638611  40.5200386  24.7729969
  58.1112785  44.7348022  46.0422134  59.0351906  44.8244247  45.8085747
  58.0587921  45.0604019  46.9408035  30.6211967   7.8687692  80.3160172
  31.3731079   8.4305105  80.1281128  30.8108349   7.0522318  79.8539200
  11.1505222  67.9268265  61.2049370  11.1975327  67.7655106  62.1472778
  10.2166729  67.8796616  61.0001640   4.9302096  45.1710129  74.2057571
   5.6840324  45.3680000  73.6497192   4.9884419  45.8041229  74.9213028
  58.2620697  61.3577766   0.8710881  57.9520073  60.9537735   0.0606101
  57.5272980  61.2708855   1.4783716  47.4817772  68.0655899  17.4456425
  46.5496559  68.2653580  17.3591938  47.5243340  67.1094742  17.4293289
  40.4862709   1.3401507  27.5115490  41.2809982   1.2231629  28.0320835
  39.8341141   1.6548965  28.1375351  72.6456146  16.2921925  16.1461658
  73.5613480  16.1800995  15.8910151  72.6825638  16.5312386  17.0722980
  64.5103760  60.8964920   2.5806713  63.9102898  61.4157562   3.1159196
  64.8642120  60.2425346   3.1834748  77.4957657  54.5436249  35.4821396
  77.1994934  55.4521790  35.4274826  78.4317551  54.5847092  35.2860069
  25.5404625   0.8540738  74.9742050  25.4429512   0.2653234  75.7226028
  24.7029705   1.3145117  74.9209671  33.4558220  51.2461166  64.4283142
  33.5018959  50.3868752  64.8476105  33.8933411  51.1251640  63.5855942
  59.5004311   9.3518715  18.7713985  59.9284706   8.6629257  18.2630978
  58.5675087   9.2396193  18.5889645  38.2546844  20.3556995  21.9978447
  39.1375008  20.6672955  22.1972809  38.2806740  20.1434708  21.0648308
  13.0883522  14.8765287   7.4923787  12.9260645  14.6967402   8.4184294
  12.9551296  14.0340815   7.0579062  56.3046761  29.9109802  11.3832970
  57.1034927  29.9438496  11.9096470  55.6089287  30.1701260  11.9874544
  81.1823196  32.1095581  87.0618973  82.0878143  32.3288307  87.2815170
  80.6623077  32.8006554  87.4720230  78.1198273   8.3849392  82.6608963
  78.4810181   7.8743997  83.3855515  77.5870743   9.0580864  83.0843201
  35.7624817  41.7535629  25.2787704  35.9255829  42.6967621  25.2814674
  35.5857544  41.5436783  24.3617401   8.2991037  45.9025307  88.1621017
   7.9372358  46.5961571  87.6105804   8.4803181  45.1844063  87.5557251
  71.1407776  65.6317825  43.7365875  70.7407761  66.3867111  44.1682243
  70.4013214  65.0728912  43.4976807  38.1994247  14.3030996  12.7917261
  38.7276421  15.1010246  12.7686110  38.8004417  13.6269741  13.1045580
  76.2172775   0.5595925  64.2249069  76.8008118  -0.1984222  64.2585526
  76.4972992   1.0431104  63.4477158  81.9153900   2.3479986  32.1593628
  82.2785645   3.1531065  31.7903919  81.6444016   1.8362005  31.3972225
   7.2518625  13.7569914  24.5835838   6.6618061  13.0568514  24.8626347
   7.0659232  14.4799480  25.1827431  14.7204370  60.9470901  66.7464294
  14.0448942  60.4013481  66.3438873  14.3878775  61.8407288  66.6625137
  30.7187843  20.9924202  67.7783813  30.8777618  20.5543480  66.9422913
  30.5129871  20.2818203  68.3857803  12.9807968  39.0713234  55.5139198
  12.3307362  38.6009750  56.0358620  13.0609360  38.5567589  54.7107811
   1.7694100  34.1864014  63.7731247   2.0262222  34.9484825  63.2539825
   2.5961208  33.7574997  63.9940910  72.9532089  56.8718491  31.8882771
  73.9049072  56.8687897  31.7858105  72.6822357  57.7376823  31.5830956
  81.0479202  62.8241615  20.5856609  81.7104950  63.4994164  20.7314682
  81.4319229  62.2511559  19.9220066   6.4687996  26.2910080  77.6456528
   6.8850079  26.6283493  78.4388733   5.6209249  26.7340431  77.6130981
  33.2567024   1.4840491  80.7419357  33.9031487   1.6934112  80.0677643
  33.1963005   0.5288665  80.7274551  61.4589462  52.1458931  36.7346230
  61.3770294  52.2866211  35.7913742  61.5926437  53.0218010  37.0967522
  14.5740213  47.0861206  35.2491302  13.9898081  47.7206116  35.6642799
  15.4419508  47.2999306  35.5914955  29.3209610  71.1056671  17.6949024
  29.3895683  71.4400635  16.8006382  28.8896408  70.2563782  17.6006050
  51.5838432  31.2008629   9.7817717  51.8869324  30.3431587   9.4839239
  50.6327515  31.1677608   9.6789999  19.4434166  69.6694641  59.4244499
  18.6263351  70.1602936  59.5121803  20.1158009  70.2614059  59.7616920
  65.3025589  64.7727432  26.3657665  65.9992142  64.5554428  26.9851913
  64.6021881  64.1515732  26.5654163  29.6202927  70.4441223   3.1715503
  30.0204620  69.7210999   2.6884992  28.7222080  70.4838104   2.8427663
   0.7452125  29.6094666   3.2884538   1.6726881  29.6199207   3.5249102
   0.7062983  30.0715752   2.4510930  15.8734646  45.0690804  76.0788651
  15.8608103  44.5443153  75.2784271  15.9266806  45.9739304  75.7712173
  46.7563629  25.3135319  60.5502167  46.2630768  25.8312359  59.9139137
  47.2322655  25.9619598  61.0691490  69.7554626  13.7533932  17.6310177
  68.9610748  13.5822821  18.1368752  70.1916885  14.4628553  18.1028290
  58.6014595  42.7038689  87.1185532  58.5807114  43.6521187  86.9896240
  57.7103157  42.4157257  86.9208984  19.3058872  42.5139084  57.3165741
  18.9788609  42.7596703  56.4511909  19.2337723  41.5596657  57.3377533
  45.7880821  65.6625443  64.9162979  45.6781502  65.6002808  65.8651276
  46.5461159  65.1098251  64.7262344  66.0748520  49.3997307  75.8475876
  65.5719833  48.6474686  75.5354156  65.8793716  50.0955887  75.2200546
  17.9505291  27.1627121   7.7163038  17.4499264  27.9753437   7.6437964
  17.5876122  26.5962677   7.0353756   5.7354174  43.1815872  85.7182922
   5.5051856  44.0973816  85.5616379   6.4788675  43.2210655  86.3199234
  50.8424225  46.0794373  12.9078894  49.9559479  45.7840843  12.7001457
  51.4121017  45.5081024  12.3928404  70.4431534  14.4398899  67.7325668
  70.2913895  13.5167208  67.5301895  71.2388611  14.6632776  67.2496796
  78.5791016  24.7455082  34.9987526  79.5345840  24.7056446  34.9575310
  78.3430405  25.4556656  34.4019394  72.3897552  20.5545006  17.3418694
  71.9809036  21.4008408  17.5229263  71.6852188  19.9176731  17.4615288
  34.6278763  20.5066376   2.7373066  34.1141739  21.1904697   2.3075233
  34.3585472  19.6967316   2.3040118  74.7878342  41.5418243  49.5926170
  74.1559448  40.8261948  49.5232010  75.3728409  41.4181404  48.8451538
  55.8227806  69.9298859  11.4475908  55.9810486  69.2446594  10.7982492
  55.9286957  70.7483826  10.9627419  42.4485550  22.7245579  44.4688530
  43.1585350  22.6684227  45.1083946  42.2247009  23.6547832  44.4405365
  84.2233887  64.8712997  63.7152214  85.0659561  65.3167496  63.8040428
  83.7226257  65.4235458  63.1148109   8.5609322  43.2398300  75.5156174
   8.0178442  43.2485771  74.7274475   9.0873795  42.4444847  75.4349213
  73.1675034  33.8023338   9.0911407  73.4938965  33.0602837   8.5821533
  73.1211090  34.5223427   8.4621210  83.1857910  34.1852798  55.7067032
  83.2827454  33.4921112  56.3596573  82.9124374  34.9520874  56.2102089
  27.0636978  13.9937830  77.9046707  27.1360912  14.1462965  78.8468628
  26.1412392  14.1547146  77.7061691  33.4156570  49.7047081  18.6200657
  32.6599998  49.2052422  18.9294968  33.6719360  49.2715645  17.8058548
  36.4017334  12.8683090   2.4831040  37.1492577  12.4323435   2.0739889
  36.2864227  12.4135199   3.3174319  12.3419342  42.6225510  27.4130688
  11.6063375  42.2316666  27.8845940  13.0552378  41.9928741  27.5176487
   6.8108773   1.1323681  77.2987137   5.9931240   1.5824590  77.5106812
   7.4961123   1.7082337  77.6379242  27.4008350   4.2252579  34.4838219
  27.1290531   5.1426730  34.4570770  26.6689625   3.7707026  34.9009209
   4.2170496  52.2293587   9.2908134   3.8757014  51.6152191   9.9408464
   5.1210408  52.3879242   9.5626383  60.9574623  29.1086388  36.5975685
  61.4813156  29.6933002  36.0498619  60.1022987  29.5350285  36.6533890
  52.7308350  19.1757145   0.9521482  53.4228554  19.8353176   0.9996949
  53.0964355  18.4843540   0.4002518  41.0220375  60.7695847  40.2495918
  40.3630829  61.2992287  39.8007202  40.8491249  60.9104843  41.1804428
  67.2715454   7.3497610  23.1063251  67.1462936   7.8184943  22.2811985
  66.4127731   7.3741965  23.5284081  27.8274422  21.9023533  67.2904510
  28.7218552  21.9500198  66.9528351  27.6864986  22.7483139  67.7155609
  15.1662483  58.4716110  56.5846481  14.5332146  59.1818542  56.4795189
  16.0176582  58.9089432  56.5932312  83.2310638  17.6669598  81.4811020
  83.4017258  17.7224712  82.4213333  82.5709229  16.9788570  81.3977203
  78.5074921   7.0564418  85.2588577  78.2355728   6.1542835  85.4273758
  79.3779068   7.1216006  85.6517487  43.8623085   8.7228956  13.5817232
  44.4340210   8.5215130  14.3225489  43.3207092   9.4503021  13.8879585
  20.4803028  44.8011093  73.1427383  21.3102970  44.9859734  73.5822449
  20.6689453  44.0493202  72.5810776  64.0970154  28.3737850   6.8276911
  64.8878174  28.5760231   7.3276567  63.4449921  28.9968662   7.1484170
  45.2987366  23.5826740  21.0966969  45.7305031  23.0036373  21.7248096
  44.7009583  23.0106907  20.6153183  22.6391792   9.5112143  85.9112091
  22.2189713   9.2475529  85.0925903  22.9672337  10.3937273  85.7386322
  45.0001831  67.0676346  82.8778839  44.4750977  66.6234283  82.2121582
  44.8058357  66.5979385  83.6889648  26.3338299  62.6115608  16.9561291
  26.5616875  63.4523544  16.5594158  27.1440086  62.1029930  16.9215031
  78.6077652  48.6242752  57.3820190  78.3393784  49.4341660  56.9481125
  78.4769669  48.7973404  58.3143120  67.6803665  52.4525414  58.8264236
  66.8939590  51.9092140  58.8772926  67.3676376  53.2966766  58.5010452
   4.8822618  23.5699768  85.5268326   5.1294298  23.8883991  84.6586456
   5.2002225  22.6674366  85.5503998  52.9977112  49.0361748  53.6043625
  53.7945328  49.5059929  53.3582344  52.7942238  49.3541336  54.4839783
  60.0753632  58.3367882  57.1845589  59.7452583  59.0059547  57.7841225
  59.4816818  57.5953178  57.3028603  74.0234985  12.5073195  75.6629333
  74.4439011  12.7276831  76.4941559  74.5709686  11.8142281  75.2939758
  81.8044968  21.6463470  47.4843864  81.2802124  22.2751446  46.9884338
  81.4124374  20.7965107  47.2836380  69.2360764  33.1198158  70.6474380
  68.7318039  32.3348656  70.8614197  69.5983810  33.4075623  71.4853897
  12.1499538  33.9542770  63.3701019  12.8876286  34.4045715  63.7815666
  12.5559158  33.3083801  62.7919617   4.4169006   0.0135435   5.3769021
   5.1455369   0.5891187   5.6093554   3.8391235   0.5612700   4.8454881
  50.5959511  57.1170807  39.4453850  49.6431236  57.1272087  39.5362244
  50.8478851  58.0403938  39.4612198  44.6427155  39.6173477  69.7373810
  45.1426888  40.3506851  69.3789520  45.3078804  39.0013580  70.0445404
  19.9415855  61.3747215   9.8231010  19.7335720  60.4621849   9.6224899
  19.4372025  61.8809357   9.1862516  70.0266647  30.4594421  86.7515564
  70.3996124  29.6425476  86.4201508  70.1276398  31.0792561  86.0291519
  14.9537783   3.5129712  21.9076042  15.3362112   4.0923567  22.5666103
  14.9246454   4.0427098  21.1108856  71.8369522  30.4246559  48.7414322
  71.6199417  31.0765533  49.4078903  71.1238937  30.4854755  48.1057587
  38.4375114  50.1955757  61.9016190  38.0277519  50.4984741  62.7119179
  38.4652634  49.2427673  61.9888916  54.8913460  63.1109314   0.4938834
  55.3635254  62.4368248   0.9826139  54.7822418  62.7398224  -0.3816768
  57.5915413  17.9611683  55.4701271  57.7939415  17.0761528  55.1667900
  57.2150650  18.3963032  54.7051735  34.1942787  48.1242027  50.8858681
  33.8699532  49.0089188  50.7175789  33.8927460  47.9230461  51.7717819
  47.3962708  50.6641426  82.5294342  47.5653000  50.6689377  81.5872879
  48.1095314  51.1814995  82.9033737  63.8067093  24.0827770  40.9454651
  63.0030708  24.5115776  40.6513100  64.0044327  23.4469566  40.2578125
  20.0074081  21.2706165  81.4340820  20.8473530  21.2793484  81.8930435
  20.1763248  21.7388935  80.6165161  51.0944023  11.8906717  83.7611618
  50.8140564  12.7536840  84.0658722  51.0231094  11.3292828  84.5331726
  71.0667343  43.8091850  28.7283173  71.6510773  44.5113640  29.0141716
  71.6074524  43.0199623  28.7596188  80.7870407  64.8627930  31.5664101
  79.9218216  65.2624893  31.4777832  81.0517960  65.0614624  32.4645538
  22.3605671  56.2455940  68.4468765  22.7951756  56.3352242  67.5987473
  21.6554985  55.6176224  68.2895279  41.4067688  24.6991787  19.5660629
  41.9673996  24.8798389  18.8115520  40.8360062  23.9878216  19.2754898
  67.8997040  34.6936264  33.0525169  67.2455444  34.0767784  33.3808556
  68.7290115  34.2199364  33.1166077  66.5194550  39.1180420  76.4501877
  66.5182190  38.5226555  77.1996841  66.2630997  39.9644966  76.8162842
  73.9240112  65.8168030  19.4312801  74.1380310  66.7144089  19.6857014
  74.1912079  65.7576675  18.5140324  10.3209476  64.1161118  35.2778015
   9.7853718  63.4385529  35.6904869  10.7251005  64.5811768  36.0103340
  24.3430614  26.1041584  85.6425781  25.1294212  26.2006321  86.1797638
  23.7870884  26.8404884  85.8974228  72.4492798  12.9607954  78.3527985
  71.6058426  12.9183912  77.9021988  72.2221375  13.0436192  79.2789612
  69.9310684  15.9137058  63.6257706  70.5522537  15.5011168  64.2258835
  69.9357529  15.3506021  62.8517418  70.4813080  46.7502785  80.0287323
  70.3390884  46.9893074  79.1128387  71.1380081  46.0546646  79.9955368
  17.9439526  22.0359631  29.8921986  17.5417976  21.6653633  30.6777916
  17.2876987  22.6435680  29.5510559  67.6531754  37.2334366   0.0305517
  67.8434067  36.7230301   0.8176556  66.8057861  36.9044037  -0.2692839
  18.7512417  45.8707809  38.7693787  19.0846272  45.0536232  38.3987808
  19.5139923  46.4482307  38.8009109  62.4748993  35.5833893  31.9129829
  62.1255608  36.4458961  31.6887646  62.9361954  35.7195587  32.7405663
   0.1834767   0.7648280  61.1349106   0.7616066   1.2779200  60.5703430
  -0.1080955   1.3834466  61.8046341  35.2569237   9.0323429   2.9932580
  35.4829712   9.0908585   2.0649748  35.9844208   8.5507603   3.3870287
   2.8259499  55.0805893  53.1178093   2.4181783  55.9434509  53.0441704
   2.8837049  54.9226074  54.0601158  62.8535805  54.1921158  51.7341919
  62.1321106  53.8898697  51.1825027  63.6389236  54.0300789  51.2114983
  32.1205406  55.9714470  14.1039381  32.0264282  56.8631821  13.7690001
  32.1685066  56.0763206  15.0541658  42.6244812  36.8030815  62.3867569
  41.9189796  36.8990440  63.0265160  43.3187332  37.3786354  62.7076683
  49.1574631  37.2108002   4.9847875  48.9382362  36.6935196   5.7597680
  49.1161537  38.1192169   5.2836213  30.4741154  68.5844650  29.6712074
  30.7639313  68.3727951  30.5585842  31.1619434  69.1521912  29.3236275
  59.0534439   0.0284685  43.4102669  59.8185501   0.3513094  42.9342232
  59.4046326  -0.2849942  44.2437172  58.9890747   5.5009661  45.5343933
  59.1427040   4.8914294  46.2562599  58.0371094   5.5940552  45.4979973
  63.1532211  22.3866577  32.5808792  64.0414429  22.2808723  32.9216309
  63.2753372  22.7372513  31.6986046  13.5470486   7.6969237  86.8787155
  12.9357882   7.5160537  86.1646576  14.1896381   8.2955980  86.4980545
  60.9185867  26.8492584   6.6643300  61.0908813  27.7873631   6.7449899
  61.7716293  26.4657040   6.4607635  19.3843517  57.6128311  59.6612206
  18.5325260  58.0364952  59.5557098  19.9937057  58.1788635  59.1873817
  55.4806404  28.8019562  65.5736923  55.2503815  29.6351223  65.9848404
  55.2880936  28.1439438  66.2416534  66.3613663  27.2202778  68.1910019
  65.9409637  26.6016750  67.5936508  66.5925140  27.9671211  67.6387100
  40.3162613  39.7808876  77.8235168  39.3835564  39.5753479  77.7598724
  40.5634613  39.5015526  78.7050476  69.8889236   4.1173639  33.6918564
  70.1011429   4.1920166  32.7614670  68.9531555   3.9166389  33.7087173
  18.0245018  13.4205685  64.7898178  18.1028500  13.8384733  63.9322357
  17.3154449  12.7864275  64.6833496  66.5543900  42.7813225  54.4326630
  65.6464767  43.0169182  54.2418251  67.0629730  43.5431900  54.1549416
   0.8164284  27.3079472  39.9350777   1.2053502  26.4726906  40.1945381
   1.5152593  27.7613735  39.4636192  54.0996590  56.1269875  72.0886307
  53.3920441  56.1161385  72.7331467  53.6659927  55.9501610  71.2538300
  76.3248978  38.1886139  81.7206421  76.1663742  38.5673714  82.5853119
  76.2792587  37.2429161  81.8613815  71.6059113  65.6490555  64.5120850
  71.8344345  65.2326050  65.3430939  72.1571045  65.2097321  63.8644600
  80.0496597  67.8373032  35.2315979  80.4742661  68.0528259  36.0619545
  79.3815308  67.1926346  35.4644814  44.2378769  12.3938112  39.7880630
  43.5886955  12.8263474  39.2333488  44.0268478  12.6847858  40.6752129
  38.5487289  30.3359642  76.8418503  38.1837082  29.4839535  77.0807419
  37.7850418  30.9045086  76.7429962   1.4684708  66.7220688  42.9744034
   0.6961302  67.2695465  42.8330040   1.5513216  66.6660614  43.9263649
  32.9014435  56.0010605  10.9844694  32.7717857  55.6560440  11.8678627
  33.3572807  55.3003349  10.5181761  80.6293259   5.6962376  56.2491302
  81.3287125   5.1015754  55.9780846  81.0869446   6.4538765  56.6135483
  83.0627823  54.3202896  38.2557793  83.3973770  53.5167732  38.6540756
  83.6070633  55.0155067  38.6254539  11.7914400  41.9120255  58.7015762
  11.0632334  41.3157654  58.8759880  11.3968983  42.7839241  58.7205620
   4.5753717   1.6460612  86.8763046   5.4058919   1.7229149  86.4066696
   4.5681748   2.3936253  87.4740753  81.6319199   1.7641256  88.3462219
  80.7590027   2.1299455  88.2033157  81.9076233   2.1245465  89.1890259
  60.8569374  12.4102774  87.1597519  61.5540543  12.9153528  86.7412338
  60.2591057  13.0710993  87.5092392  24.8258247  59.7168503  83.2457504
  25.0153790  59.2598000  82.4263535  24.0924816  60.2943497  83.0337753
  32.4094582  66.1665955  22.9570503  32.5081978  66.7524643  23.7075443
  33.0679893  65.4860077  23.0962257  74.9807739  37.9868164  10.8209372
  75.5115738  37.2088165  10.6500578  75.6148834  38.7015572  10.8781662
  24.8404179  36.8520088  67.2269440  24.8403683  37.7130165  66.8087387
  25.7004795  36.7874374  67.6421051  28.1849804  59.8003616  58.2193832
  28.2713966  60.5474892  58.8114700  28.7291927  60.0279617  57.4655495
  79.6356506  34.2882805  77.0107651  79.6658020  35.1808090  76.6662140
  80.1653595  33.7772713  76.3987961   1.6128327  27.6171856   5.6993728
   1.2774882  27.6487579   6.5953522   2.1040025  28.4325562   5.5985975
  58.2779160  69.3454895   7.0194883  59.1315498  68.9335022   7.1529284
  57.9217072  68.9126129   6.2436237  65.6041260   0.0854328  12.7141867
  65.6144257  -0.6830032  12.1435442  65.1763535   0.7649661  12.1931515
  42.0934792  39.8447075  25.7513771  41.4120216  40.4911652  25.9355907
  42.1380615  39.8093376  24.7958698  65.1941147  25.1837788  31.6394978
  64.3640060  25.4221420  32.0522118  64.9505920  24.5631752  30.9526348
  45.1977386  44.7156906  74.2515182  44.5011024  44.2900505  74.7512817
  45.6904526  45.2137299  74.9037628  27.3683567  35.1829834  15.7999287
  27.3484440  36.1088905  16.0418606  28.2986641  34.9578896  15.7903357
  21.1253433  60.0301704  38.6195526  20.9631062  60.5893669  39.3792953
  20.2525997  59.7958641  38.3038826  86.6532898  33.2902069  42.3740616
  87.2487411  32.8233948  42.9603653  86.1573105  32.5985489  41.9360504
  77.8396530   6.9501247   6.1120543  77.3730774   7.1156797   5.2928257
  78.5167160   6.3152728   5.8780050  50.7795906  70.9681015  46.8123589
  51.0239067  70.0479660  46.7128563  50.6254845  71.2730331  45.9182167
  48.3299179  45.1157494  54.9477234  47.5995026  45.7256393  55.0514221
  48.4238625  45.0133820  54.0006599  20.7082348  67.9676666  65.4080276
  21.3389988  67.2507553  65.3416443  20.9842110  68.5923691  64.7373428
  53.6229172   4.6924658  83.6003723  54.2077599   4.1588063  84.1383286
  53.0746574   5.1579499  84.2320099  13.0396509  18.6313038  74.6455841
  13.4274950  18.8538742  75.4919128  13.5932913  17.9282284  74.3058777
  30.0104275  21.7711773   9.8591080  30.5246258  22.1465626  10.5738935
  29.8320141  20.8731594  10.1383276  68.3500900  70.3755951  39.6737404
  68.7947235  70.2496796  40.5120010  67.5465164  69.8610001  39.7491798
  32.3526611  40.9460449  72.4168015  32.4181099  41.3591919  73.2777634
  32.2647438  40.0117607  72.6055298  35.0192108  38.5176506  47.3291512
  35.1396484  38.0804710  46.4861794  35.8826675  38.8727188  47.5403404
   7.2260208  10.4109440  77.5315170   6.5271106   9.8922567  77.9299088
   6.9510727  10.5246334  76.6217270  81.7400360  33.7025795  52.8617935
  82.1165009  33.7110901  53.7418137  82.4221649  34.0791855  52.3058243
  74.5859528   2.7488730  80.0620270  75.1381531   3.4499321  79.7158585
  73.9178848   2.6159983  79.3895264  18.9459648  56.9187965  81.5819550
  18.1972160  56.4736214  81.1851883  18.5878792  57.3392754  82.3637466
  66.6617279  46.3439865  24.3968220  67.2885132  45.9901962  23.7657852
  65.8454437  46.4255600  23.9036121  76.3210068  40.8793526  16.4596844
  76.7781448  40.8822174  15.6187019  76.9461746  41.2649994  17.0734272
  74.7591171  52.0620003  48.6940498  74.7013321  53.0172691  48.6751938
  75.5824966  51.8807602  49.1472855  47.7670059   3.6966200  27.7112617
  47.3044739   3.0104454  27.2301579  48.2055244   4.2105675  27.0331841
  73.7562256  53.3655968  12.8862963  72.9209290  53.5950623  12.4790468
  73.9944534  54.1395264  13.3967009  54.7413750   4.9995441  63.9237251
  54.0597725   5.6652970  63.8319511  55.1588402   5.1981277  64.7618866
  76.9962158  69.5659409  84.7292557  77.7675781  69.6416016  84.1675491
  76.2663269  69.8345184  84.1712646  72.4466019  31.5105247  74.6809387
  72.6187820  30.6658916  75.0970840  72.5887527  32.1533051  75.3758163
  13.7817593  52.9450150  53.3686562  12.9554043  53.3578110  53.1177216
  13.5356979  52.0593452  53.6356354  33.4363441  43.6770248  19.1555176
  33.9007835  43.5636253  19.9847755  33.9378471  44.3461456  18.6896801
  35.9755020  64.2771225  60.4449654  36.2182884  63.5374527  59.8880272
  36.7806702  64.4993668  60.9124489  72.8271790  19.1263180  76.4343414
  71.8982391  18.9871826  76.6185913  72.9787064  20.0467281  76.6490784
  58.1121712  15.6128855  44.2433090  57.8993912  14.7564402  44.6140633
  58.7690010  15.4269190  43.5723228  62.9915657  29.2631435  50.9410515
  62.6187477  28.8455639  50.1646042  63.7214470  29.7838421  50.6058235
  74.5166550  71.3809586  41.1238976  75.0256500  70.9959793  40.4104881
  73.6196213  71.4074936  40.7909317   6.5776339  54.7895012   2.3275445
   6.3792496  54.7309494   1.3929604   6.8726525  53.9104843   2.5652988
  51.6424179  50.3135643  49.8908615  52.3424072  49.9990120  49.3187561
  51.2429047  49.5171547  50.2406502  72.6580505  31.7295990  60.2901917
  72.9944458  31.4509678  59.4384689  72.2830963  32.5952568  60.1280823
   6.0513458  11.9072695  71.7213058   5.8361235  12.8216839  71.9050369
   5.9408669  11.8207970  70.7744446  67.6709290   0.8459312  62.5006866
  67.2300568   0.0203654  62.7014465  68.3012543   0.9599928  63.2119598
  84.7148438   9.1380224   4.0785570  84.7796936   9.6579103   3.2774684
  85.0289688   8.2696438   3.8266177  85.8500290  21.0728817  48.0144348
  86.5867462  21.4080620  48.5254440  85.1274490  21.6667442  48.2179985
  41.9024849  28.5548286  75.1893997  40.9629288  28.6056900  75.0136719
  41.9914436  28.8363571  76.0999222  73.8813324  12.6500282  70.5859146
  74.3692856  12.8864031  71.3747482  74.4548340  12.0387220  70.1237106
  67.6305847   0.1295736  46.7375336  66.9555588   0.1616934  46.0596390
  68.2227478   0.8495285  46.5201874  19.9017582  46.7355919   9.7661476
  19.0172501  46.4825134   9.5018930  20.1597061  47.4034042   9.1307583
  64.6281509  69.4547501  77.3435364  65.0740738  70.1664963  76.8843918
  65.3329544  68.8680420  77.6178665  35.5171814  48.9298363  39.0948982
  34.8083954  49.5727196  39.0713768  35.5570793  48.5845833  38.2030258
  66.5195694  65.5686188  13.0718441  65.5808411  65.4004059  12.9898653
  66.9356308  64.7952271  12.6910801  65.2405701   7.4869261  76.5942001
  64.8927536   8.2327433  76.1053085  64.8473358   7.5658584  77.4633179
  23.4844818  45.3423691  52.0489998  22.9025860  46.0996971  51.9851189
  23.3669167  45.0248337  52.9443130  42.5651855   1.3578590  14.1907129
  43.0494308   2.1232972  14.5002947  42.7601318   1.3136151  13.2546196
  23.3831310  23.0590820  74.5942841  23.9219894  22.2679749  74.5907059
  23.9659462  23.7443848  74.9212646  47.2635536  10.2556238   4.2307897
  47.4218597   9.3214474   4.3667459  48.1224785  10.6140451   4.0071530
  81.2790680  36.6471558  40.7521782  81.1508255  36.2055054  41.5916595
  82.1727371  36.9874153  40.7946129  59.0382156  59.4987602  84.4697952
  58.7713661  58.7107620  84.9431686  59.8356781  59.7865791  84.9141464
  13.0137329  22.7031460  70.7123642  13.8483372  22.3135471  70.9729004
  12.9988308  22.6219368  69.7587280  38.8675003  65.9630051  67.3073502
  39.0068970  65.3736801  66.5660782  37.9172707  65.9848862  67.4205475
   4.3140502  49.2477188  33.3852959   4.5827656  49.1529503  32.4714890
   4.6106238  50.1235809  33.6325569  59.8388176  36.3105278  34.3125038
  60.6269684  36.8287201  34.4753685  59.3053970  36.8599243  33.7381668
  41.2875175  57.6350784  18.6686420  41.1526756  58.3396034  18.0348492
  41.5862732  58.0802193  19.4616261  13.3826160  50.1238403  59.1199951
  12.8644867  49.5088310  58.6008263  12.9632664  50.9720421  58.9753151
  58.6045876   8.0952339  33.4024048  59.1672859   8.5303812  32.7618980
  58.4809723   7.2129593  33.0523453  41.2270203  40.3659019  46.0744743
  40.6886635  39.8871536  46.7047157  40.9847107  39.9983521  45.2245178
  14.5968990  37.1862640  13.0385971  14.1034765  37.9440002  13.3525991
  13.9915705  36.4507103  13.1322641  30.2792225  67.3147278   4.4118900
  29.6160831  66.7764969   4.8440733  30.3437405  68.0988998   4.9570045
  58.3164330   1.1508838  61.6292152  57.7731552   1.7442654  61.1105881
  59.0431862   1.6950059  61.9325180  16.3331738  41.3381767  80.4837418
  16.6244946  40.4290657  80.4138794  16.3546562  41.6663170  79.5848007
   1.6120867  62.5987587  51.5668449   0.8409237  62.0459213  51.4407120
   1.5304458  63.2796936  50.8990898  63.3012428  14.1791430  36.9785194
  62.7365952  14.1562166  37.7510986  62.7049065  14.3570328  36.2512169
  15.2379723  58.6930161  59.7041397  15.1791773  58.7674141  58.7516479
  16.1613541  58.8516006  59.9002228  25.6380959  12.4935665  69.5261993
  24.9644985  12.3948259  68.8533325  26.0157089  13.3576899  69.3620911
  60.6041336  22.5920773  12.2273693  61.2694283  22.0802975  11.7672691
  60.0039406  21.9379768  12.5853539  10.3365984  18.9085541  12.8405657
  10.0407591  18.0018425  12.7594156   9.5591383  19.4323769  12.6471872
  75.2876434  27.6704292   6.7679133  75.6579819  26.8468647   6.4503832
  75.5279160  27.6997910   7.6940012  77.6926041  29.5604839  25.5179482
  77.9805527  30.2670307  26.0959702  77.9555130  28.7588730  25.9702015
  82.0584106  18.5882092  39.8279228  82.0316315  19.4404888  39.3930283
  82.1846466  17.9602280  39.1166306  45.3403625  31.9776382  42.5508385
  45.9350548  32.4365730  41.9575844  44.5040894  32.4324799  42.4508438
  32.3649521  54.5830803  70.0531998  33.2954102  54.6908836  70.2503204
  31.9386673  55.3122673  70.5035400   4.6449738  34.0625153   2.6389382
   4.6367192  33.4708595   1.8865371   4.4605474  33.4979668   3.3896053
   2.5504153  24.1091328   8.9273872   1.8865089  23.5730782   9.3610992
   2.6953127  24.8417759   9.5261126   1.5504568  67.5180511  14.1045694
   1.6191635  66.9390564  14.8636932   1.3011417  66.9395370  13.3838797
  75.8920212  45.3753624  60.8301811  76.4197464  44.6700935  61.2048035
  76.3642426  45.6332550  60.0385170  54.4387894  40.9736595  68.8937759
  53.6606140  41.3013458  69.3446579  54.8442993  41.7548065  68.5174637
  42.9547348  51.5459175   6.2363105  43.8846741  51.7725601   6.2451663
  42.5281525  52.2665634   6.6999106  83.4760818  19.6028023  75.4855042
  83.6799545  19.0795555  76.2606735  82.6915817  19.1938725  75.1200485
  25.1849689  56.7463455  35.0224457  24.3658333  56.5239067  34.5799828
  25.6457977  55.9116554  35.1070709  60.2820320  45.6340332  39.8216667
  61.1010590  45.6490631  39.3264885  59.6622620  46.1160812  39.2741814
  51.2779007  35.0154572  56.4644890  52.0489464  35.3760071  56.0266266
  51.5797310  34.1872597  56.8376122  45.7998619  25.4190044  79.9751587
  44.9086418  25.3612556  79.6307449  45.9161568  24.6112061  80.4753342
  56.0080223  66.9180069  81.6935501  56.3002548  67.3651276  80.8992462
  56.6110725  66.1808243  81.7890778  71.8743515  39.6670761  53.0745583
  72.4759750  39.0920525  52.6016617  71.1568222  39.0936012  53.3438339
  49.7325363  24.6886730  85.9371567  49.5378189  24.1116085  86.6756134
  50.6862488  24.6643925  85.8591995   2.1788125   7.3965878  44.0450325
   1.6445847   8.0612335  43.6102028   2.3528209   6.7463074  43.3645287
  86.1180954  62.0971451  35.1850700  86.4909363  62.9744759  35.2717171
  85.2054367  62.1969376  35.4558792  79.1356888  61.9013405  62.0956917
  78.6255341  61.1581573  62.4176521  79.9586563  61.5151024  61.7960587
  80.6521912  45.4546432  21.7325687  81.0357666  45.3221321  22.5994854
  79.7529602  45.1378059  21.8175526  75.5697479  55.3825874  19.4782276
  75.3957596  56.2329941  19.0747814  75.8590775  54.8283386  18.7534313
  76.8867416  38.3312111  56.0983276  77.4809418  38.8769112  56.6134720
  76.1763611  38.9216042  55.8472786  77.3225555   9.6497517  57.4416313
  76.7194595   9.2285690  56.8291702  77.8104172  10.2749720  56.9056053
  67.7722931  19.9703674  68.4180908  68.0755386  20.3642979  69.2360687
  68.1778488  20.5006294  67.7321014  53.1164551  16.3773937  81.0303955
  53.1247749  16.6350060  80.1085510  52.3127403  15.8669901  81.1292038
  21.8693409  39.5021629  45.3331451  21.1676254  38.8523598  45.3729515
  22.5582275  39.1454086  45.8938522  59.1145134  24.0631428  71.6698303
  58.4349365  23.3890514  71.6671600  59.4721413  24.0462284  70.7821121
  66.7405472  13.5501738  57.2487602  67.4863892  13.1741085  56.7812958
  67.1275253  13.9774361  58.0129089  47.0292740  23.1231480  66.7713470
  46.7308502  22.9791164  67.6693649  46.2257690  23.1375217  66.2513428
  28.7408161  30.2584782  64.2805023  28.7417355  29.9083443  63.3896370
  28.7549324  29.4836750  64.8423843  70.1512070  61.4141426  10.3228149
  70.4487457  60.5923691   9.9324417  70.7696075  61.5788956  11.0346193
  50.6696167  40.1593246  23.6351433  49.9603729  39.5722427  23.8969402
  50.4778633  40.3744507  22.7223568   4.4987960  23.4527740  35.6280403
   4.9492617  24.2025127  36.0168915   4.4110537  23.6798325  34.7023087
  72.6604843  55.6524925  68.8908005  72.6428757  54.6970520  68.8355408
  72.4199982  55.9476662  68.0125809  13.2258368  67.5331345  72.4555206
  12.2904034  67.4900436  72.2571793  13.2679033  67.5388412  73.4117737
  55.5181618  43.6497231  27.8461914  56.3847237  43.6497879  28.2527676
  55.6918602  43.5332642  26.9121151  16.9349289  52.0987778  36.9032974
  16.0996590  51.9637413  37.3508720  16.9936714  51.3731804  36.2817726
  39.9266205  63.1639061  23.4968567  39.7744942  64.0709152  23.2314930
  39.0899773  62.8781548  23.8637447  38.9805145  63.7094650  69.5618820
  39.6359863  63.8977318  68.8902054  38.4850388  62.9689255  69.2121124
  83.7091904   3.7975087  16.7431126  84.4678955   3.8306596  17.3257751
  83.6110229   4.6954365  16.4263763  72.3470764   6.5402918  21.5524158
  72.2282715   5.7924337  22.1379299  73.1883774   6.3788381  21.1253471
  37.6722641  27.6351643   4.9105768  38.0743561  28.5007992   4.8382788
  36.7326164  27.8108959   4.9597511  73.4903412   6.2228632  28.3790264
  74.0102997   6.9900718  28.1397228  73.7495499   5.5515084  27.7478943
  41.6307144  11.3727684   2.5457597  41.4401741  11.8889771   1.7625270
  42.0000687  12.0032005   3.1641173  16.0384960  23.7226295  52.0580025
  15.8648520  23.3824577  51.1802979  15.3203897  23.3838406  52.5925827
  70.6286011  49.5030746  75.5167694  71.0806122  48.7073669  75.2361145
  71.2899551  50.1915283  75.4468918  57.1676712   2.5142179  68.7116241
  57.2360954   2.0411680  67.8823013  56.6853485   1.9204390  69.2869720
  77.0968246  69.4972534  35.1075783  77.6898499  68.7478485  35.0533638
  76.3060532  69.2104568  34.6507874  60.5202141  43.2822037  79.0833130
  60.1879234  44.1108131  78.7380371  60.3307304  43.3201828  80.0208054
  16.2881413  35.1316833  25.3766289  17.1171799  35.5535965  25.6022739
  16.0692787  34.6066322  26.1464672  39.6411171  12.4207335  14.1809177
  39.0668907  12.3726587  14.9452362  39.7567139  11.5098257  13.9105148
   9.2483320  54.2285118  59.1428032   9.1935854  55.1155739  59.4982758
  10.1492310  54.1515541  58.8286514  45.1917953  19.0554295  45.0987091
  46.0875435  18.7596283  44.9363174  45.2007332  19.3592339  46.0063744
   4.8490396  16.5157299  81.9325714   4.1656671  16.6909695  82.5795059
   4.7375550  17.2018967  81.2745590  24.5558205   8.3565006  64.8197327
  23.7425594   8.7238026  64.4734344  24.2952614   7.5210943  65.2075958
  76.3510056  49.9684525  64.4409943  76.4680481  50.9125862  64.5465622
  76.8871918  49.7442017  63.6804352  71.5220718  16.2161751  85.0730286
  70.5735245  16.1168633  84.9916611  71.7627716  15.6347408  85.7943039
  74.9383926  30.5136452   5.7515826  75.0944138  30.2556152   4.8431177
  74.4844055  29.7650738   6.1385884  77.9510803  34.7249146  33.0617104
  77.7332306  35.6468773  33.1986809  77.1855392  34.2477875  33.3819122
   8.9770994  59.6336975  70.5482025   8.8774662  58.7037277  70.7518234
   8.7316961  60.0835381  71.3566895  29.6053047   8.4827929  72.1083984
  29.3493557   7.5716629  71.9649963  28.9504757   8.9933195  71.6321716
  58.1676140  66.7220612  68.8194504  58.9156761  66.1661148  69.0375137
  58.0599670  67.2891159  69.5830536  65.6425018  21.9326248  34.2274666
  66.3394852  21.4639931  34.6866264  66.0584412  22.7372818  33.9180336
  38.0288010  65.0489426  62.0153732  37.6971092  65.0109329  62.9124641
  38.5383301  65.8585892  61.9825134  75.3189087  11.8562145  86.6204681
  75.3478622  12.6754103  86.1261902  74.5392380  11.9355173  87.1700592
  10.8948364  38.2635918   6.8927970  10.9390831  37.5607567   6.2444925
  11.3508110  38.9978676   6.4815102  21.5552940  43.3711853  29.8512192
  21.6233311  43.1735764  30.7853260  22.1734142  42.7712250  29.4338417
  78.1952591   2.9767168  49.0668907  77.3309021   3.2143748  48.7312775
  78.6407471   3.8140922  49.1956406   9.6014023  17.8358021  19.6130047
  10.1133137  17.4859486  18.8837719   8.8489847  18.2567921  19.1972313
  23.1199627  57.8646278  31.9719944  23.6456776  58.5925713  32.3035927
  23.6372643  57.5041695  31.2517853  72.7499390  52.1925201  51.2543030
  72.9758453  52.0324821  50.3380127  72.8872833  53.1321907  51.3742485
   5.8627510  27.0561962   6.3724570   6.5180492  26.8533249   5.7048793
   5.2292843  26.3412018   6.3113441  85.2842865  39.5767479  40.8115044
  85.4617081  40.0543938  40.0011940  85.4710617  40.2073059  41.5070190
  48.6032448  41.2542534   9.1399555  48.7630730  40.3122330   9.0826406
  49.3854103  41.6043854   9.5664024  22.8032837  14.5943518  31.9666004
  23.1371536  13.8921442  31.4083290  23.1201134  15.3984995  31.5552654
  67.1272202  59.2528877  70.3853531  67.7334976  59.4684601  69.6767044
  67.4143219  59.7957115  71.1196213  68.4712677  67.6332474  20.8899326
  68.5523911  68.1912308  21.6634293  69.1888885  67.0050583  20.9714355
  22.9264221  63.6489525  83.2643509  22.7837353  62.9166222  83.8639908
  22.4052067  63.4308929  82.4916840  11.3375778  28.4568672  83.7194824
  11.7145777  28.6294441  84.5822220  12.0407763  28.0273647  83.2323761
  64.2821350  40.8237038  75.9641190  64.7895660  40.0545998  75.7048264
  63.3716164  40.5294914  75.9391098  69.4725571  40.3215752  59.4051361
  70.0707016  40.1483765  58.6781883  68.9851227  41.0995064  59.1340942
  45.2514000  44.6497612  82.7993774  44.9959068  43.8922043  83.3257446
  45.8260117  45.1569977  83.3727646  22.1331539  42.6310883  20.4114170
  21.7363472  42.8656883  19.5725250  23.0089169  42.3192940  20.1832638
   9.6202641  14.5480051   8.6248322   9.5352468  14.0084152   9.4108648
   9.4495316  13.9453754   7.9010091  48.5500031   3.8254695  35.1783142
  49.3818588   3.6253753  35.6075058  48.2740326   2.9944844  34.7916145
  74.2879257  38.6213684  63.3808479  75.2073593  38.3970108  63.5241585
  74.2330627  39.5533485  63.5921097  53.7148781  61.6462517  42.7956123
  53.1411667  62.2276497  42.2965508  53.2218513  60.8291550  42.8698654
  73.4533997  27.7055759  79.5927811  74.0483093  27.0080338  79.8680191
  73.7960587  28.4931870  80.0152588   4.8071141  27.0838509  50.4678345
   4.9653773  26.4994411  51.2092171   5.6709585  27.4341068  50.2502899
  14.8472481  56.9200211  24.7852974  15.7799883  56.7969589  24.6089954
  14.7782469  57.8252144  25.0887680  77.1897202  49.3063354   3.7365067
  77.1075058  50.2565231   3.8178570  77.1696396  49.1440659   2.7933755
  71.6611328  67.7044449  62.9225388  71.6006775  66.9033356  63.4429207
  72.1927338  68.2962875  63.4548492  75.0182800  39.5314217  29.0198059
  75.7447433  39.9942131  29.4373131  75.4293976  38.7868919  28.5806217
  41.2933731  62.2924500  51.7764664  41.4971695  62.8467712  52.5297470
  40.6156502  61.6959419  52.0944328  66.6589584  67.7293320  52.3141098
  66.2938843  68.5730896  52.0475922  66.1894150  67.5085373  53.1184845
  61.0424347   4.9739780  71.1896896  61.8913193   4.7860994  71.5901031
  60.9710732   4.3438158  70.4727325  53.8503227   2.9029615  18.6524982
  54.3239365   2.8570285  19.4830475  53.1638947   3.5526891  18.8038292
  79.8718262  33.8614922  29.3542824  80.0284195  33.0994225  28.7966404
  79.5364761  33.4947739  30.1723843  76.8029480   8.0834970  18.1243076
  77.6038055   8.5809069  17.9586449  77.0929642   7.3238487  18.6293392
  11.0727587  62.8560982  73.9121704  10.3151999  62.5482559  74.4097290
  11.7789192  62.9045639  74.5565491  84.1636581  57.6087685  83.9426804
  84.4590836  56.9278793  83.3382416  84.5126114  58.4215851  83.5769043
  21.8873577  62.7466583  88.4932785  22.3376026  63.2570572  89.1663361
  21.5599442  63.4006386  87.8757477  55.1510696  67.4569626  77.2654877
  54.4263763  67.9080124  77.6986237  55.9378510  67.8515244  77.6416855
  60.3039856  42.5238342  22.8322945  61.1601677  42.4770355  23.2577324
  59.9420052  41.6425743  22.9249496  15.0725737  41.2092018  36.6165085
  15.3531151  42.0238609  37.0334740  14.1234417  41.2986145  36.5305748
  71.7864609  61.7006264  50.3207474  71.1989365  60.9451294  50.3039970
  72.1172028  61.7667389  49.4249420  34.5133324  70.9653015   4.3816872
  33.7772827  71.4049683   3.9560716  34.1568108  70.6514893   5.2127352
  24.7646885  41.8820152  58.8994446  24.4413471  42.7815247  58.8488083
  25.4520035  41.9116707  59.5649872  77.8120041  16.8695946  54.4228096
  77.2431488  16.9543343  53.6576576  77.2278824  16.9953327  55.1706238
  65.4205780  36.0917091  52.4968185  64.7880249  36.8095818  52.5246811
  64.8896866  35.3008804  52.5915756  30.5556889   3.4263039  14.6522255
  30.4094639   4.3053732  15.0016346  29.8644562   3.3095868  14.0004549
  15.0232792  43.7072639  79.9095688  15.6430025  44.0531197  79.2672577
  15.5723648  43.4006386  80.6311722  39.0601387  39.3827171  47.6996994
  38.8704414  38.4450417  47.6678963  38.6053123  39.7450180  46.9393692
  45.3122482  69.0450363  72.3410645  44.8311386  68.4072189  72.8682785
  45.3580742  69.8259277  72.8927383  36.8729019  41.4201851  66.8579102
  36.9011345  41.8569298  66.0066299  36.2742271  41.9533730  67.3809128
   0.4522622  29.7793159   0.5225495   1.1345683  30.4385929   0.3958869
   0.5862340  29.1557846  -0.1912374  55.1771393  55.4179611  13.5174198
  54.5301666  55.3148689  14.2152939  54.8183174  54.9202576  12.7827320
  64.8480225  38.1119156  35.1048660  64.0864410  37.8088036  34.6105576
  65.3715744  38.5951996  34.4656754  37.6521034  64.4710388  78.5359573
  37.3422241  65.3012161  78.1739960  38.3080902  64.7230988  79.1858597
  75.8934326  67.9259109  18.0187149  76.6198273  68.4394150  18.3721333
  75.6636810  68.3672562  17.2009945  60.3992958  33.5958176  67.4208450
  60.6415024  33.4063644  68.3273087  59.5653229  33.1428719  67.2960968
  64.0546875  16.0557079  32.4206200  63.4222145  16.7714329  32.3578072
  64.0905991  15.8490896  33.3545647   6.1817102  42.9066620  42.3994026
   5.9488358  43.4372902  41.6375427   5.6739826  43.2835464  43.1180153
  36.9368935  52.5018845   8.1572227  36.4312363  53.2214088   7.7792959
  37.8498802  52.7691307   8.0510979  71.8099442  56.7043304  36.1404152
  72.5168076  56.0900841  35.9422417  72.0035629  57.4733353  35.6043396
  32.2903976  38.3918571  57.6704178  31.5116405  38.1425171  57.1728210
  31.9644089  38.5682716  58.5529366  37.8527946  40.8506927  32.7146034
  36.9792786  40.9793472  33.0842667  38.3665276  41.5839691  33.0531616
  68.8727417  24.1549168  26.5897598  69.3026581  23.9154835  25.7687378
  68.4203186  24.9751492  26.3928890  74.2053299  53.0930710  35.4711494
  74.5547256  53.1354675  36.3612900  73.4132233  52.5614586  35.5498276
  35.2772598  70.9689713  36.7532425  34.8737793  71.8086548  36.9731598
  35.6883469  71.1165466  35.9015045  49.5886269  71.4149551  64.7687531
  49.8522758  70.9272919  65.5490875  50.1401863  71.0642624  64.0694427
  59.9875946  38.7789536  43.1988297  59.6001091  38.5842514  42.3454933
  59.8613777  39.7212830  43.3098030  24.7526722  50.6305809  81.7367249
  24.7525311  51.0187607  82.6116867  24.5123196  49.7153091  81.8807220
   1.5607802  64.4848175  15.3470764   1.8976673  63.7664680  15.8825312
   2.2180691  64.6007919  14.6609621  83.4805069  67.1443787  79.0044785
  84.3486786  67.1092834  79.4060745  83.5062866  66.4762802  78.3194962
   5.4490328  33.9765587  68.0123444   5.9864545  34.7605209  68.1255341
   6.0580983  33.3135300  67.6872864  77.5852814   5.6997352  44.6868858
  77.7442474   5.0950041  43.9621353  78.4002686   6.1950417  44.7686958
  53.5383949  54.6621017  27.7973385  54.3834534  54.9027786  28.1770515
  53.7551384  54.3114510  26.9334526  81.9983826  65.2636566  87.3196716
  82.8510132  65.6935425  87.3863678  81.5209351  65.5569000  88.0957489
  39.8378792  25.9694691  16.8495617  39.3236542  26.5945110  17.3605690
  39.5151215  25.1115952  17.1254444  71.8796463  21.0176353  59.4192352
  71.9332962  20.6702023  58.5289307  71.2766876  21.7579632  59.3515015
  71.8955536  34.0144272  17.1167717  71.6698380  34.4353447  17.9462986
  72.1021194  34.7404709  16.5281925  51.1641350   7.4668965  13.9627895
  51.3455925   8.3056221  13.5387096  51.1537743   6.8331294  13.2455282
  81.1398621  24.7132416  87.3178329  82.0154877  24.8382969  87.6837082
  81.1256409  23.7979431  87.0380859  79.5087814  44.3097839  26.9072113
  78.8260803  44.7513046  27.4123936  79.0670242  43.5569496  26.5143719
  38.2534752   9.9676819  74.8543930  38.3700905  10.3730679  75.7136383
  37.9326057  10.6764164  74.2967453  35.5302048  40.7613907  34.1614838
  35.0916862  41.4160614  34.7049370  34.8956947  40.0486755  34.0862045
  49.3494835  17.3812580  71.4922714  48.5132484  16.9468937  71.3241348
  49.1078453  18.2507610  71.8113403  22.6959457  33.6795921  88.5280609
  22.3238220  33.1368027  89.2231445  22.3696671  34.5605698  88.7115021
  14.3483629   9.2728376  24.8011551  14.9571419   8.6756744  25.2359161
  13.4876652   8.8752699  24.9329529   3.2765057  49.9504509   8.2106276
   3.8508713  50.7144127   8.2625628   2.3970251  50.3021965   8.3485432
  52.6156807   2.4413774  52.4714279  51.9364395   1.8807470  52.0965157
  52.2285194   3.3167768  52.4753227  48.5827560  23.0911236  60.4710426
  47.8553658  23.7118244  60.5142365  49.2313118  23.4392147  61.0829582
  34.1691589  71.1621017  12.4057417  34.3223534  71.3863373  11.4878750
  33.9359932  71.9931030  12.8196211  56.7413788  24.5622730   9.5347605
  56.2762413  23.8263378   9.9326019  56.7802429  24.3456402   8.6032076
  56.8012009  49.8169708  28.4912548  57.4910049  50.1954765  27.9461536
  56.5168228  49.0389061  28.0116978  82.7924652   4.8396235  68.2419586
  82.8537445   3.8928895  68.3691254  82.3151779   4.9402628  67.4183655
  40.0957680  46.6346741  29.6167049  39.2561607  47.0926857  29.5777988
  40.7072563  47.2167473  29.1655884  69.0406265  56.8028831  66.7244339
  69.1922684  57.6935425  66.4082718  69.8369827  56.3265343  66.4896317
  12.5851622   6.8844790  17.2242870  13.0165110   6.1742039  16.7492294
  11.7749805   6.4951601  17.5533276  27.6172504  27.2563515  22.4632721
  27.5386410  27.0617561  23.3971806  27.1045990  26.5725670  22.0321598
  52.7606964  45.7923508  80.9268188  53.6737862  45.5872269  81.1278763
  52.7065086  45.7338409  79.9729462  31.0636539  33.9638062  18.1559696
  31.4046917  34.3162842  18.9779701  31.1838493  33.0173187  18.2330513
  17.1212635   2.3620260  82.4099579  16.3322620   2.0660315  81.9559784
  16.8580303   3.1740685  82.8430023  86.0216599  16.8014030  36.6272163
  86.7648163  17.0649452  36.0845490  85.3819885  17.5046158  36.5151901
  14.3807001  52.3783417  66.5706024  14.4541330  52.2963181  65.6197510
  15.2131882  52.0444260  66.9048080  24.0959206  61.0111465   6.0600362
  24.6911201  61.4435463   6.6724100  23.2924538  60.8755684   6.5623212
  17.8088474  68.8116531  16.1514835  18.4223137  68.8264160  15.4168587
  18.1799488  69.4249878  16.7857876  60.0395088  13.3289871  65.3923950
  60.0890236  12.4355154  65.0525589  59.1413841  13.6052208  65.2099075
  61.5092850  55.8127327  24.3539143  61.5312996  55.8415604  25.3104267
  60.6387520  55.4743042  24.1444645  15.7430735  58.9896202   2.5845926
  16.5822563  58.8706055   3.0293832  15.9757481  59.3339195   1.7222968
  62.4262009   8.2681417  37.9432220  61.6282272   8.7692595  38.1116028
  62.8818169   8.7645922  37.2633820  52.0862541  43.6213760  53.6767311
  52.3943596  43.6467934  52.7708321  52.6275291  44.2663460  54.1319962
  12.4031210  31.9482956  20.0881767  13.2978401  31.8167019  19.7744999
  12.3656511  32.8754311  20.3232288  61.0979614  68.4301834   7.1077495
  61.4334450  67.7413330   6.5340157  61.5444984  69.2245255   6.8147321
  46.2306938  58.3709335  28.1677094  45.8237572  59.1379433  27.7648029
  46.7776222  57.9987946  27.4758911  70.9995499  58.0769691  15.3660116
  71.0994110  58.9694443  15.6972933  71.5594940  57.5468941  15.9332075
  27.6036015  26.6255264   0.5634825  27.2805653  27.4046822   1.0160272
  28.4484119  26.4426994   0.9746990  21.6282749  30.9796047  69.2749100
  22.0200481  30.2619915  68.7771378  21.2894211  31.5767307  68.6079407
  35.7495575  11.4554052  59.7457428  34.8385735  11.3697996  60.0268211
  36.2562332  11.4025049  60.5561218  29.1721649  66.9216232  66.8858795
  29.7661247  67.6692047  66.9534302  29.6578712  66.2753601  66.3733673
  76.5888214  39.9970512  25.2373734  75.7005157  40.1016159  24.8964844
  76.9212723  39.2117081  24.8026943  13.3058424  32.4180717   6.8772502
  13.4550896  32.3729286   7.8216648  12.9953299  31.5437927   6.6417747
  19.8705654  65.3113022  31.5344753  20.5584049  64.9991837  30.9465218
  19.5174217  64.5160904  31.9334183  82.9823837  16.3754845  86.7168961
  83.0463867  16.1932545  87.6544037  83.7976913  16.0333843  86.3501892
  76.2786331  61.5953636  55.2231140  75.8578796  61.9585152  56.0024185
  76.6653137  60.7720909  55.5213394  22.8888931  35.1683311  79.2857590
  23.4965096  34.7606087  79.9028473  22.0767612  35.2711563  79.7818451
  78.7424011  62.2357635  75.3902588  78.3818436  62.6732254  74.6189880
  79.3585052  62.8689690  75.7586441  29.3860970  56.9586525  66.0365982
  30.3346634  57.0180130  65.9228897  29.0303192  57.5965347  65.4179230
  31.9238548   4.7072692   9.9085732  31.8798866   5.6279297  10.1668024
  32.8588524   4.5023031   9.9107141  81.7192459  40.8975334   6.4447594
  82.6167145  41.0116158   6.7574234  81.3947220  41.7890358   6.3177309
  85.7990112  18.8317089  81.3413544  85.2416840  18.0936909  81.0944824
  85.5798645  19.5184898  80.7116470  55.4672127  11.6340666  74.4836655
  55.0757027  10.8591213  74.8866730  56.0268555  12.0026293  75.1671906
  29.2047749  36.7234344  35.4362144  29.6252747  37.1479683  36.1839981
  28.3844414  37.2025261  35.3189316  27.8878288  58.7374115  29.4062729
  28.1909847  58.2130051  30.1474400  27.5140171  59.5229149  29.8056240
  47.4949188  51.9069939  67.5021820  48.3060989  51.4699669  67.7614594
  46.8513794  51.2010231  67.4413910  63.3330612  24.0580177  43.7477493
  63.4172096  23.7123871  42.8591042  62.8572998  24.8816357  43.6403503
  65.3445206  43.2085342  39.4775505  65.4431000  42.3959122  39.9736977
  64.5589218  43.6172218  39.8409348  24.3199997  47.5361748  62.9353180
  23.5865841  48.0448647  62.5895348  25.0955830  48.0487747  62.7074013
  33.8720932  63.7169189  82.8733139  34.2584534  63.5835190  83.7388535
  33.4538193  62.8811951  82.6663437   9.5677490  35.2762108  12.9073009
   9.6416750  34.3223152  12.9364080  10.3120975  35.5580101  12.3755426
  51.1286812  29.7560959  62.5284195  51.7552681  29.3684063  63.1394196
  50.4710197  30.1678677  63.0889130  53.0973701  30.4231167  17.6882973
  53.8227730  30.7822628  17.1773815  53.4853783  30.2074890  18.5363464
  38.0393219  54.1056023  16.7626629  38.7861023  53.7340584  17.2322483
  37.3381805  54.1360893  17.4135895  28.8137302  11.9053755  83.8211594
  28.9690762  11.0104780  83.5190659  28.3888702  11.8004379  84.6724625
  27.9849968  61.2931747  21.8359985  28.5458546  61.8277397  21.2739353
  27.2761822  61.0038681  21.2614441  12.7856112  28.2729034  69.1316528
  12.4520121  28.9725780  68.5700531  13.7376881  28.3554287  69.0771484
  78.0882645  11.2275028  65.8626709  77.7022095  11.6039085  66.6535645
  79.0238647  11.1704283  66.0566483   8.7098236  54.3211136  38.8248367
   8.4957056  54.3272591  39.7577591   8.3113747  55.1212311  38.4823685
  49.2642593  48.4500465   0.8169861  49.6384735  47.7809563   0.2438253
  50.0229149  48.8679428   1.2244592  43.9409637  17.1891842  60.0351334
  43.2369347  16.5412045  60.0087662  43.9503136  17.4959412  60.9417992
  41.5656013  46.6210861  77.1407089  41.9769325  47.1510010  76.4579010
  41.2676086  47.2573738  77.7907639  84.4437027   6.1278486  37.1790695
  84.7780228   5.7728491  36.3554001  85.1792221   6.0550971  37.7873077
  21.5527401  68.0612259  36.8911476  21.1084423  67.2528152  36.6356087
  21.4287224  68.1134109  37.8388443  66.5471878  68.1147232  71.8275604
  67.1799393  68.3119812  72.5181732  65.8508911  67.6308975  72.2717514
  68.6763458  39.7509956  70.5573730  69.2479324  40.3524017  70.0800629
  69.2308655  39.3929176  71.2505722  73.7843170  65.2828827  43.0395241
  73.0146332  65.4888000  43.5700150  73.6595612  64.3697968  42.7807770
  30.2532635   0.0502272  36.9561234  30.5026321   0.8975599  37.3250046
  30.9699535  -0.5364569  37.1977615  52.5707588   8.8657951   4.8543062
  52.0264664   9.5744848   5.1974339  52.4894447   8.9402103   3.9034736
  70.8111420  15.3646984  77.1043854  71.0792694  16.2833443  77.0837097
  70.1353912  15.3276052  77.7813110  10.0571718  30.3823109  14.6980305
   9.3348465  30.6849270  15.2483950   9.6520109  29.7645454  14.0893908
  15.7080240  43.4164467  62.8340721  15.0637531  44.1180229  62.9286118
  15.4107313  42.7353592  63.4373703  68.4093246  45.3624344  76.5871201
  68.1266937  46.2615891  76.4201889  68.4641953  44.9634895  75.7187500
  70.8478317  61.9362984  53.6576271  70.3109131  62.7169609  53.5215454
  71.1431656  61.6928139  52.7802887  50.8981667  41.3468742  36.0406113
  51.2223892  42.0020752  35.4226952  51.2612991  41.6137047  36.8851051
   7.9651227  54.6055946  31.8172665   8.1107016  54.0427856  31.0568180
   7.0272517  54.7960396  31.7982540  20.2850113  15.4654856  31.9210567
  19.9637451  15.0507441  31.1204262  21.2076569  15.2147999  31.9670410
  41.4024429  60.5795746  85.0795135  41.2645607  59.9683609  84.3558884
  40.6065598  61.1110039  85.0991135  15.5340061   8.6658487  66.0617294
  14.5838041   8.6007004  66.1571503  15.8814211   8.3248472  66.8859024
  14.1378756  10.4688492   7.3911309  15.0013494  10.8307819   7.5902529
  13.9907837   9.8119497   8.0716295  19.8133678  38.2957458  53.7680664
  20.0788651  38.8761673  54.4814110  20.1386585  37.4335899  54.0271149
  50.8838882  48.2350082  51.8647118  51.5981483  48.6854630  52.3154373
  50.2382050  48.0638657  52.5503044  71.6694260   7.5989437  69.9341736
  72.5640030   7.8220520  70.1914215  71.3046951   8.4185944  69.6004410
  76.0904617  39.9323387  34.3083992  76.6467209  39.1656723  34.4463425
  76.7052917  40.6576958  34.1985321  80.4890976  51.6198120  83.0927277
  79.5500717  51.6632233  83.2732162  80.6697388  52.4035797  82.5737762
  40.7041969  58.6943893  76.7080688  41.6238937  58.7461014  76.9682999
  40.4903908  59.5775681  76.4072189  35.8001747  46.2074127  42.9818764
  35.4892921  46.4043236  42.0982399  36.6321564  46.6753807  43.0528984
  42.5203552  41.5666466  40.3058167  43.1002769  41.6349373  39.5473595
  43.0331192  41.0878906  40.9570465  12.4163647  43.2304993  21.8395786
  12.2533245  44.1545677  21.6505165  12.3285141  43.1613998  22.7902317
  51.2332039   9.0837755  64.7596130  50.4964943   9.4493952  64.2699127
  51.9948540   9.5714130  64.4460297  20.0879021  26.3307571  64.0489273
  20.6689625  25.5854988  64.2012024  19.9816399  26.3612595  63.0981331
  24.5783463  71.1270447  30.8424549  24.5778027  71.6257401  31.6594810
  25.0614872  71.6775131  30.2261791  34.4699249   1.6109844  84.8897934
  34.7275124   1.8939378  85.7671890  33.5147667   1.6734613  84.8887634
  42.4156380  15.7865372  61.5767326  42.5965004  14.8488588  61.5113106
  43.0269737  16.1025314  62.2420502  52.4563408  14.4283876  14.0092487
  53.0266418  13.9035120  13.4475594  52.0175056  15.0309534  13.4087753
  61.1897240   4.7980595  67.8792114  60.6881905   4.2724695  68.5024719
  60.5382309   5.1127930  67.2525330   8.5580559  65.2487869  77.2390900
   8.0700912  66.0395126  77.0091476   7.9349823  64.7189560  77.7363739
  85.7835846  46.3672447  49.7539062  85.8974304  46.2254066  48.8141441
  85.9818039  47.2949142  49.8818626  20.5902309  64.8435745  25.8371887
  20.8281498  65.2949524  25.0273209  21.1563549  64.0719833  25.8565407
  24.8916168  60.5662193  24.0308781  25.2593861  61.3715096  23.6668873
  23.9547634  60.7455177  24.1108265  47.8607712  17.5973129   5.7303414
  48.5954208  17.8364029   6.2954607  48.1832733  16.8548164   5.2195363
  45.8779907  64.6776962  37.0952950  45.4209404  64.6147156  36.2566223
  46.5663528  65.3255844  36.9448738  40.9232178   8.8846111   0.9067480
  40.9614372   8.8875980  -0.0496840  40.2136726   9.4906664   1.1199907
  84.8326492  28.6296387  24.4468040  84.7694244  28.3850136  25.3700562
  85.7713242  28.6183300  24.2597694  27.8147945  32.9375763  79.1726761
  28.2916298  33.3063850  78.4291458  27.9583225  33.5627518  79.8831635
  27.5857506  16.5656929   0.1860722  27.3434467  16.9143963   1.0439340
  26.7958012  16.1232014  -0.1244313  64.9575119  57.4627838  36.6637726
  64.0224838  57.5460892  36.8508949  65.3376312  58.2855453  36.9716759
  13.5724049  27.0919304  15.0624752  13.3034134  27.6203003  15.8139410
  14.4272842  26.7401237  15.3107605  19.9307442  48.3252296  89.0338135
  20.6361732  48.8382225  88.6395569  19.6408596  47.7394676  88.3344650
  24.6841125  44.8373909  61.7929306  24.6109295  45.6670341  62.2646980
  24.2375393  44.9947128  60.9610329  18.8380127  16.7924328  69.5274277
  19.0708466  16.5306759  68.6366425  18.4338341  16.0127869  69.9082489
  85.5704727  66.9301529  81.2292175  85.3651733  67.7789612  81.6211548
  84.9120331  66.3351593  81.5879211  17.2056541  43.1001244  50.5333786
  16.6716270  42.7944946  49.8001404  16.9867077  44.0280304  50.6187325
   8.5676355   0.3041326  71.9755402   9.2065830   0.1123822  72.6619873
   8.6769371   1.2389046  71.8009338  65.0999451  56.9871674  85.0635910
  65.3577652  56.0695076  85.1511383  65.3624573  57.3897324  85.8913879
  39.1518517  54.5855293  28.3670902  39.1135063  54.4988403  27.4145966
  38.4542999  54.0139198  28.6878929  47.9412041  49.2499580  49.9451752
  47.3736916  48.5641937  50.2971535  47.8266411  49.9869881  50.5450859
   2.9908421  12.5351543  70.8528519   3.0702863  13.3116941  70.2988586
   3.3175340  11.8184586  70.3089294  12.0461922  41.3685799  83.0252991
  11.3851223  41.4012947  83.7167816  12.6874084  40.7298889  83.3369827
  21.5773869  13.0525246   9.2839432  21.2703171  12.1473951   9.3357267
  20.8001480  13.5555925   9.0409327  27.9564457  39.0234489  28.4786873
  27.5695000  38.1530609  28.3841820  27.7007732  39.4870949  27.6812572
  48.9865646  35.4564743  78.4717636  48.7973328  34.5445366  78.6926575
  48.1360435  35.8274307  78.2367401  71.5460663  11.0371799  38.9605484
  71.6113052  10.3483868  39.6220131  72.4528809  11.2190580  38.7139091
   1.7576839  70.0970764  84.3694611   1.1710973  69.4901047  84.8208313
   2.5686910  69.6027145  84.2507095  71.0311203  57.6572037   4.7112365
  70.3080444  58.2447090   4.9308410  71.3510895  57.3444748   5.5574369
  77.2264862  53.1518860  54.9922142  77.2593994  52.7690964  54.1155014
  76.5493164  53.8258934  54.9340096   7.1369953  52.4853745  53.5532799
   7.6387172  52.3937416  54.3632889   6.2330279  52.6063728  53.8438568
  44.9632797   8.4204826   8.9812460  44.8401871   9.1879921   8.4226685
  45.6359711   7.9054461   8.5357628  67.9920425  40.9780350  35.0566635
  67.6186600  41.2384949  35.8986702  67.2858810  40.5035210  34.6180229
  17.7187366  56.5529137  24.7046394  18.3892498  55.8703995  24.6760349
  18.2119865  57.3732300  24.7085876  27.9888935  14.5220966  80.3137360
  28.8613949  14.8427916  80.0854263  27.8536453  14.8164387  81.2144623
  70.0775223  26.5534954  38.0897636  70.8447647  26.2868156  37.5833549
  70.3012772  27.4220543  38.4240875  45.9062958  48.5590401  46.9220581
  45.1446953  49.1373024  46.8794937  45.7397995  47.9991035  47.6803322
  60.5420227   0.5218882  67.5570984  60.1042709   1.3285946  67.2853775
  60.8504181   0.1298642  66.7401276  66.4854202  50.6946526  54.6717072
  66.7659149  51.1502266  53.8779793  67.1392517  50.0068474  54.7968292
   0.5830712  29.3443623  66.4812775   0.6697544  29.5561733  67.4107208
   1.4112508  29.6265640  66.0930634  81.3871078  28.3605156  64.3766098
  81.1855469  29.1992340  64.7915192  81.2505341  27.7124634  65.0676956
  18.6980286  10.0990696  48.6016312  19.1677990   9.2814198  48.4373283
  17.8123894   9.8231764  48.8377647  49.2343597  29.1428967  11.9907045
  49.8771362  28.7402725  11.4067831  49.3906059  28.7300034  12.8400202
  86.1076660   4.5772119  75.0276108  86.0149155   5.4768844  74.7142181
  86.9075165   4.5879693  75.5533066  55.0215187   7.9739952  87.0075989
  55.8727837   8.3034096  86.7193985  55.1610374   7.0369072  87.1440964
  64.6438675  44.0403671  14.7220125  64.9660263  44.5888939  15.4372492
  63.6988564  43.9900055  14.8657503  54.1198692   1.9704002  75.0184555
  54.0023956   2.7278078  74.4450760  54.5466003   1.3155768  74.4658813
  11.9473104  18.6113091  10.7022133  11.4074049  18.6346512  11.4922695
  11.8576612  17.7154408  10.3772326  75.8667679  34.5638504  62.7704353
  75.5267944  34.4106979  61.8888512  75.0860672  34.6911659  63.3094406
  80.9776306  37.6773643  22.0788994  81.8176880  37.6300888  21.6224995
  80.9070282  36.8404007  22.5379639   2.8614993  39.2433243  77.5723038
   2.9932082  38.3302155  77.8274765   2.4056730  39.6366119  78.3164673
   3.8630199  66.5499954  20.4730415   4.2802100  65.7178879  20.6961575
   3.3749511  66.7918625  21.2601376  59.6502876   0.5428932   1.3342361
  60.2494621   0.0685354   0.7578616  59.6041641   0.0063803   2.1256008
  68.7427979  70.0149765   7.5560174  69.2162933  70.4972000   6.8781614
  67.9814758  70.5613708   7.7511358  79.3031235  68.0055313  43.0248451
  79.6620789  68.1100922  42.1436806  80.0392456  67.6867371  43.5470734
  44.3144417  61.3170471  58.4584351  43.8534698  61.3858376  57.6223717
  44.9541359  62.0288239  58.4385109  71.1198883  19.4490986   3.2720792
  70.9932632  18.6581745   2.7480221  72.0680313  19.5100346   3.3884823
  20.1064568  43.1185951  88.4236221  19.6181545  43.2545433  89.2356033
  19.7383499  42.3158951  88.0542984  56.8998909  61.7808876  85.4304733
  56.4018707  61.2011299  84.8542099  57.0450745  62.5701752  84.9087753
  72.8922424  17.7928276  53.8720551  72.2571640  18.4738121  54.0937881
  72.4308929  17.2276840  53.2523766  14.7796392   4.3617673  56.5530624
  14.1849527   3.7748060  56.0860977  15.6233444   4.2450199  56.1162987
  24.4015388  16.2987766  70.5530548  23.5382614  15.8962669  70.4583435
  24.5184517  16.8065453  69.7500992  52.9999733  47.4021301  86.9402008
  53.3607559  47.0597725  87.7580338  52.2743301  46.8131332  86.7334213
  21.0620956  67.4968719   6.4260712  21.1305656  67.7002106   5.4932284
  21.3607635  68.2921753   6.8671193  57.9977570  37.9029770  30.9450016
  58.9013939  37.6304932  31.1044636  57.8863220  38.6883354  31.4807510
  23.8276424  37.7548141   8.0883188  24.7720623  37.7746239   7.9336839
  23.6040707  36.8240929   8.0862465   4.1845894  51.9119835  51.1987000
   3.8708498  51.8101425  50.3001328   5.0316200  52.3486214  51.1086082
  69.9917297  70.7567444  50.7643433  69.9283752  69.9918213  51.3362808
  70.1706390  70.3932114  49.8971214  32.6453094  28.1259804   1.9087595
  32.8188972  28.0658951   0.9693504  33.0083618  28.9735756   2.1656799
  75.0464096  56.7220612  17.1291561  75.1395721  55.8673859  16.7083492
  75.2303772  57.3530006  16.4332352  69.3462677  69.3185806  61.8081436
  69.8063507  69.6638641  61.0430717  70.0407486  68.9762802  62.3709526
   4.2100344  64.6016617  46.5178032   4.3168802  65.2132111  47.2463837
   4.9963951  64.0565872  46.5453377   1.4816278  50.8876648  29.5098782
   0.5330026  50.7600250  29.5169621   1.6300117  51.5431938  28.8283386
  25.2011757  50.0650749  56.1555481  25.2960415  49.3904839  55.4831161
  24.6542912  50.7357635  55.7464943  72.6741714  17.7814770  18.6798687
  73.6205368  17.9249954  18.6852455  72.4245529  17.7954350  19.6038418
  40.0055847  52.4125290   8.6758738  40.3303452  52.8655434   7.8977094
  40.4592285  52.8345451   9.4054937  62.4882774  70.3128510  83.5202560
  63.0095520  70.5767517  84.2784500  63.0906792  70.3820801  82.7796173
  63.8959198  32.8922119  70.4392853  64.0348892  32.3505898  71.2161789
  64.4378815  33.6671600  70.5875092  46.3010368   8.1309881  31.3544006
  46.9662514   8.5223475  30.7882214  46.7491264   7.9901280  32.1884308
  80.8951874  12.2103539  41.6400146  81.8238525  12.3346062  41.4441185
  80.7266235  11.2920961  41.4287796  38.5515099   7.8860760  46.2687721
  38.6544037   7.0617118  46.7442360  39.3932152   8.0175095  45.8323212
  85.6755295  64.7751541  29.5780315  86.2829132  64.0365372  29.6201077
  84.9428711  64.5148621  30.1363239   3.7678456  57.5323257  70.3892212
   4.6035962  57.5738831  70.8540115   3.9396040  56.9647026  69.6378708
  58.7371712  25.1603050   3.1193690  58.9863586  26.0697823   3.2836440
  57.9272690  25.2216148   2.6128783  56.5147018  22.7361832  48.7863121
  56.9983368  23.1201153  48.0549278  56.1903152  21.9018688  48.4473038
   4.9352069  55.0586128  51.5328560   4.7134161  55.8961639  51.1259842
   4.2782578  54.9445381  52.2196159  15.6729584  45.6492958   4.7282653
  16.4031677  46.0944557   4.2983122  15.3033676  46.3082199   5.3160186
  47.6883469   0.2067272  28.4688606  47.4418449  -0.5974482  28.0119476
  46.8718987   0.7011481  28.5409031  12.2620983  70.3921890   0.6690187
  12.7173862  69.6151352   0.3447728  12.0155354  70.1682968   1.5664109
  19.7462349  35.1222382  21.0265427  19.1163960  35.5323944  20.4338322
  20.4470329  35.7681313  21.1156101   2.4225371   3.4757624  73.6111145
   3.2565017   3.7294357  74.0065689   2.0413146   2.8559036  74.2329483
  61.9208679   8.3609686  17.5784607  61.6676941   8.0327063  16.7156868
  62.4900818   9.1078472  17.3929844  86.3233719  42.4427071  58.4801369
  85.5288162  41.9343567  58.3173904  86.7585373  42.4861107  57.6286812
   8.4568081  54.2217102   8.8769503   8.3639097  55.1137085   9.2115269
   9.3049746  54.2194405   8.4332819   8.9880466  12.2593346  78.4173737
   8.2462864  11.6575661  78.3549423   8.8385477  12.8970118  77.7193451
  71.1726379  61.0807686  29.3030071  72.1132050  61.1380196  29.1348000
  70.9076004  61.9812469  29.4904194  70.5363159  59.8743553  20.5096436
  70.7539368  59.0964317  21.0231686  69.6527100  59.7058601  20.1824093
   3.2148678  23.9775238  64.2428207   3.8877187  23.3638573  64.5376358
   3.0853715  24.5663166  64.9863205  25.7708168  39.4297905  77.4123154
  25.2795563  38.7555771  77.8817139  25.3871441  40.2553368  77.7081223
  11.9592047  21.3660278  12.2800732  11.4131927  20.9873314  12.9690514
  12.1790295  22.2402401  12.6020384  17.8388786  48.2391319  63.5080681
  17.1419716  47.9045792  62.9435997  18.5756226  47.6474342  63.3553085
  12.3775826   3.4421628  55.1315269  11.7587633   3.0710461  55.7604675
  11.9858675   4.2767248  54.8740463  31.3483639  45.4658318  59.5773163
  32.2309036  45.5936050  59.2294235  31.1723099  46.2602272  60.0814667
  23.9356117  39.7237663  21.8456764  23.8648949  40.1676216  21.0005589
  23.0324554  39.6509514  22.1542835  14.7017460  64.1996155   2.3903112
  14.0315781  64.4173737   1.7424780  14.9594946  63.3029823   2.1761792
  81.2049255  63.9276886  73.8984451  81.4437714  63.1141624  73.4541931
  80.9721222  63.6562767  74.7863464  37.8110771  14.8587379  71.5590286
  38.0932198  14.2535076  72.2448273  37.3014450  14.3171139  70.9564056
   1.1021639  54.0618362  48.7234192   0.9643032  54.2464638  49.6524696
   1.8951291  54.5481300  48.4976807  41.9425964  60.3705177   8.8963060
  41.6321678  60.4006538   9.8012686  42.4799042  59.5794983   8.8536224
  15.3045292  28.6511593  11.0749798  15.2294426  27.8385162  11.5751858
  15.5781183  29.3043766  11.7189436  68.4095306  58.3236237   7.0578723
  67.5593643  58.7575836   6.9862051  68.2222977  57.4004440   6.8878393
  53.5963058  69.5363922  54.1698380  53.0138664  69.6342545  53.4165688
  54.3270302  69.0127182  53.8411484  49.7415695  39.5238304  79.3008881
  50.6632271  39.5291290  79.5592575  49.3024635  39.0254974  79.9901505
  16.0156021  58.6694984  21.9552479  16.2215729  59.1514206  21.1542721
  15.0590315  58.6549339  21.9867287  57.6281090  70.1125488  70.6267471
  58.3111229  70.6677933  70.2506866  58.0585709  69.2705612  70.7750473
   7.9290199  33.8732719   2.2444181   7.7822332  34.2855644   1.3931247
   8.8759775  33.9234467   2.3747449  80.9625168   6.0560489  75.2698593
  81.5503082   6.8088279  75.3335266  80.0928879   6.4400063  75.1577911
  20.9672928  35.6181602  71.0795898  21.5042839  35.5465965  70.2904434
  20.4739761  34.7983932  71.1087570  66.0915222  26.6110954  36.5885773
  65.2245178  26.5113907  36.9817619  66.4736176  27.3643017  37.0390358
   5.3242984  39.2268677  81.5723572   4.4091454  39.3182106  81.8376541
   5.5882177  40.1100922  81.3144913  41.1877060  39.2825203  14.7329035
  40.8751106  39.9980049  14.1791925  41.9513512  39.6439400  15.1828508
  44.4235382  10.9418831   3.3124609  43.7727470  11.6233101   3.4808588
  44.9671402  10.9299240   4.1002350  76.8039246  66.4677734  14.3534765
  76.9797745  65.9535370  15.1414270  77.5221176  67.0993652  14.3144293
  71.3851547  52.9921608  32.0019684  72.1241302  52.6090279  31.5293655
  70.8791428  52.2388802  32.3065224  74.6517715  36.7716293   4.1603255
  74.8416748  37.1682930   5.0105181  74.7762070  35.8330040   4.3007946
  53.4285545  -0.3594168  66.5774918  53.2339363   0.3225328  65.9346085
  53.2671738   0.0566431  67.4243011  52.1269150  37.6106567  78.5531464
  52.3321304  37.2203331  79.4027176  52.9288483  37.5054131  78.0412292
  12.7933035   6.5883675  75.9578476  13.6882439   6.8626924  76.1579971
  12.2471504   7.0971899  76.5570526  18.7599640   2.7198415  84.5900955
  18.2582951   2.1264122  85.1490250  18.3963509   2.5887773  83.7144012
  63.0361977  45.7327805  68.3740616  63.0003967  45.8112488  67.4207535
  62.1192017  45.7268143  68.6484985  68.7354965  39.4296227  25.1934891
  69.1501083  40.1927071  25.5960197  68.0310898  39.7944794  24.6578331
  25.1454220  67.7341232  84.8266144  25.7304935  67.4841614  85.5417633
  24.4510441  67.0755157  84.8439102  57.3208160  41.2088356  80.9036713
  58.1028023  40.6744728  81.0421906  56.8516579  40.7677269  80.1954727
  36.2446213  63.6162834  29.5171623  36.7365036  64.3359070  29.1216583
  35.4481468  64.0270004  29.8535690  34.2559204  49.3036156  75.7481842
  33.8881569  50.1147614  76.0989456  34.8910751  49.0238914  76.4074020
  25.9377937  57.1597786  27.6330681  25.4368038  57.8757668  27.2424221
  26.6339931  57.5951309  28.1250095   2.2456522  16.9535580  56.7201157
   1.7040557  16.5453167  56.0446548   3.0212889  16.3953381  56.7749901
  29.2272396  17.2509995   4.6831512  29.2230206  16.2959366   4.6193461
  29.3563728  17.5505962   3.7832634   0.5984776  39.7706032  58.2415695
   0.5002537  40.4697266  58.8879471   1.3632985  40.0266991  57.7261124
  39.3018150  23.0308723  41.6561356  39.2903061  22.3572025  42.3360405
  38.6249847  23.6526566  41.9235687  49.5871544  44.6100578  25.4072304
  50.0940399  43.8470306  25.6848812  49.7725067  45.2749596  26.0703907
   5.8146358  54.4175644  88.5930634   4.9234028  54.0919304  88.4669724
   6.3718901  53.7537689  88.1867599  77.0391693   6.8093472  38.7356682
  76.6229324   6.9128876  37.8799477  77.4028091   5.9240565  38.7195892
   0.3417689  42.0641632   4.9310932   0.4255515  42.7183685   5.6247997
   0.3455864  42.5729599   4.1203246  63.3627472  18.4325199  38.3139153
  63.9479942  17.8694630  37.8072777  62.7727242  18.8122578  37.6628342
  21.2951050  24.6575279  69.6494522  21.8506184  24.4728146  68.8921432
  21.2637405  23.8307724  70.1308289   6.9266295  39.1543503   8.2084703
   6.0685549  39.5695877   8.1217623   7.2250547  39.0307617   7.3074155
  72.6566086  24.1549034  66.3426971  72.4825745  24.2392616  65.4052429
  73.5743179  23.8874359  66.3928146  75.4304199  54.9671974  46.1653023
  75.2810211  54.0839996  45.8278503  74.5537491  55.3052597  46.3480225
  52.0133286  56.5244484  28.9663925  52.5211906  56.5238304  29.7777538
  52.4876137  55.9286232  28.3864994  23.2413540  57.0096550  11.6038790
  22.9644661  56.2237320  12.0749311  23.5047607  56.6911049  10.7405291
  42.4245338  13.9931145  38.5912056  41.7800293  14.1257219  37.8960342
  42.0427361  14.4223614  39.3568497  20.1170330  43.7841606  37.5000610
  20.3744068  44.5512772  36.9886665  20.1462326  43.0592499  36.8756561
  66.1501007  39.8535156  69.8403397  65.7186661  39.1157455  70.2713776
  67.0532227  39.8204193  70.1557846  85.8697052   0.9187446  27.2594700
  85.4536896   1.3773293  27.9894447  86.6712723   1.4140743  27.0910473
  76.1532669  61.6072121  72.0406418  75.3305969  62.0859146  72.1421127
  75.8868942  60.7262993  71.7774506  83.1905823  68.9949112  49.7307320
  82.4208984  68.9949188  49.1616859  83.8968430  68.6598282  49.1783257
  48.0930557  59.4179535  87.5571289  48.5450439  60.0917473  88.0650101
  48.3961029  59.5513802  86.6590195   0.3718046  66.1631775  74.8863220
   1.1833136  66.4086304  75.3306580   0.6592463  65.6714020  74.1170578
  64.1805954  39.7514610  67.7344437  64.6963806  40.1738167  68.4213333
  64.4825897  40.1595612  66.9229736  41.9544754  33.6133461   0.7377708
  41.5713387  32.8041573   1.0763806  42.8868179  33.4169083   0.6462156
  58.8294334  52.2199402  83.7596512  58.9901810  52.1294441  82.8203964
  59.1434021  53.0987015  83.9728012  82.1154556  52.9362373  41.6816597
  81.4632492  52.2498779  41.5410385  82.5151901  53.0666008  40.8217468
  67.4011765  44.7014465  42.7267609  67.8235016  43.9771690  42.2649231
  67.9577332  44.8557854  43.4900780  44.2324905  51.8053360  85.8093948
  45.0388451  52.2219887  86.1134109  43.5705032  52.0702820  86.4479980
  59.8725700  32.0003891  74.7659454  59.2076912  31.3119926  74.7491989
  60.1704712  32.0235748  75.6753159  83.0465775  20.2121258  60.4781761
  83.8346939  20.7516899  60.4151230  82.5728531  20.5670757  61.2303925
  72.6717453  23.7549820  54.6507339  72.0955887  23.7508240  55.4150963
  73.5127258  24.0653267  54.9864006  63.2708321  59.9189491  88.2651443
  62.7936058  59.5587158  87.5176697  63.0475807  59.3395462  88.9936218
   0.1931954  69.5873337  53.8293304   0.6230593  69.3186188  54.6412697
  -0.1396181  68.7723541  53.4534531  74.9474716   7.3124118  25.6298409
  74.4037399   6.6296473  25.2368813  75.0151901   7.9845624  24.9517117
  50.7643051  39.2888641  76.7449493  49.9552498  39.6268883  77.1288757
  51.0455208  38.5999031  77.3470154  75.1174088  24.2033043  28.0993900
  75.9950714  24.2618446  27.7218933  75.2355804  23.6966953  28.9028912
  11.7279272  68.3009644  84.4129333  10.8236990  68.6133423  84.4449234
  12.1205654  68.6203995  85.2253571  56.2248383  31.2983627  50.6073685
  55.7573471  32.0089417  50.1683197  56.7398071  30.8859997  49.9138298
  33.4831123  17.6428547  75.9147339  33.5398331  18.3875027  76.5134964
  33.1894608  18.0230579  75.0868225   5.6781635  29.3022957   1.0087485
   5.9681110  28.6674767   1.6638585   6.1603117  30.1017361   1.2200738
   5.6321912  53.7677345  57.4203033   5.1656141  54.4569588  57.8930702
   6.4831505  54.1536636  57.2125587  42.7862396   9.6709881  39.3995857
  43.6185417  10.1409006  39.4514580  42.9680786   8.8175983  39.7931480
  13.1078634  11.5986586  82.6517944  12.9777794  12.0821810  83.4675903
  13.6792126  12.1608868  82.1286392  78.4362183  58.0812912   8.7606478
  78.3092194  58.5337639   7.9267592  78.1013489  57.1978035   8.6071901
  36.9482307  24.0561981  11.3270397  37.1424065  24.9273415  11.6729269
  36.5507851  24.2211056  10.4720116  64.5269165   0.4858157  88.1438980
  64.9991302  -0.3344326  88.0009308  63.7570152   0.2332647  88.6535034
  75.5411377  15.2876549  74.0187073  75.6943970  15.7918701  74.8177795
  74.8662109  14.6537228  74.2612686  42.3896141   0.8669103  19.8517323
  41.9732246   1.6726595  20.1577072  43.0492897   1.1616911  19.2239075
  15.1155424  54.8647308  70.9392548  14.4960785  55.3088455  70.3602448
  15.1945581  55.4454308  71.6960754  63.9036217  33.3320312  74.4435501
  63.9889717  32.5411797  73.9110947  64.2012482  33.0679169  75.3141251
  65.0679626  61.8632355   0.1106520  64.3994370  61.3617973  -0.3561117
  64.9314499  61.6443901   1.0324453  38.2537041   7.6759706  86.0140533
  38.4281235   7.8968029  85.0991516  38.1792183   6.7216921  86.0200958
   5.1801934  69.2053375  48.2729836   5.9290266  69.6977081  48.6092110
   4.6567063  69.8556442  47.8046989  72.7805176  24.1166706  26.2950439
  72.5133820  23.2516022  26.6057358  73.5620956  24.3242683  26.8071594
  78.7649307  38.6962013  78.0234070  79.2441711  38.5852394  78.8445282
  79.0797653  37.9857826  77.4644547  32.4093170  47.5631523  14.2644978
  32.5248642  47.9405975  13.3924809  32.4991913  46.6195908  14.1309013
  65.5811081  17.0451908  77.3522949  64.6247559  17.0392361  77.3921890
  65.7836990  16.8624821  76.4347992  15.4475060  40.3658295  73.2007675
  14.6700268  40.5531235  73.7267685  15.2120438  39.5890083  72.6934814
  10.2950878  49.5514145  74.1348419  11.0226984  50.1684074  74.2131577
   9.5534754  50.0033150  74.5373688  55.4274712  67.5412750   9.6476088
  55.3809624  68.2088547   8.9632063  55.3440857  66.7110977   9.1784821
  74.4514847  57.6072578  54.1722183  74.5819397  57.5103798  53.2289124
  73.6885757  58.1799698  54.2509384  67.3445282   0.1612447  68.3461685
  66.5989380   0.7248348  68.5527878  67.0563202  -0.7174340  68.5933380
  29.1604195  71.4387054  22.3462296  29.9719791  70.9593735  22.1793652
  28.4779053  70.7678375  22.3278408  86.2352600  48.8229904  23.9167328
  85.9102402  49.3535156  24.6441498  86.0338364  47.9218178  24.1688118
  77.1520920  22.3114052  18.8508472  77.3880081  21.8739529  19.6689014
  76.3294525  21.8990345  18.5873203   6.8102355  36.1604652  12.8090830
   6.3043461  36.7270241  12.2265711   7.4559865  35.7448921  12.2376499
  31.8283043  29.5928211  20.6694221  31.3746586  28.9170895  21.1732292
  31.7530823  30.3822651  21.2054768  14.1204739  66.5514221   5.8834763
  14.7094965  65.9410858   5.4398847  13.6632977  66.0150757   6.5312047
  48.9692268  10.9109869  15.9318514  49.2741585  10.0913515  16.3210125
  48.3117981  11.2377357  16.5460606  69.2555695  49.8926010  68.3529282
  69.9346924  49.2296410  68.2283936  68.5236893  49.4152832  68.7437668
  59.4472122  68.2740707  24.6008816  59.5890617  68.6138306  23.7173233
  59.0153999  68.9903183  25.0664558  31.6776352  57.2280235  64.3716583
  31.5518532  58.0968056  63.9900551  32.6157875  57.1807976  64.5556946
   4.6348944  44.0912247  54.6558304   4.1760783  44.5775604  55.3408089
   4.5826764  44.6562729  53.8849678   5.8729124  57.2685127  55.1089783
   6.3333445  57.9395180  54.6050072   6.4917645  56.5400085  55.1593170
  37.8005219  62.9562225  50.2482300  36.8829384  62.7730713  50.4500351
  37.9720116  62.4641304  49.4453163  16.0839443  31.4249935  14.7792416
  16.9982033  31.5395107  14.5199184  16.0487347  30.5431080  15.1497440
  27.0279388  63.7268639  24.2890587  27.3877087  62.8398628  24.2837791
  26.3596611  63.7183533  23.6038113  55.3396721  65.4618912   7.6786385
  55.4949646  65.7085190   6.7668881  55.3269272  64.5048218   7.6690283
  76.1370926  22.2511406  46.6243515  76.2091904  21.9226341  47.5205193
  75.7763062  21.5163574  46.1282043  30.3510303  59.5369186  25.2440777
  30.1254520  58.8640785  25.8864403  31.0188313  59.1281166  24.6934853
  65.8986130   2.6880841  10.1945429  65.8371429   2.9514279  11.1127491
  65.0367050   2.3246629   9.9913883  69.2193069  61.6297989  23.7313404
  69.1631393  62.3238487  23.0745506  69.6702728  62.0362663  24.4713669
  61.3808861  49.9405670  31.7877941  61.3693237  49.8519363  30.8347778
  61.2866135  50.8805313  31.9420872  12.5301008  63.5648346  40.6996346
  12.9124079  62.6929245  40.6004333  12.7628460  64.0217819  39.8913879
  14.3182344  10.4004126   0.8247582  14.1563454  11.2025480   1.3213491
  14.6824884  10.7030878  -0.0070699   3.6046932  29.7544861  34.9761734
   3.6431015  30.3101578  35.7546234   4.4023957  29.9660778  34.4912682
  85.4720154  36.9556999  89.0699234  84.9606323  36.1837158  88.8275146
  85.6826401  37.3751144  88.2356796  38.2952042  59.9800758  87.5917664
  37.4421349  60.1615219  87.9862061  38.9288406  60.2550735  88.2544250
   4.7069349  64.6202011  69.3401184   4.7098160  63.7721710  69.7840424
   5.6102533  64.9293671  69.4084167  47.2095146  58.1752968  69.4009933
  48.1001663  57.9281082  69.6497269  47.0153351  58.9434967  69.9380264
  70.4788361   2.8485014  81.3739548  70.6954117   3.7212770  81.7019653
  70.7537079   2.8621588  80.4571762  85.4565277  28.0732708  52.1473579
  84.7708969  28.6033955  51.7410164  84.9930801  27.3165760  52.5063362
  83.0245972  51.0652161  35.9418068  82.6373520  51.4876900  35.1751366
  82.4314194  51.2833786  36.6606789  72.8753052  44.8800011  49.2870789
  72.0941696  44.8796616  49.8403091  73.6014786  45.0048332  49.8980789
  50.4157333  13.2796841  53.9650841  49.8333473  13.6672773  53.3117599
  51.2580910  13.1996059  53.5175972   2.9237552  37.4450989  28.4305878
   3.7714787  37.6100922  28.0178242   3.1382751  37.2150116  29.3346195
  14.4736900  15.8592024  67.7414246  14.7979307  14.9642639  67.8423386
  13.5210810  15.7679014  67.7206573  48.4300156   9.4751062  30.1236858
  48.8783836   9.2711039  29.3029671  49.0707779   9.9757910  30.6286316
  29.8118820   0.2199860  28.9776096  29.3326073   1.0352191  28.8295460
  30.1487045   0.2988789  29.8701096  50.9815636  62.9035645  82.3233185
  51.0741386  61.9889641  82.5900955  50.7952385  63.3726120  83.1366501
  65.6005096  41.5704842  56.8470726  65.9381714  41.9944420  56.0580978
  64.9554367  42.1872787  57.1930161  56.3987427  27.8910866  72.0182343
  56.0212326  28.7583046  72.1653671  57.2644501  28.0661736  71.6492844
  13.7741947  27.3958225  73.1403427  13.5513630  26.6690140  72.5586853
  14.7200422  27.5023327  73.0390472  15.5791721  44.2939682  59.3582420
  15.2559824  44.6862030  60.1693726  15.0569649  43.4988251  59.2520370
  69.3248901   4.0475516  36.3571701  69.5225677   4.3890615  35.4850883
  69.0471191   4.8148108  36.8575592  73.9870758   1.1668937  13.2735519
  74.5388870   0.4706149  13.6298237  73.1648026   1.0922947  13.7578402
   3.6101921  49.7049522  62.4097977   3.1361711  48.9538918  62.7667923
   2.9938574  50.1087875  61.7988319  83.4364777   5.8400893  27.9125519
  83.6167679   6.7453890  28.1658478  82.4871674   5.8091035  27.7938862
  27.7014027  36.3590813  62.7288895  27.6895180  35.4170685  62.8983078
  27.8194180  36.4306145  61.7816925  54.3994713  48.3915901  21.5276985
  54.1330070  47.4781876  21.4231815  53.5865135  48.8895607  21.4419460
  26.2631454  43.9090309  75.7732239  26.9036064  43.5648499  75.1506653
  25.4287663  43.5353050  75.4897232   4.2183719  64.8005600  87.0937271
   4.3181691  64.6927261  86.1478729   3.9609728  63.9337578  87.4077759
  30.0130844   0.4711546  67.3399048  30.2324085   1.3412886  67.6730652
  29.3874435   0.6355155  66.6343613  48.3436317  29.4976387  41.9932442
  49.2770233  29.5447102  42.2001190  48.2965775  28.9250622  41.2276268
  29.3892975   8.5664015  11.2113285  29.5234184   8.5680809  12.1590834
  29.5684624   7.6644263  10.9456730   8.8475857  60.8704758  59.8276329
   8.6331396  60.9054947  60.7598457   8.1354475  61.3461189  59.4000130
  71.7395248   2.6832788  57.6335564  71.8040390   3.0445459  56.7495003
  71.2654724   3.3498788  58.1306953  55.7440834  11.7025919  39.8714485
  55.8221169  11.9830341  38.9595833  55.5867119  10.7598495  39.8194618
  74.2387009  17.9923820  23.3948154  73.6946640  18.6723423  23.7921867
  75.1284714  18.3428421  23.4363575  14.4956598  70.8962402  75.2800598
  14.3342438  70.8071594  74.3407822  13.8465872  70.3244400  75.6899109
  79.4557571   3.7894590  88.6731339  80.0545959   4.5040131  88.8900223
  78.6926727   3.9386699  89.2314148  17.7408409  49.9870148  59.6004715
  17.1292477  49.3193398  59.2900047  17.8642750  50.5667953  58.8489075
  74.5061417  47.9465942  58.5741692  75.2550430  47.5024261  58.9717712
  73.7544632  47.6594315  59.0925865  37.0964127  41.8776360  29.9411068
  36.5036392  41.7176933  30.6754570  37.9302139  41.4987793  30.2194481
  50.9270630  20.0514145  21.4029827  51.3226318  19.2681770  21.7854748
  50.4660721  20.4671268  22.1316128   4.0995102  22.3743362  61.5516396
   3.5828350  22.7644062  62.2567101   4.7326841  21.8140621  62.0004349
  12.1845760  69.4070740  11.1325483  12.6664734  70.0186844  11.6892653
  12.7846603  69.2154236  10.4118547  26.2573090  61.5214996  77.2475662
  26.5112362  61.4286194  76.3293457  27.0651608  61.3648186  77.7365036
  10.2904062  -0.0631362  17.5805473   9.9538460   0.8232729  17.4492531
  10.4737234  -0.3830123  16.6971989   2.0619931  28.0071449  79.4331055
   1.8080676  27.8164310  80.3360901   1.7645041  28.9048328  79.2851486
  74.2805099  31.6880207  83.0709381  73.8323898  31.2177143  83.7739487
  75.2112961  31.5839272  83.2685089  80.3022919  12.5262442  31.1289864
  80.5985947  13.4166794  30.9404049  79.5268173  12.6430569  31.6778259
  13.9746370  33.4640312  31.5299320  13.5173464  32.7383118  31.1051350
  14.6939611  33.6750755  30.9347305  63.5834770  50.2341614  70.8919067
  63.5120659  49.4925232  71.4928284  63.2850571  49.8899231  70.0500793
   9.5364857  71.0416107  84.3475266  10.2879028  71.4514542  84.7760544
   9.5438414  71.3977127  83.4590607   6.2687755  35.0354195  17.4866028
   6.1549783  35.6777725  16.7861271   5.4658866  35.1001816  18.0037174
   3.1646721   6.9165587  78.4419098   3.6769361   7.6329932  78.0670242
   3.8130646   6.3557653  78.8677368  42.0885353  40.8451157  62.0196609
  42.1630783  41.0490456  61.0874138  42.7663193  40.1875267  62.1759300
  57.3864708  29.1715050  26.2428436  56.4609299  29.0190392  26.4335346
  57.8446236  28.4668579  26.7008820  11.1141148  58.0562134  85.7652512
  11.6893063  57.8397636  86.4990997  11.6989307  58.4248734  85.1032028
  64.7163010  63.5974808  23.0001678  65.3717194  63.9873352  22.4216595
  65.1528091  62.8328629  23.3757343  22.0739861  53.1399879  69.7542496
  22.8527927  52.6135368  69.5738525  22.3081169  53.6579285  70.5244141
  48.4594078  39.2168617  74.7836838  49.3921471  39.0104675  74.8439484
  48.0182037  38.4183960  75.0735550   3.8691564  24.2475433  76.0154190
   3.4653785  24.9497795  76.5253830   3.7994235  23.4743481  76.5753632
  43.3257370  66.2912216  77.3958740  43.2363968  65.3532104  77.2274323
  43.4206543  66.6825333  76.5274887  10.0021954  43.4429131  63.4510574
  10.7645340  43.2152939  63.9832802   9.7712202  44.3289375  63.7300644
  79.3223038   4.4783463  40.4672318  78.9850311   4.5847445  39.5777626
  80.0994263   5.0363998  40.4970627  72.8799438   1.2397330  43.9505577
  72.4934845   0.4638798  44.3566780  73.8147202   1.0411006  43.8960953
  27.7107849  41.9154358  71.0708466  27.8729019  41.1404686  71.6087875
  27.9452839  41.6442566  70.1833267  62.5202408  16.3554497   4.5410476
  62.8422661  15.4540806   4.5491352  63.1465187  16.8286285   3.9932275
  61.8842087  56.4698601  70.0524216  62.2511940  56.1747398  69.2190781
  61.4865608  55.6854019  70.4302216  43.6838036  55.6624565  70.5670624
  44.0513687  55.1178017  71.2631073  44.4054413  55.7811775  69.9495010
  73.8020859  56.6528969   7.8086867  73.5450668  56.5922508   8.7287378
  74.2125015  57.5141411   7.7309256  50.2302246   4.2482271  63.4890289
  49.7196770   3.7506659  62.8502731  50.8009186   4.8043094  62.9586411
  53.0744514  25.2319908  81.9993820  52.1943474  24.9790802  82.2781067
  53.5634727  25.3362560  82.8155975  38.7340851   8.5038414  83.4702759
  38.3094444   7.8328691  82.9357605  38.7173729   9.2904234  82.9250793
  64.4093704  66.2819519  66.5308533  65.0850296  66.2244034  65.8552780
  64.2155457  65.3715134  66.7539215  45.2944641  13.5698023  64.2761612
  45.2056885  12.6329451  64.1010895  45.4714203  13.9578800  63.4192390
  21.6912365  21.8574219  16.2879581  20.8288841  22.2416649  16.1300373
  21.5048294  20.9849186  16.6346912  60.3248520   2.8808155  58.2969017
  60.2467728   2.2677548  59.0278549  61.1804390   2.6883991  57.9132652
  11.1145964  47.5898285  35.3930435  10.5352354  46.8561707  35.5987625
  11.3892174  47.4321671  34.4897385  55.4910736  52.9899902  39.8228340
  55.8132477  52.1923409  39.4030838  54.5712051  53.0424156  39.5633545
  78.8416672  16.4450226   1.6464561  79.6928711  16.4754543   2.0832217
  78.4564133  17.3054104   1.8124194  64.5782547  58.0288162  62.8168678
  64.8171005  57.2365799  63.2980614  64.1612015  58.5896950  63.4708633
  60.3717308  41.2133751  62.4759064  59.8187561  41.4966278  63.2040672
  59.7809029  40.7256088  61.9021149  44.6959610  26.4425163  84.1562195
  45.1541748  25.6288834  84.3666306  45.2143631  26.8345032  83.4534760
   2.3046479  64.7419739  76.8781052   2.0386660  65.3944778  77.5259628
   3.1459031  64.4160156  77.1979065  50.4844971   7.1733971  32.7189674
  50.7878723   8.0219755  32.3963051  51.1718941   6.8859673  33.3198853
  66.5783463  58.2697372  13.8960857  66.9518738  57.7251701  14.5890188
  66.1692429  57.6463661  13.2958565   0.7053963  66.3044891  12.0363541
   0.5379411  65.3628311  11.9979267   0.3278755  66.6481323  11.2266502
  50.1725960  63.2161522  19.3191490  51.1209297  63.3003883  19.2201271
  50.0554504  62.4167328  19.8324108  55.4496193  70.2080307  83.6135254
  55.3707695  70.3623276  82.6721344  55.1393929  69.3108139  83.7359848
  57.1605377  57.1968269  28.2521343  57.8487244  56.5948181  28.5353546
  57.3765831  57.3960533  27.3411655  44.9672470  53.1671982  59.3729477
  44.6679993  52.2761688  59.5539284  44.2237511  53.5861473  58.9394417
  62.2539291  56.8448792  37.3553581  62.0857430  56.0101776  37.7926445
  61.5557442  56.9194069  36.7048073  76.7253647  61.2549782  46.2654457
  76.4472275  60.3987923  45.9401550  77.5837021  61.3957291  45.8658485
  79.5414047  49.8024635  80.6955872  80.1191864  50.2549934  81.3100891
  79.3383560  50.4593773  80.0296478  82.4977188  29.0503864  23.1570377
  83.4009628  28.9667931  23.4626465  82.5756149  29.1782780  22.2116241
  12.2622890  42.7577171  24.6125908  12.1589899  42.6397591  25.5568619
  11.8373814  41.9912682  24.2275696  80.1721420   3.5452962  46.8467484
  79.6227112   3.2333176  47.5657959  79.5508804   3.8509853  46.1858253
  75.1700287  63.9972076  11.3728056  75.0785217  63.6561432  10.4831247
  75.1704025  64.9484100  11.2658062  35.6362228  52.7272110  41.4674530
  35.9629631  53.0744171  40.6374397  34.7192268  53.0001373  41.4968491
  39.8912849  25.5457592   1.6808970  40.7688637  25.6314716   2.0533776
  40.0009308  25.7671528   0.7561294   0.2312810  10.0111313  23.7574463
   0.4207269  10.5677156  24.5127983   0.4623869   9.1283512  24.0464497
  83.5798187  57.2564240  52.4055443  83.3178177  57.7994041  51.6620674
  84.2417984  56.6644745  52.0483055  47.2167549  50.3549881  36.3947182
  48.1251144  50.1759491  36.6377335  47.0381203  49.7509308  35.6739998
  27.4509678  59.9607353  70.3976364  26.8115425  59.7540932  71.0792999
  26.9949665  59.7741013  69.5769882  78.3376846  26.2507515  60.1178207
  78.5308685  26.0389595  59.2045555  77.5912857  25.6942043  60.3400307
  44.9778442  16.9268303  57.4653816  44.5266190  17.5564442  56.9030495
  44.6984711  17.1544857  58.3521461  58.5052338  17.4319649   1.1416757
  58.7113724  18.3640022   1.2126971  57.6186371  17.3552132   1.4942139
  58.0110970  33.5843887   3.5140376  57.9901352  32.6363106   3.3838885
  58.5663376  33.7082520   4.2838407  49.7159195  54.0193634   5.6053896
  48.7801437  54.0047340   5.4045420  49.8859825  54.9175949   5.8890934
   2.9049129  34.0257874  69.0405502   2.6108515  34.9344406  68.9764328
   3.6296544  33.9641151  68.4183121  40.9728317  12.3463507  88.9870377
  41.3231964  12.9060974  88.2940979  40.0232964  12.3931322  88.8755722
  73.2630234  66.1217957  25.4641056  72.6604309  66.4011154  24.7748337
  72.7615356  66.2172318  26.2738171  36.5323219  67.5749283  82.2908630
  36.2029114  67.7849884  83.1647034  37.4394836  67.3057480  82.4351807
  36.3186646  50.5410652  15.9960194  36.2912445  50.6056519  15.0413952
  35.5237617  50.0601807  16.2264748  25.1241837  57.0030022  77.4899216
  25.2408142  56.2066460  78.0080414  24.9200897  57.6804504  78.1346207
  23.3572712  58.8889046  29.2012119  23.6077232  59.2625999  28.3563118
  23.4844265  59.6028252  29.8260155   7.1143789  10.7582130  87.8700180
   7.5956888   9.9310770  87.8904877   7.6553621  11.3627548  88.3780518
  77.1026840  25.0011826  49.6326141  76.6184692  25.6138783  49.0791092
  77.4191208  25.5352821  50.3612022   5.6579862  28.6952877  61.7712364
   5.9357147  29.5820580  62.0008812   6.4730220  28.1968670  61.7118645
   1.6160040  51.9372635   2.9270871   2.3712440  51.6080208   3.4143696
   0.8602883  51.5383263   3.3583336  37.3140984  58.1844940  67.5086060
  36.8165817  57.7834625  68.2212677  37.0991592  59.1157799  67.5609207
  55.7376518  27.9260197  83.6891174  56.4610405  28.3793755  83.2562103
  56.0905571  27.6712952  84.5416489  56.1983299  60.5983772  52.8355484
  57.0022888  60.3257942  53.2777977  55.9879799  61.4479256  53.2231712
  77.8959732  22.7083340  21.6877270  78.3730927  22.7095051  22.5175343
  77.2590103  23.4172764  21.7766838  41.1765137  41.6680145   6.2122588
  41.4379463  42.3424835   5.5853820  41.7090645  40.9069366   5.9812160
  85.8710861  18.6369534  54.4071579  85.0868073  18.4723511  54.9306488
  85.7518921  19.5247688  54.0698013  68.2588959  58.2901802   2.2801120
  67.4364548  58.1161194   2.7378459  68.0104065  58.8529434   1.5467744
  35.5056419  67.9669113  84.8085175  35.7466240  68.3361206  85.6581345
  34.6042480  67.6665955  84.9248505  18.6543484  41.8996010  69.5959549
  18.2406445  41.9974480  68.7383347  17.9475460  41.6057968  70.1707077
  18.2053967  52.1650772  75.3513107  17.5229759  52.7780724  75.0778656
  18.4524326  52.4574509  76.2286453  63.3836899  45.5047112  71.4696732
  63.9300995  45.9856529  70.8480911  62.4888763  45.6437607  71.1595001
  63.0075188  71.1550751  44.0784111  63.7236595  71.5274811  43.5639343
  63.3601112  71.0872192  44.9657135  76.7439804  45.5991096  71.2013931
  75.8732224  45.5264664  71.5922012  77.3103638  45.8643608  71.9260178
  82.3828735  49.6669083  86.6292953  82.0087662  50.5341454  86.4738235
  81.8475189  49.2974968  87.3315506  41.2576027  31.5695248  76.4469757
  41.0303230  32.3218307  76.9934311  40.5075989  30.9801636  76.5268707
  65.0233231  17.2833176   7.2546859  65.7510529  17.8988667   7.1666527
  65.0110550  16.8066730   6.4246917  22.5394726  60.5694656  18.7289982
  23.1871471  61.2651482  18.6159801  22.3924656  60.2331619  17.8449593
  17.6690979  47.1005745   3.9353287  17.2012711  47.8609200   4.2806506
  18.2743015  47.4648094   3.2893455  62.0248070  40.4461212  56.8764610
  62.5897102  39.6950798  57.0582581  61.5891685  40.6254082  57.7097130
  80.7516174  68.5069885  71.9224854  81.3255386  67.9867325  71.3601913
  81.2853088  69.2590027  72.1791534  37.8375206  69.7834625  48.4780807
  38.0443230  69.4285049  47.6135178  37.3644066  70.5955505  48.2966728
  10.5851078  23.8553104  79.8889236  11.4957533  23.8022213  79.5988541
  10.4356546  24.7887421  80.0392532  74.2952881  49.7011871  62.5045967
  73.8472977  48.8884163  62.7389908  74.9202423  49.8437996  63.2154617
  32.6667519  71.0724945  38.5651321  33.3135452  70.9369507  39.2576065
  33.0310287  71.7792206  38.0321426  11.4219875  69.6532745  41.9836884
  11.9449673  70.4499435  42.0733757  10.5847826  69.9547958  41.6309776
  66.8597031  18.9692955  73.2452164  67.1052933  18.3110905  72.5950775
  67.3900528  18.7568855  74.0132294   5.8620296   3.7559938  54.7537575
   5.5457721   2.9343436  54.3781204   5.7608004   3.6419621  55.6987343
  48.5193176  22.8560486  64.6261215  48.1520882  23.0303135  65.4927292
  49.0527267  23.6269245  64.4325943  55.6745682  13.3556690  84.8900375
  56.1122894  12.5573559  85.1855469  55.0313454  13.0529032  84.2490768
  83.8136749  30.0404091  18.1133957  84.3330841  29.2627869  17.9090672
  82.9324188  29.8272400  17.8065014  23.0850716  59.3134117   8.5887718
  23.0261173  58.7432480   7.8221755  22.2488251  59.1959915   9.0394783
  85.8327866  33.3901825  62.4815407  86.7607880  33.4399033  62.7108383
  85.3825378  33.3065033  63.3220787  19.1695118  57.7636642  53.6068001
  18.6568832  57.5409737  52.8297195  20.0528584  57.9218445  53.2737656
  74.4207611  35.6500664   1.4668708  75.0980301  35.0568314   1.1418928
  74.7043839  35.8748856   2.3530121  75.5829315  34.3152008  21.4881420
  76.4157333  34.6200142  21.1279221  74.9358063  34.9364204  21.1541519
  61.7676353  28.1397667  48.7736702  61.6494141  28.9390144  48.2603874
  61.2384758  27.4835014  48.3203087  15.6964979  39.2503090  30.5003643
  15.4653797  39.2694054  31.4290466  15.5773726  38.3361855  30.2426491
  23.5674553  65.9984741  81.2093353  23.5218067  65.2760010  81.8355789
  23.4195557  66.7829514  81.7375031  29.6789436  58.8320465  47.0752945
  29.9065437  59.3550110  46.3065681  30.0037155  59.3425674  47.8169975
  84.9495926  70.0569916  36.8848610  84.1582031  70.2180023  36.3710403
  85.0610428  70.8507309  37.4081192  63.1275558  53.3495140  24.2501221
  62.3195610  53.8198929  24.4553490  63.6985283  53.5156403  25.0002079
   2.6461105  25.6907558  66.0395813   1.7132062  25.5342751  66.1859894
   2.8723710  26.3855019  66.6579361  15.7693958  60.2033539  10.0060911
  16.2018623  60.8217049  10.5950279  16.2838478  60.2407684   9.1997595
  57.4050903  69.7833023  60.1598358  58.1575813  70.3671417  60.0643616
  57.0580750  69.6927567  59.2723579  74.6286011  23.5030136  84.7709351
  75.5591507  23.7147999  84.8447647  74.4745178  23.4257412  83.8293839
  29.4480076  36.9123459  78.2103958  29.3410530  35.9611931  78.2203674
  28.7395287  37.2388649  78.7650757  47.8563728  38.2219658  58.9644279
  47.8606987  39.0816460  58.5435181  48.4585457  37.6950455  58.4390945
   3.9003217  14.1191139  12.5392637   3.6032062  13.2468023  12.7981596
   3.5017707  14.7078924  13.1801443   8.6220455   2.0884507  74.1627197
   9.0971956   2.4385123  73.4091187   8.5559130   2.8268352  74.7682343
  31.1486015  31.5385170  67.2972794  32.0545006  31.8448238  67.2553940
  31.1869125  30.7509670  67.8399887  43.3672066   5.9182086   2.4412715
  43.1913147   6.7575088   2.8665595  44.1177483   5.5615892   2.9163895
  59.8123512  37.9171600  75.2195282  60.5996895  38.2494698  74.7883682
  59.2235794  37.6888885  74.5001678  70.2102966  56.8262024  20.3592911
  70.1388245  56.6765137  21.3020096  71.1518555  56.8231087  20.1869926
  51.7864113  51.3640099  39.1516342  51.0244331  51.9432716  39.1431847
  52.4662399  51.8557701  38.6909447  46.7369041   4.5011659  88.1575928
  45.7902527   4.5488787  88.2910309  46.8487282   4.5671096  87.2092361
  86.1336517   3.5711935  23.1100979  86.2547302   3.7265253  24.0468178
  86.6002960   4.2911363  22.6856480  41.7261353  66.2452316  83.6109467
  41.9683914  67.1276169  83.8919144  41.3051910  65.8567886  84.3778610
  59.2265167   0.9856400   7.4578099  58.5472984   1.6584998   7.4113884
  58.7676239   0.1683069   7.2638564  43.1492996  56.7202568  88.4403534
  44.0417328  57.0560799  88.3565979  43.0220413  56.6107788  89.3827209
  21.4044132  15.0182114  78.9950485  22.0896397  15.4255438  79.5249329
  21.6653423  14.0994768  78.9312057  84.6152115  13.1194878  71.6434326
  84.4538422  12.2445164  71.9964371  85.3625259  13.4458981  72.1446457
  38.4041061   6.0778089  81.8673782  37.9044228   5.2985272  81.6239319
  39.1268425   6.1044641  81.2403412  66.6485901  17.6531258  66.9660187
  66.9390488  18.4706020  67.3704910  66.9384689  17.7198391  66.0562057
  15.8643265  20.3329506  22.5307655  16.1465397  19.5481758  22.0609608
  16.3525810  21.0465202  22.1200867  40.8195114  53.5933495  17.1739635
  41.1590385  54.4169312  17.5242062  41.5601273  52.9889145  17.2227364
  16.5966415  11.8155022  88.1870728  17.1284962  11.7061806  87.3987808
  17.2331810  11.8691254  88.8999329  70.1632233  11.0034027  82.2241516
  70.4400253  11.2252560  83.1131897  70.5377960  11.6939888  81.6773224
  46.7305298  60.1748848  51.4318962  47.0010452  60.2349014  50.5156822
  47.5374794  59.9776459  51.9074593  52.8390961   3.8667357   4.2639551
  52.8820000   4.5095544   4.9718924  53.5620995   3.2653484   4.4423666
  64.6544952  38.0481682  71.6103210  65.2546616  38.2833786  72.3179245
  64.3256989  37.1825638  71.8529282  61.7498741  39.1654510  48.5021973
  61.9306030  38.9125099  47.5968857  61.2848358  39.9989510  48.4297218
  66.3414841  15.2202024  18.5680180  66.0197372  15.2428694  19.4692383
  66.0123672  14.3927612  18.2169418  60.6582260  56.0236320   2.8659232
  61.3469048  55.7347260   2.2671854  59.8953590  56.1620407   2.3045795
  63.1239395  56.6684380  57.1014290  63.0907936  57.4270134  56.5185890
  62.4487114  56.0788269  56.7657852  24.4504852  70.4977570  17.0300369
  24.5317650  71.4225616  17.2631779  23.5651207  70.4170990  16.6752720
  63.3433495  65.3719025  51.5844803  63.0743599  66.2892075  51.5351791
  63.0608368  64.9943619  50.7514839  25.1481895  46.5733261  17.4334526
  25.6284409  46.1329880  18.1346607  24.2406025  46.2933273  17.5522690
  62.8953133  63.2261353  20.4838238  63.4526482  62.7119446  21.0679626
  63.4470787  63.4050522  19.7223930  13.8719187  25.4584579  85.2264557
  14.4463224  26.1580105  85.5377731  12.9879837  25.7699165  85.4210892
  63.6593285  28.5980988  72.3774719  64.5592422  28.3158627  72.5409698
  63.1637611  27.7832108  72.2962341  79.5683975  19.8768444  69.2303314
  79.4432068  18.9281521  69.2536697  80.2264023  20.0482464  69.9040375
  21.6083622  36.8807831  61.2838898  22.5011272  36.5982208  61.4822807
  21.2999878  36.2565994  60.6269798  35.9770584  70.8597565  27.4576931
  35.7770233  70.4617310  26.6104679  36.8199081  71.2937317  27.3254108
  73.9609680  29.4624691  76.8981857  73.9762115  28.6154823  77.3438416
  73.4216690  30.0190411  77.4599838   1.7096939  50.8603935  51.9702339
   2.3810441  51.5157852  51.7805481   2.0988491  50.3082352  52.6484032
  71.1020050  11.5885382  23.9845467  70.3111343  11.8549318  23.5157242
  71.0031662  10.6439190  24.1035347  75.8920517  71.8514099  35.8353729
  76.2247925  70.9550552  35.8807831  75.3403778  71.8627701  35.0532227
  30.4893036  62.9741402  21.0313778  30.7620964  62.5928345  21.8658962
  31.1544895  62.6846161  20.4069290  82.0474243  34.2054367  63.9856567
  82.5736847  34.9976692  63.8777695  82.3504181  33.8271866  64.8110962
  29.0416107  64.1775513  61.7749214  28.1647282  63.8847656  61.5267563
  29.1691933  63.8302231  62.6577110  63.3028259  14.7275753  75.2021103
  63.8120613  15.0875120  74.4759216  63.3373260  15.4048138  75.8776779
   6.1723285  64.6141129  51.8783722   5.9535317  64.2446823  51.0228729
   7.1279330  64.6693573  51.8781052  71.9189758  15.2450085  52.0321770
  71.7894363  14.5709295  52.6993141  72.8684692  15.2921629  51.9205399
  83.7333069  36.3298302  63.4450645  84.6222610  36.5885429  63.2020569
  83.1709671  36.9790154  63.0224953  74.6382828  41.3863945  74.3764801
  75.1323013  42.2043152  74.4328766  74.2761993  41.2642784  75.2540970
  62.2842979  48.7805214  73.9126892  62.8891220  48.3070679  74.4838867
  62.2248802  49.6544533  74.2986221  53.4782562  23.1841526  45.9961967
  52.7807007  23.4024506  46.6142540  53.0208321  22.8257179  45.2355919
  44.5146332  61.5526161  23.7729912  45.2190056  62.1817245  23.9289227
  44.8789330  60.9382629  23.1357422  50.9147491  47.8763161  71.3541870
  50.3740196  48.0182724  70.5772095  50.5761223  48.4979515  71.9984894
  55.7285614   7.9551363  82.2591476  56.4310913   8.2884197  81.7009277
  55.6566429   7.0293975  82.0266190  44.3392525   8.5398016  72.0950928
  43.9203110   7.8099332  72.5511780  45.1993790   8.6180677  72.5077515
  76.5785141   9.0371389  13.3667164  75.8500519   9.5581493  13.0288916
  76.2372437   8.6392756  14.1676359  16.5979862  62.9816589  53.0370560
  16.5903530  62.1064911  52.6494255  16.0356178  62.9070435  53.8080330
  38.6626091  66.1961899  39.5839005  38.2490082  65.3497467  39.4145126
  37.9342918  66.7811127  39.7928391  49.1675377  42.8958282  29.2548618
  49.8606987  43.1675949  29.8564453  49.0184021  43.6612740  28.6998119
  28.3538532  59.2670670  43.9510117  28.4260330  60.0465431  43.4001617
  29.1895962  59.2239265  44.4156685  24.2350388  64.8791580  26.3114166
  24.9630394  65.4611435  26.0933876  23.7827225  64.7393646  25.4794922
  76.7099915  11.3554764   7.3145056  77.6023331  11.0289764   7.1989017
  76.1513977  10.6272030   7.0427999  46.0787582  68.3230743  38.0722542
  45.3124123  68.7904892  37.7398796  46.7364922  69.0056381  38.2053871
  14.6518841  60.3578224  32.5122223  13.9493198  60.6057243  33.1132050
  14.4185810  60.7782898  31.6845684  18.3165836  13.0972824  83.3605347
  17.5156708  13.6213169  83.3480453  18.8793411  13.5041790  82.7017746
  43.9178467  49.5423317  72.3158188  44.0510521  48.7191277  71.8458939
  44.4165306  49.4388733  73.1262741  19.5179539  59.2353935  62.3433495
  19.2777729  59.4711304  63.2394371  20.4353104  58.9688034  62.4035187
  52.8391609  24.1611557  18.7083054  52.1476746  24.1983490  19.3691311
  52.9324875  23.2290707  18.5114880  64.2288818  63.0682411  13.9795551
  63.7525253  62.2574158  14.1581154  64.9173508  62.8114319  13.3661337
  46.7669792  22.4397335  77.6194153  46.8709755  21.8623104  76.8631134
  47.6589622  22.5832119  77.9356613  39.7876892  69.3076553  42.0478325
  39.7265892  69.0923080  41.1171761  38.8824463  69.2875748  42.3582535
  78.7877960  47.0897446  14.7184391  78.5985947  46.6027718  15.5204945
  79.7282486  46.9730949  14.5836267  71.4181671  52.9334526  79.0574722
  71.5698013  52.9291191  78.1123734  70.6671829  53.5148277  79.1768951
  83.7672958  47.8523598   3.3484783  83.1482697  48.2607155   3.9536886
  83.8206940  48.4623146   2.6127231  70.7677612  71.0474625  28.7435093
  69.8177261  71.0654755  28.8590527  70.8985214  70.6087723  27.9028645
  80.8557663  35.0497551   2.5108764  80.0879364  35.3555336   2.9937568
  81.1663361  35.8231926   2.0401602  23.7602406  50.6133461  20.5469666
  24.2739525  50.2406845  21.2635269  24.2515888  50.3873024  19.7572098
   3.2624750   4.1071906  84.6913681   3.0448372   3.6081786  83.9040604
   2.9154584   3.5811927  85.4118805   3.6310353  34.1250725  43.2591324
   3.2213285  34.5771217  42.5215530   3.0648081  33.3707275  43.4221573
  21.8148060  18.2388039  74.0363922  21.1776371  18.0154591  73.3578949
  22.4459667  18.8068485  73.5945892  34.9720840  38.0077248  22.8998566
  35.0997467  37.3430367  23.5767059  35.5973625  37.7741127  22.2137909
  39.6486244  45.9433746  66.2759171  40.1306877  45.1363869  66.0953140
  39.8811607  46.5278511  65.5544281  26.0140495  55.3480263  59.1315765
  25.3085423  55.1487236  59.7470207  26.7233219  54.7552643  59.3801765
   3.1401315   2.4224670  82.5296860   3.9926925   2.4456105  82.9642410
   3.3382301   2.1743972  81.6266632  16.7715111  70.7600098  67.5639038
  17.0159569  71.6177063  67.9115067  17.2805958  70.1373062  68.0828552
  71.6718826  67.1504517  23.6472664  71.9310608  67.1842804  22.7264423
  70.7923050  67.5277328  23.6625366  63.5075111  31.7159157  22.9076672
  63.0063934  31.2543449  22.2353115  64.2695770  31.1580906  23.0636139
   2.1673329  21.5475845  39.7408333   2.2538629  20.7751331  40.2994614
   2.7589867  21.3801422  39.0072556  26.4104900  46.3064423  46.7330933
  26.7970562  47.1311417  47.0274963  25.9747257  46.5266190  45.9097672
  23.0472698  15.7566833  85.5585556  22.9858246  15.4381323  86.4591064
  23.2646008  14.9794464  85.0438766  12.6219196  35.5412941  13.7349119
  12.4580669  34.8159637  13.1321850  12.8134041  35.1184807  14.5720472
  35.6286201   3.4516392  16.2152691  35.1897621   2.7001393  15.8166676
  36.5616570   3.2512705  16.1409245   6.8337531  11.5450287  19.2202396
   6.6794567  11.8338013  20.1197033   6.6375937  10.6082239  19.2324657
  31.8383675  57.1422272  35.2290077  32.1618385  56.3043518  34.8980103
  31.6572857  57.6566887  34.4423904  86.6547699  26.2386723  65.9810104
  86.0978394  25.9105778  65.2750244  86.5032806  27.1837959  65.9860229
  43.1312523   6.6040516  15.8613243  43.3876038   7.4673743  16.1856537
  42.7177773   6.7788687  15.0159178  44.0273514  59.0179977  69.5892792
  44.7425270  59.1228180  68.9617691  44.4536324  59.0496178  70.4457397
  28.0281162  39.7881889  73.3089371  27.8319893  39.0917473  73.9356232
  28.6058350  40.3839378  73.7859650  29.4108849  26.0931644  76.0357513
  28.6221542  26.4163265  76.4713058  29.5723076  25.2386475  76.4357224
  62.3417435  64.4726486  35.8813400  62.1412430  63.7914658  35.2394524
  62.3733902  64.0105438  36.7190094  27.8466644  31.7967110  18.2786560
  28.5799751  32.4103813  18.2351322  27.1527367  32.2162628  17.7700577
  56.1435280  37.5928726  13.5339041  55.5539055  37.6588669  14.2850513
  56.9652596  37.2683296  13.9022303  45.2702751   0.1685725  22.7587967
  44.8383904  -0.6679696  22.9317284  45.1357460   0.6773669  23.5583344
  18.1460953  62.5885696   4.1413016  17.9660225  62.2869720   3.2508831
  18.6317158  63.4050522   4.0240130   8.3337269  42.3582726   7.1629181
   7.3827853  42.2742195   7.0930796   8.6732893  41.8641739   6.4167309
  23.3743553  23.6372414  67.9739685  24.0605583  24.2906818  67.8384247
  22.9431248  23.5626564  67.1226654  62.4795074  54.7172050  72.7574768
  63.4044876  54.8054428  72.9873886  62.4563141  53.9935570  72.1313553
  37.6963997  27.9429741  86.7538528  37.4130821  27.1550159  86.2900772
  36.9796143  28.5650043  86.6292343  76.6836929  67.2025986  32.4564171
  77.4421310  67.5888596  32.0184555  75.9639893  67.8034515  32.2634773
  75.8632965  71.2345200  57.5594635  75.5664597  71.7293472  56.7957458
  75.2221756  71.4377899  58.2405434   1.0017406  21.4075050  61.8957901
   0.1939581  21.4329319  61.3828850   0.7086554  21.4453087  62.8062325
  40.9755363  55.7711411  21.6903896  40.3897476  56.5014343  21.4910069
  40.6730614  55.4461060  22.5383854   9.3869858  56.6377754   1.7626226
   8.9253101  56.3462448   0.9764316   8.7105436  56.6712799   2.4390357
  44.4461060  46.0493202  58.4506721  43.9599915  45.5673370  59.1197128
  44.3475647  45.5230141  57.6572495  12.0071774  55.2157555  43.2177467
  12.8752985  54.9258919  43.4980659  12.1369696  56.1205139  42.9334946
  68.6786499  63.1052132  74.5360794  68.3443527  63.9991646  74.6090851
  69.5715790  63.1548119  74.8773270  57.4763298  67.2377548  14.4760923
  58.3404503  66.9885330  14.8038397  57.5752602  68.1522141  14.2111301
  65.5044174  10.7181282  54.6934090  66.4136581  10.4221210  54.6498795
  65.5132523  11.5807590  54.2786522  43.2244339  44.0900383  70.6390305
  43.2141075  43.9600983  69.6907501  43.4437294  43.2295227  70.9963226
  30.4081039  54.9981766  17.4234962  30.4870567  55.9277878  17.2094326
  29.4921494  54.7875748  17.2420921  76.0200653  54.2565804  57.6095657
  75.3053818  54.8752632  57.7602081  75.6408157  53.5863457  57.0410652
  65.6691895  21.5110054  84.7315979  66.3446426  22.1774635  84.8573761
  66.1446533  20.6805916  84.7555847   5.5462055  46.4489899  17.6321697
   5.2819672  45.8057747  16.9743805   5.9073939  47.1758842  17.1248226
  60.1092110  57.8771400  35.2631187  59.7529564  58.3372116  36.0231514
  60.2751541  58.5676117  34.6212921  51.9286804  20.2845478  62.1141853
  51.9323654  20.7806358  62.9327927  52.6369629  19.6488113  62.2161980
   1.2372512  64.6684494  62.4960518   0.6996821  65.1269073  63.1418610
   2.1177151  64.6718216  62.8715553  60.9104805  49.2833290  51.0507469
  60.1232834  49.0754929  51.5540962  60.5987244  49.8410072  50.3379822
  79.0754013  17.3394260  29.0910835  78.8597488  17.1237736  28.1837692
  78.2287369  17.5057774  29.5054665  60.7146988  13.3110266  50.2096939
  61.5982704  13.5626326  50.4784393  60.8084145  12.4144115  49.8879318
  84.9514771  52.1495171   7.9996219  84.2741470  52.7924957   8.2094593
  84.8704758  52.0158157   7.0552735  38.3963585  59.3414192  38.4433937
  38.4287987  59.3157158  39.3997002  38.5262451  58.4319038  38.1748047
  41.3222885  21.7085323  61.3863564  40.7756577  22.4234142  61.0602112
  42.1053391  21.7357407  60.8365173  66.7642059  22.3424015   9.0207748
  67.5422897  22.4725876   9.5628719  66.3221207  21.5895424   9.4131956
  38.2008095  63.6528282  52.9350281  38.3525238  63.4382629  52.0146065
  37.7283783  62.8963623  53.2825851  75.0584259  66.1172028  38.2366142
  75.7272415  66.3642654  38.8752747  75.0521774  65.1601868  38.2544022
  25.5113182  21.7637196   7.1374855  25.6544514  22.5962391   7.5876594
  26.1983089  21.7301922   6.4717889  56.7491112  13.2704382  29.2935600
  57.6483917  13.2175922  28.9699383  56.3716621  12.4139719  29.0929871
  49.7556496  20.5630283  60.7205429  50.5669174  20.8090115  61.1650238
  49.2572899  21.3782482  60.6631966  36.1244850  34.0649338  68.9066849
  36.0401726  35.0183105  68.9206390  36.2282219  33.8201752  69.8262253
  33.0561409  59.6037292  22.8441391  32.1987534  60.0096741  22.7163544
  32.8734207  58.8126450  23.3511219  14.7832060  48.2053680  65.9363174
  14.2554722  48.1171799  66.7300110  14.7322941  47.3458672  65.5181122
   2.1307094  65.9857635   2.3834503   2.0072908  65.8445358   3.3220952
   1.9558519  65.1319046   1.9877411   3.4265230  27.9949017  84.2088547
   4.3776388  27.8923988  84.1756287   3.2609766  28.8344707  83.7799606
   8.0798168   7.1371098  76.1992569   7.4374676   7.8449526  76.1484833
   8.4926720   7.1259389  75.3357468  41.9980354  34.6498260  74.6363373
  41.9238434  35.5957642  74.5101242  41.7377090  34.5084915  75.5465546
  35.1315651  33.8872375  83.2041397  34.3761330  34.1078491  82.6592712
  35.6604500  33.3069077  82.6566620  54.0848656  69.2526093  87.2078552
  54.4583893  68.8325653  87.9826355  54.6100311  68.9215393  86.4792786
  13.1113701  64.7587128  77.8615875  12.2917347  65.2511978  77.8182068
  13.5471239  65.0876617  78.6478119  70.3343277  27.0848389  46.7746048
  70.1861801  27.3488045  47.6826820  70.7812195  27.8324986  46.3777084
  63.6688461  14.4456120  25.1975174  62.7477722  14.4521523  25.4579220
  63.9667435  15.3426971  25.3482723  59.2906456  45.9481468  88.2180405
  59.0872879  46.7012291  88.7727890  59.4565468  45.2346458  88.8341751
  61.6075592  59.2387466  61.9680061  60.7147636  59.2782860  62.3109131
  61.6605644  59.9703636  61.3530655   5.3197083  21.4917793  72.2223511
   5.5044498  21.7654991  73.1207809   4.5974298  20.8691635  72.3053818
  84.2718430  61.9038963   2.5441637  84.8667831  61.1790771   2.3520370
  84.7318573  62.4229164   3.2038865  73.0503235  33.0015640  43.6663666
  72.5523148  32.1882858  43.7488060  72.9389343  33.2588921  42.7511559
  61.2573776   3.0407674  25.7392311  61.5080185   2.3318052  25.1469593
  61.9061508   3.7263591  25.5801983  79.8079910  51.4638405   9.8112307
  79.1500473  51.2913361   9.1377439  79.6936722  50.7554588  10.4447613
  64.1246719  26.7897091  18.0107040  64.4120102  27.3212757  18.7530708
  64.9362946  26.4696598  17.6169128  50.5884552  33.4596634  72.9452133
  50.4165649  33.4151955  72.0046234  51.4887352  33.7784348  73.0093536
  53.7430115  24.3261261   1.0123174  53.3798294  25.0314293   1.5479293
  53.5648422  23.5296001   1.5123512  71.6711197  50.4124680  57.1275787
  71.5496674  49.8043938  56.3983841  70.8443680  50.3776474  57.6087189
  79.3573608  15.3753986  48.7891846  79.6397552  14.8645096  48.0305824
  78.5990524  15.8689327  48.4767380   1.1593435  70.7232742   9.4567080
   1.2738085  70.8867188  10.3928776   1.8609849  71.2225952   9.0388479
  84.4122009  56.9011917  39.0412292  84.2300339  57.0756645  39.9645958
  84.5970764  57.7624474  38.6666756  27.0379810  67.7565918  86.7044296
  27.4083366  68.2940979  86.0043182  27.6359501  67.8785477  87.4418488
  62.1664009  54.5487022  31.2838383  62.2189827  54.2777214  30.3673038
  63.0020943  54.2759247  31.6625690  63.1948090  56.8272667  76.9681015
  62.6105843  57.3459358  76.4150162  63.9996834  56.7462044  76.4563980
   1.9385998  60.3400536  69.0185776   1.5965520  59.4652748  68.8341827
   1.2034962  60.9269333  68.8413086  65.1275177  33.6717377  17.2306976
  64.8696747  32.7721519  17.4319401  65.9495850  33.5830765  16.7484322
  68.8428650   8.2259703   9.6890917  69.1597595   7.8719745  10.5200510
  69.6088257   8.2121944   9.1152115  77.6462097  18.3869858  63.3403740
  77.4880600  19.2665691  62.9975128  78.4621277  18.1104298  62.9232063
  67.8126678  25.7562447  19.2363987  68.5615692  25.1610394  19.2697544
  67.2207336  25.4347477  19.9164581  47.9119873  60.9547501  22.7959175
  47.6265755  61.4075432  23.5894852  48.7303162  61.3883514  22.5539303
  76.8365479  33.1537552  73.1186295  76.3012085  33.2986145  72.3384628
  76.9551926  32.2046280  73.1548462  62.4881134  37.6854324  43.6258240
  62.6970482  37.1660500  42.8494110  61.6003914  38.0065117  43.4674301
  58.5623627  37.1762199  41.1643219  58.9386024  37.1372032  40.2850304
  57.7122536  36.7443466  41.0804672  48.9247932   2.7646401  85.3640442
  48.3181343   3.4243419  85.0279007  49.5157471   3.2527220  85.9374390
  68.2926865   1.9446584  64.9318771  67.6131516   2.5811062  64.7096252
  67.8410187   1.2867836  65.4604874   7.5362105  22.9294567  64.1502304
   8.2607155  23.4091206  64.5517883   7.8790293  22.6421509  63.3039665
  41.8562012  53.6169395  32.7046700  42.8073540  53.6938171  32.7796822
  41.6119423  54.2834053  32.0624962  38.0983772  52.3904572  44.9073944
  37.9730911  51.8297081  45.6729660  38.1182022  53.2792549  45.2621841
  43.9038849  48.8649368  13.6021624  44.0648842  49.8008118  13.4819632
  43.2255516  48.6542549  12.9605169   1.9776249  13.8137646  24.6590137
   2.4465721  14.5875196  24.9714603   1.4034287  14.1444159  23.9682178
  43.9645996  49.6114311  88.3972778  43.7223015  50.0818520  89.1949158
  43.3108482  49.8811226  87.7522125  25.4710579   1.9823822  78.4505920
  24.8797226   2.7343760  78.4180603  26.3048248   2.3189514  78.1222839
  66.9776077  33.0759850  51.1730537  66.2678299  32.9101028  50.5526276
  66.8668594  32.4065933  51.8482437  67.0623398  10.7251158  72.3663254
  68.0143967  10.6270981  72.3514404  66.9094696  11.6236153  72.0738144
  72.6485519  38.2899513  58.9049988  72.5282822  38.7725449  58.0871544
  72.7656937  37.3802299  58.6312828  67.9092484  65.8739395  39.8407173
  67.1515350  65.7260284  39.2748413  68.5447693  66.3175278  39.2789497
  64.6454010  67.1791458  79.7638474  65.4050598  67.5812912  79.3426285
  64.4768524  66.3892975  79.2500763  10.8292503   2.5642383  20.4098415
  11.2788572   2.7498994  21.2342300   9.9348030   2.8751762  20.5495338
   2.2863984   4.8959308  29.2324600   3.1440151   5.1806221  29.5481758
   2.3678663   3.9465950  29.1410465  17.8773727  65.1302948  73.7529831
  17.0036793  64.7404480  73.7228241  17.8712406  65.6710052  74.5428085
  20.4275570  62.6223946  52.5176048  21.3578072  62.5258904  52.7214546
  19.9918308  61.9793129  53.0769081  82.4408798   1.8364779  71.5073242
  83.1059494   2.3936379  71.1029968  82.0860443   2.3665032  72.2210464
   7.6698589  62.7625084  47.3532562   7.5247974  62.9359322  46.4231415
   7.4534674  61.8363075  47.4607964  42.9047432  25.0375862  21.7209358
  42.2850037  25.0671520  20.9920464  43.6649399  24.5734978  21.3702869
  81.3600616  53.6692848  67.6002426  80.8671188  53.7376328  66.7825851
  81.1453552  52.7995262  67.9373703  38.3087044  54.7776947  64.2562561
  37.5586700  54.6977463  63.6669426  38.4631729  53.8865166  64.5695877
  23.9455051  41.0240211  50.7165604  24.3358765  41.5694084  51.3994904
  23.3222332  41.6015816  50.2758904  75.8319626  35.4039192  81.6361465
  75.0859985  34.9378548  81.2585831  76.4344940  34.7114792  81.9076538
  84.9155045  64.7778473  74.0771561  85.6414413  65.2218475  74.5154724
  84.4150162  65.4837570  73.6679688   4.1958899  44.1092415  82.1591568
   3.8887064  43.4382210  82.7687531   3.4543393  44.7075996  82.0680389
  27.7442989   7.3937058   1.6023246  27.8090076   8.2715425   1.2262290
  26.8257046   7.3097992   1.8580115  85.5485306  44.7195473  39.3241539
  85.3343811  44.1982384  40.0978546  86.3054276  45.2420349  39.5893822
  69.4445496  63.4000092  65.2810974  69.8085938  62.6849442  64.7591934
  70.0974731  63.5548019  65.9637146  62.6757584  58.2425194   8.1701555
  61.9921379  57.8442535   8.7089348  63.2845345  57.5266838   7.9879317
  72.7413254  64.5068512  51.3288689  72.0092163  63.8908348  51.3008003
  72.3332214  65.3564224  51.4959335  84.3001099  44.8768501  19.3473225
  85.1802444  45.2510490  19.3868065  84.1038132  44.8245621  18.4119263
  67.8073959  53.5233459   2.9023438  66.9520569  53.3891068   3.3105297
  68.3145065  53.9994583   3.5599010   3.1195328  55.0155106  55.7602425
   2.3852434  54.4057198  55.8323708   3.8171828  54.6125298  56.2770767
  62.4773331  22.2078609  58.2063408  61.8918724  21.4505901  58.2097206
  62.4251671  22.5469475  57.3127365  84.6244202  47.1147652  33.4223137
  84.9472122  48.0077934  33.3017273  84.3157959  47.0919075  34.3281059
  77.3768692  63.9190331  26.4736786  78.2999268  63.9658203  26.7226849
  77.3479156  64.2880936  25.5909634  13.6240988  18.5449581  86.3511658
  12.9094200  19.0317726  86.7616272  14.3525629  19.1653576  86.3251877
  37.1915283  64.7880478  64.6694336  36.9380608  63.8710327  64.7746429
  36.5903358  65.2694397  65.2378235  54.5677986  63.3280258  50.0734100
  55.0049973  62.7726555  49.4279251  55.0223579  64.1682739  50.0135231
  56.5716705  39.3029404  50.4123497  56.1838799  39.7917442  49.6864548
  57.5155792  39.3661499  50.2664871  82.0561676   3.8701456  73.2908707
  81.5738373   3.7868383  74.1134567  81.9948807   4.7995801  73.0703583
  66.4490280  19.2931099  64.2598724  67.3502045  19.0130844  64.0995636
  66.1581268  19.6548786  63.4227753  47.7009506  66.9874191  26.2255116
  47.3795013  67.1615906  25.3408833  48.6513939  66.9294434  26.1278934
  58.8404236   7.6559086  65.3152618  59.7573242   7.7394609  65.5770645
  58.8304443   7.9116406  64.3929062   0.3862237   5.2612629  49.0289726
   0.7650646   4.8150392  48.2716103  -0.5192703   5.4385777  48.7742729
  20.3181190  15.9318275  76.4570999  20.6917725  15.4870729  77.2178955
  20.9899521  15.8532057  75.7798386  73.9644699  45.0615921  17.2610321
  74.0713730  45.8786736  17.7480450  74.6970520  45.0523186  16.6450253
  26.8453312  66.7625427  71.3049698  26.7566986  66.1485748  72.0339584
  26.0201054  67.2475052  71.2985916  10.5291891  68.9288101  49.9947777
  10.5111160  68.9346466  49.0377655  10.6269712  68.0053253  50.2268524
  85.0186920  12.1339931  63.9477272  85.8313904  12.0185575  63.4553528
  84.5760117  12.8622446  63.5119400  59.6121674  52.0243874  12.4639969
  58.6852760  51.8692627  12.2822351  59.7400970  52.9547691  12.2789021
  56.3263664  70.1799393  68.1399765  56.7310829  70.4351044  68.9690323
  56.0982208  71.0090866  67.7196274  81.1195450  43.1403427  35.6722298
  80.9364700  43.3016472  34.7466507  80.5673447  42.3920059  35.8987274
  33.3530197  23.7021866   5.2125745  34.3088837  23.7315273   5.1714249
  33.1543427  22.8267307   5.5447440   7.6329050  68.6195068  21.3489685
   8.0834408  68.8423538  20.5343609   7.2532587  69.4462585  21.6466045
  19.9970379  26.9349613  25.5888481  19.9782581  27.1709995  24.6613979
  19.9590645  27.7728615  26.0500584  58.0936775  17.2560921  17.6730614
  57.6337929  16.7880192  16.9761810  58.2135201  18.1410675  17.3285465
  81.2927780  39.1269836  59.9079971  80.7114029  39.6692200  60.4411125
  80.8864136  38.2603645  59.9162483  73.9983673  68.1859818  43.1700363
  74.5390778  68.6317902  42.5180321  74.0351639  67.2625427  42.9207726
  12.9239836  16.2046947  15.8212967  12.1585922  15.8557425  15.3645267
  13.4159250  15.4292440  16.0912991   2.0800259  16.5036469  12.9221678
   2.8583825  16.9812946  13.2089539   2.2791545  16.2382622  12.0243092
   0.5595821  24.4795418  49.6213913  -0.3537565  24.5508194  49.8988152
   0.7581404  23.5455818  49.6886597  77.6840057  42.9746208  18.3220062
  78.3633652  42.7418442  18.9548740  77.3716202  43.8321838  18.6105003
   5.1451669  55.9588928  58.9845085   4.4461317  56.5816689  58.7851753
   5.8238502  56.4870796  59.4047966  63.8015823  41.6016083  47.2183838
  64.3498306  42.1598167  46.6669693  64.1400146  41.7333603  48.1040154
   0.4584249  45.7432861  64.6622238   1.0846857  45.3251228  65.2531281
   0.3554991  45.1205368  63.9426270  66.9562378  20.7910194  49.0173759
  67.5106812  20.8692188  48.2410316  66.0631866  20.8756428  48.6834145
  47.1362343  58.0028954  64.6922913  46.8103561  57.1657257  64.3618622
  47.8677254  58.2201004  64.1143799  14.3036680  43.0530243  43.0762978
  15.1826382  42.7360954  43.2841377  13.8826876  42.3172836  42.6316719
  55.4261398  44.2028313  13.2083158  54.7107010  43.8822937  12.6590996
  56.0875282  44.5068779  12.5867424  30.3063469   9.1686335  14.1009912
  29.5296936   9.1934748  14.6599426  30.4295559  10.0758553  13.8217077
  76.8523560  30.5459557  78.5458450  76.2437668  31.1783314  78.1638107
  76.3586197  30.1379814  79.2571869  65.9442368  59.5232506   6.4824252
  65.0356216  59.8045616   6.5897064  66.4562073  60.1840515   6.9487562
  47.9829559  63.0079765  43.3159370  48.6100845  63.7173691  43.1755600
  48.5182114  62.2686920  43.6043663  70.7991333  51.1272278  70.9414215
  71.1381149  51.5156288  70.1349030  69.8583298  51.3015137  70.9141922
  74.7376785  65.2648926  55.8774796  75.1841125  65.0057068  56.6835556
  73.9359512  65.6947327  56.1752968  50.7692146  49.5594788  30.0936451
  51.0483589  50.3183365  29.5813503  51.5397034  49.3223457  30.6097355
  82.8945541  66.1942520  27.2546043  83.0227356  65.2457962  27.2697334
  82.1106186  66.3215027  26.7202950  66.6816940  70.0486603  62.2039757
  66.2296753  69.6214142  61.4763985  67.5774155  69.7141571  62.1590157
  62.3532143   7.7310505  44.6680679  62.0086250   8.4864368  44.1917496
  61.7778740   7.0078449  44.4186935  37.5645332   0.2699290  72.0760117
  37.0199738   0.2400408  72.8626480  36.9624100   0.0672838  71.3600388
  61.1673088  64.2502060  32.5653687  60.9430122  63.3334312  32.4058495
  60.6898155  64.4783173  33.3629875  70.8283615  28.7491169  57.9099770
  71.4141617  28.0423641  58.1812134  70.2878418  28.9213657  58.6809464
   6.5804029  42.3727493  82.7541580   7.4903946  42.6682205  82.7831802
   6.2007284  42.6855125  83.5752945   7.5922751  48.0649071  86.5780487
   8.0634785  48.3095512  85.7815857   7.1527953  48.8695564  86.8530502
  40.8661270  13.8581696  19.6230659  41.0796738  14.4325781  18.8877544
  39.9104271  13.8050766  19.6158237  28.4214783  29.5583210  86.5018082
  28.9896374  28.9117031  86.0831070  28.7782230  30.4034119  86.2283401
   9.2565737  67.9847641  28.4165611   9.5060005  68.0981369  27.4994106
   9.9844732  68.3614273  28.9110508  33.5204697  28.7030983  45.5265999
  32.8297386  28.1533642  45.1565781  33.5368233  28.4741096  46.4558601
  67.9902496  24.1374226  85.4961700  68.6962967  23.6886997  85.0310059
  67.9405518  23.6928844  86.3424301  54.1099663  39.0950623  66.6110611
  54.3775024  39.7019424  67.3012466  53.1718788  38.9688454  66.7535095
  36.2669678  43.0909653   6.7640243  36.3425331  42.3230438   6.1976142
  37.1715050  43.3255234   6.9714513  42.9021111  17.4993496   0.8493660
  42.6643791  16.7761822   1.4296615  43.3547859  17.0802593   0.1174647
  81.1619797  14.6179914  52.8321991  80.2289658  14.4057779  52.8582230
  81.2102280  15.5237160  53.1380844  12.0069151  55.9905167   4.5068288
  11.6158190  55.3838310   3.8781731  12.9484959  55.8325920   4.4381475
  42.0256996  44.9606667  45.4429245  42.9121513  44.8065834  45.7695618
  41.6828384  44.0861168  45.2589645  52.9177399  51.4458771  71.8366547
  53.8513756  51.2353630  71.8213501  52.6896248  51.4556580  72.7662277
  39.0233879  20.9382534  81.3597794  38.6878586  20.4192600  82.0907364
  39.9415932  20.6788311  81.2834244  58.0057335  15.5183191  37.0670013
  57.3088531  15.9510183  37.5603218  58.8154030  15.8490229  37.4559746
  40.6708717  56.6652565   7.8243241  41.3589859  57.2415047   8.1569967
  40.0573578  57.2538757   7.3845987  56.6268425  55.8715706  36.7466850
  57.4310112  55.8602524  37.2657433  56.7025795  55.1105423  36.1710701
  40.9642067  68.4787674  25.2729435  40.9698792  68.6566391  24.3324318
  41.8847694  68.5253601  25.5310688  82.2353897  61.3202400  55.7348557
  81.3590698  61.4009132  56.1114044  82.5807571  62.2129555  55.7385139
  55.4730492  56.9424706  85.8334122  55.2809982  56.1408730  86.3200226
  55.6699066  56.6425934  84.9459763  85.2412186  12.8148184  32.6994400
  85.1864548  12.4887524  31.8011570  84.7986298  12.1474934  33.2238731
  60.2478180   4.8680077  33.7834625  60.4707451   4.8979597  34.7138596
  60.3491211   3.9472101  33.5424194  82.3046494  36.9273224  11.8998013
  81.7138062  36.5867882  12.5714912  82.9798279  36.2546120  11.8113413
  42.3938484  37.0614929  76.7439346  43.0006561  36.5548668  77.2836990
  41.5315628  36.7004356  76.9496918  10.5905972  44.5232582  84.9445496
  10.9038372  45.4237747  84.8597946  11.1932135  44.1177292  85.5679550
  70.4856033  22.7270832  75.2941971  70.6753311  23.1735325  76.1193771
  69.5595627  22.9069748  75.1319504   2.3435855  47.2784882  66.9196548
   2.7173126  47.8489571  66.2480011   3.0144763  46.6121254  67.0683212
  51.3197060  17.6049252   5.1813726  50.7624092  17.6152477   4.4032063
  52.2030563  17.4621239   4.8414669  58.1606865  70.2767334  86.9214706
  58.6936340  70.8410339  86.3613281  57.3115807  70.7163849  86.9657974
  53.5200615  37.1804886  71.0509567  53.9922943  37.5832825  71.7796478
  54.0931587  37.3073006  70.2948380  23.3230629  54.3265152  60.3794212
  22.6486168  53.7008896  60.6439018  22.8924580  54.8827362  59.7302475
  15.1649618  14.6453476  72.0846558  15.8167753  13.9482689  72.1584930
  14.4986839  14.2889776  71.4970322  31.5912418  18.2639961   7.2422915
  30.8924217  18.9179039   7.2253318  32.3268166  18.7103691   7.6617069
  71.2245331  29.2618656  45.3721085  70.5983810  29.8441620  44.9418831
  72.0003510  29.8050346  45.5110245  71.5679855  28.3109875  70.8687668
  71.8700943  28.4265671  69.9678802  72.3656845  28.1371689  71.3684540
  83.6220398  22.8112240  29.2867298  84.1458588  23.6115360  29.3234959
  82.7591324  23.1030540  28.9927101  85.8851242  48.0436478  61.0964737
  86.3866272  48.8493004  61.2215805  86.4386673  47.3568115  61.4680634
  13.5273600  49.9876099  42.0528603  14.0881128  50.5809097  42.5526428
  12.9339809  49.6134262  42.7041054  50.3476677  22.5691280  49.5918694
  50.0358086  21.7322044  49.2475815  50.6810760  22.3598938  50.4643898
   6.2184448  30.8300323  44.6086578   6.9036169  30.3470249  45.0706902
   5.9822817  30.2655544  43.8725700  24.9910851  66.2857895  30.5946941
  24.3013973  66.0801697  29.9635983  24.7237434  67.1211777  30.9779472
  41.9572449  14.7125826  16.9700279  42.1877747  14.3087578  16.1333599
  41.0555496  15.0111303  16.8514996  76.7261963  30.4508533  29.4928322
  75.8100662  30.2788868  29.2751904  76.6868744  31.0495243  30.2386742
  35.0993042  17.7031231   5.5477414  34.7668724  16.9086552   5.1299562
  35.9140472  17.8949642   5.0833926   3.2032285   0.4205073   8.3565607
   3.7275791   0.7189574   7.6134481   3.6337667   0.8014957   9.1218815
  46.7234230  46.5126877  75.8739243  45.9765358  46.7643509  76.4171143
  47.2607880  45.9637909  76.4450531  14.3437805  44.0527802  56.2369118
  14.8521528  43.2989960  56.5362473  13.4529390  43.7168427  56.1380119
   1.9455069  35.5946121  24.2530136   2.2065380  35.3821640  25.1490936
   1.8858756  36.5498810  24.2410183  25.5342064  47.2022591  73.9759445
  24.9550400  46.5601578  74.3864365  25.3062553  47.1709251  73.0468140
  30.1941128   3.6672060  79.8257980  29.3646126   4.1425953  79.8723450
  30.7760372   4.2482958  79.3359756  75.5199814  61.6678391  39.1201515
  75.0331879  62.3814011  39.5325775  75.0466461  61.4938889  38.3065567
   6.1507268  26.7844372  75.0182953   6.4486098  26.6774693  75.9216537
   6.6911235  27.4937363  74.6703033  34.8599510  44.6493759  55.3339310
  35.5217934  44.3343620  55.9495277  34.6467285  45.5303574  55.6415634
  68.4105606  56.5011406  11.8110094  68.0032578  56.1358986  12.5964594
  69.1888123  56.9553375  12.1339054  29.0132236  45.4644165  45.3474693
  29.2467518  46.3916779  45.3908463  28.2412491  45.4380341  44.7821465
   7.2349076  63.1989365  12.7223158   8.1734734  63.2941513  12.5602694
   6.9878554  62.4087563  12.2418852  33.7574387  54.2250366  37.7728195
  33.5748062  55.1639175  37.8099747  32.9191551  53.8270836  37.5379791
  71.0003357  59.3120384  69.5895920  70.1316910  59.5297737  69.2515488
  70.9282379  58.3979416  69.8642883   8.1082926  43.5209198  25.2654285
   7.7712526  42.6284256  25.3434372   8.2697115  43.6349754  24.3288555
   4.0115600  48.9824448  65.4954071   4.9109650  48.9543762  65.8217697
   4.0722656  48.6561546  64.5975876  77.8544235  48.2747612  82.0928497
  78.2927322  49.0599899  81.7649307  77.9796982  47.6243095  81.4018707
  72.0387573  21.3453941  32.2849693  72.2080688  22.0111752  32.9515266
  71.8794174  20.5433769  32.7825737  11.8460875  52.3626823  31.3475456
  11.3486414  51.8994789  32.0215073  11.3791685  52.1745071  30.5334148
  42.4468079  43.3790474  29.7015839  42.7279320  43.4640617  28.7905540
  42.0753555  42.4985695  29.7564468   1.2051678   7.7391319  24.6943340
   1.3046069   7.0381384  24.0501671   1.8169372   7.5100455  25.3939705
  86.3573303  10.9233847  68.4357986  87.1144257  10.3450813  68.5285950
  86.3305283  11.4163179  69.2558746  22.4441566  43.5750198   0.8757809
  21.5731926  43.4181633   0.5110182  22.3431988  44.3660698   1.4051926
  51.8020058  18.5538445  12.6360912  52.4666519  18.2389088  13.2487049
  51.6027908  17.7949181  12.0878439  54.1509666  14.9379826   8.8171921
  54.0406609  15.8595581   9.0512066  54.2190666  14.9398069   7.8624191
  50.9514999  37.9901772  33.3157196  50.1982956  38.5581360  33.4780159
  51.6922112  38.5913239  33.2369614  46.7808609   8.5673761  73.1970367
  46.9373131   7.6440935  72.9987869  47.0226135   8.6587515  74.1186905
  64.4204483  62.6437912  75.1441040  64.1801224  61.8034210  75.5343018
  63.6072464  62.9703636  74.7590332   0.3648200   1.0765886  42.4051590
   1.1976377   0.6061354  42.4414940  -0.2197508   0.5728140  42.9714775
  48.7494431  27.7487488  39.8308372  48.2862282  27.9477959  39.0171776
  49.3334045  27.0252914  39.6031685  75.1332474  40.5643196  20.8689289
  75.2657394  41.3897324  21.3351612  74.6369324  40.8076439  20.0874577
  64.6157990  38.5205994  46.8306046  64.8249969  38.3323746  45.9157028
  63.8857918  39.1382065  46.7872086   1.0856876  66.2513733  21.1438694
   1.0647005  66.1215897  22.0919991   1.0692766  65.3659744  20.7805080
  82.3016205  36.3330078   7.3909822  81.9627151  35.6288643   7.9437594
  82.1153793  36.0463448   6.4969049  82.3060303  46.1333313  28.7514935
  83.0022125  45.4763947  28.7513504  82.5884476  46.7817421  28.1064854
  85.4412613  10.8342028  30.6007195  84.8735886  11.1493778  29.8974133
  86.2878647  10.6890478  30.1783085  57.9053535  39.6007118  58.6393547
  57.7624969  38.8234444  58.0992813  57.0546303  40.0390663  58.6580086
  49.8208122  68.5147247  72.8678131  48.9762039  68.9624023  72.9174271
  49.8932877  68.0471268  73.6998749  43.6936836  47.0011864  18.2401562
  42.9325981  46.9718170  18.8199100  43.4206276  47.5627747  17.5146980
  79.2769928  48.7452164   9.7948523  79.3876572  47.8583031  10.1374483
  78.3329697  48.8357773   9.6650467  28.2290077  53.0061798  42.2977982
  27.3351021  53.2698708  42.5160484  28.7557659  53.7889633  42.4590836
  46.9349861   8.1774874  78.3894730  47.8434715   8.4223356  78.5653534
  46.6312752   7.7813425  79.2062073  69.9073410  53.6949348  50.1610870
  68.9831009  53.4609489  50.2463608  70.2253113  53.1550522  49.4374466
  44.8094711   8.7509346  81.0424271  44.8785973   7.9375153  81.5422287
  44.2864723   8.5171518  80.2755814  19.5855370  38.8534660  82.8905640
  20.3026619  38.4979706  83.4155197  19.8866558  38.7697678  81.9858170
   2.2532351  48.1383934  49.4458122   3.0895777  48.3598442  49.8553505
   2.2129779  48.6942978  48.6676216  29.1778030  27.8428745  65.0892181
  29.1028976  27.1278095  64.4573135  30.1141586  28.0393391  65.1187134
  72.5964355  34.1364746  41.4230080  71.8610077  33.5888481  41.1482811
  72.4324341  34.9834290  41.0082703  38.1366882  36.0603218  61.7702446
  37.2824173  36.3344383  61.4366074  38.0814247  36.2019844  62.7152901
   7.2111344  20.5680161   2.5684822   6.3477378  20.8965073   2.8192244
   7.8224106  21.2296791   2.8921719  11.8670578   9.4277258  81.7224121
  12.3409052  10.2459259  81.8715668  11.2606297   9.6286736  81.0095978
  32.3386574  52.1807709  10.2836809  32.5791206  52.6338272   9.4755068
  31.4874115  52.5489388  10.5204697  69.4873505  30.3012676  36.8466721
  68.9725189  31.0551167  37.1345711  70.3855209  30.6287594  36.7989769
  60.7515945   7.6441517  15.0442657  59.9253120   8.0797997  15.2533121
  60.5779839   7.1821690  14.2241058  43.3915977  38.7429314  32.5137329
  43.7459793  39.4908524  32.0328369  43.6881790  37.9784126  32.0199890
  21.5043449  58.1962700  65.5739441  22.1152840  57.4867134  65.7727356
  21.5905876  58.8002586  66.3115005  59.2020454  28.5973644   8.9024811
  59.1844101  28.2588997   9.7976694  60.0559883  28.3303986   8.5622644
  75.8110580  30.5178146  49.1597824  76.2389984  31.2810345  48.7717094
  75.0199738  30.8688793  49.5686417  18.4865417  29.7971058  25.3541088
  19.2580547  29.3710918  25.7276192  18.5574913  30.7095699  25.6344795
  70.5673523   6.4911661  11.0348940  71.2427826   6.0080943  11.5109863
  70.7835922   6.3584766  10.1119289  14.2691183   2.3555887  81.2604828
  13.3170872   2.2920671  81.3368607  14.4315901   3.2747617  81.0484543
  46.4234238  21.1084728  63.1984825  45.8831825  21.7713585  62.7684212
  46.7653313  21.5468082  63.9777107  28.4082394  39.7070847  69.5725861
  28.2416992  39.9024010  68.6504440  28.7956696  38.8318214  69.5658493
   7.5026851  35.8564758  68.4797440   7.3197846  36.6544151  68.9758072
   8.4147081  35.6506691  68.6848984  65.4291229   7.4958677  67.6693878
  65.7552261   8.0021877  68.4133835  64.9295731   6.7821178  68.0659332
  68.1399231  46.3847160  57.7601280  68.9460144  45.8974457  57.9304619
  67.7502441  45.9461784  57.0037766   7.8106756  42.1336899  44.4291687
   7.3135910  41.5481262  45.0003548   7.2064977  42.3433838  43.7169685
  86.2371674  38.7175789  66.0470581  85.5761871  38.0750122  66.3048248
  86.5038681  38.4475174  65.1683273  37.0011482  58.2662849  80.9797287
  37.5470390  57.5013123  81.1615295  37.6001968  59.0097198  81.0481110
  66.8545227  33.7757721  36.3099098  67.7262573  33.5216141  36.6127357
  66.9743423  34.6517525  35.9431152  68.1018753  15.1915808  22.0472717
  68.6885376  14.6438112  22.5688171  68.1328964  14.8086128  21.1705704
   2.2367315   5.6755738  81.1302490   2.9578505   6.2061701  81.4689102
   2.4536743   5.5370874  80.2083054  14.7336912  27.1175098   9.0478697
  15.4433746  26.5764675   8.7016697  15.1699333  27.7439232   9.6253929
  64.2921524   5.1528196  11.6203012  64.4788208   5.1080847  10.6825447
  64.5038757   6.0539565  11.8639355   8.3460407  34.3218193  80.9612427
   7.8026266  34.7800751  81.6022873   9.0639238  33.9529572  81.4758453
  59.5880699  62.9897881  80.4198761  59.9457321  62.4188728  81.0998459
  58.6621933  63.0799332  80.6454010  14.9200859  45.2479439  14.5751476
  14.5523434  45.5326576  15.4117699  14.8042202  44.2977829  14.5735388
  66.1972580  37.6979027  28.9495525  65.7856750  36.9043846  28.6072578
  66.9424210  37.3803177  29.4595585  30.6820698  55.4888229  54.0101852
  31.2221813  54.7319946  53.7827568  31.0098667  55.7688675  54.8647957
   8.1389122  68.8930893   2.6651351   8.2918444  68.1362457   2.0994225
   7.2201262  69.1188812   2.5199370  11.4080791  51.2670517  65.2421799
  11.8347902  52.1005058  65.4409256  11.7929802  50.9934654  64.4095688
  69.1847000   4.4255247  20.2209854  69.0136414   5.1496344  20.8231773
  68.3170471   4.0846958  20.0036411  70.1708755   5.9043493  67.7938690
  70.3827133   6.2095847  68.6760178  70.8690948   5.2853203  67.5805054
  45.5401001  60.6873016   9.2419376  45.3685646  61.5924721   8.9821835
  45.1827431  60.1610451   8.5266867  16.0060787  47.3814812  74.7092896
  16.1072197  48.2961197  74.9728012  15.8862629  47.4174805  73.7602997
  72.1354523  68.7953796  88.3036194  71.4504852  68.1336288  88.3992004
  72.1071243  69.2894821  89.1229477  83.0648727  53.9533997  80.5144806
  82.9838333  53.4098282  79.7307739  82.1702347  54.2368050  80.7029572
  34.9800911  46.8478508  40.5498810  35.1476479  46.2565231  39.8160629
  35.1550865  47.7209396  40.1987038  28.4345570   2.7139235  27.8882141
  29.0301189   3.4499197  27.7473354  27.5600300   3.0972195  27.8209915
  32.6292534  35.8379326  15.1401482  33.1991692  35.0689125  15.1462660
  33.1737251  36.5423584  15.4916658  25.7502346  47.7642479  14.8635387
  25.6663799  47.0412445  15.4852018  25.7675648  48.5496101  15.4104767
  54.9959488  22.9397507  56.4117584  55.6245499  22.5781918  55.7869644
  54.6700935  23.7351437  55.9905701  69.7920609   3.7363279   3.0570629
  69.6211319   4.4924259   3.6186044  69.4043198   3.9715044   2.2141047
  82.6573410  56.0519485   8.8108711  82.5710831  56.0230408   9.7637386
  82.2499084  55.2401886   8.5087595  42.0272369   0.2633868  41.5152016
  42.3435631   0.7848838  42.2529030  41.1073990   0.5117492  41.4232788
  67.1805878  16.8237267  26.5557442  67.8722229  17.4013519  26.8785801
  66.3671188  17.2504787  26.8247890  54.0370941   8.5167408  72.7361755
  54.7132492   8.1456289  73.3030319  53.5563202   7.7569690  72.4077988
  70.5304413  62.7173538  20.8015594  70.4107437  61.7908554  20.5929890
  69.7157288  62.9726295  21.2343540  85.1729279  50.9478035  54.9620781
  85.9001160  50.3441124  55.1137009  84.4754486  50.6316376  55.5363541
  31.7778473   5.2787776   1.5519860  32.0280609   6.0734835   1.0807462
  31.0567150   5.5532370   2.1184421  55.3397980  11.3137264   5.4511580
  56.2612839  11.1629753   5.6617956  54.9591713  10.4369268   5.4003825
  52.3528175  18.4110031  75.5479431  52.0345726  18.4816113  76.4479294
  51.7817421  17.7585602  75.1424561  63.8850632  52.1945915  83.7171402
  63.6704865  52.0656548  82.7932587  63.0732880  52.5167732  84.1088638
  25.5532246  63.9844208  86.3570709  25.2068405  63.0921059  86.3521347
  25.6904564  64.1829529  87.2833481  12.6562004  43.6129799  51.4441223
  11.9799023  43.1907082  51.9737816  12.2103834  44.3530235  51.0320320
   7.6615438   6.2315354  82.3206787   6.8452115   5.8882689  82.6839981
   8.0254431   5.5024443  81.8184433  17.8082523  10.1502342  20.3758984
  18.3995018   9.6680403  20.9539509  17.9193611  11.0664082  20.6298885
  56.5038223  14.0123043  33.9170189  56.9600906  13.3847704  34.4776039
  56.8773537  14.8611002  34.1541939  62.9125061  27.4156628  52.8160324
  62.0501785  27.3912659  53.2307930  62.8280869  28.0741901  52.1265030
  79.4078064  51.4981499  37.9035759  79.8243713  52.3237991  37.6565781
  80.1354065  50.8855629  38.0111389  42.7219925  66.2806625  13.1425114
  43.2425613  66.5464020  12.3844719  41.8221207  66.5050812  12.9056587
  13.4116936  15.1144457   0.4351017  12.8367844  15.7492018   0.8626493
  14.0087404  15.6475830  -0.0898102  54.2709198  65.4527588   1.7214680
  54.3640480  64.6088486   1.2794567  55.1383820  65.6295013   2.0854695
  63.9726562  30.4687634  69.0061722  63.9488029  30.7148991  68.0814667
  63.7910080  31.2829838  69.4755096  29.6872711  47.3851509  69.1464386
  30.1004391  47.1083412  68.3285751  30.4089069  47.4393463  69.7729645
   7.9736776  70.5020142  64.0465622   8.4592047  70.7218781  64.8416443
   7.8206234  69.5594177  64.1123352  79.6820755  17.1327953  82.9956207
  80.1672516  17.0907879  83.8196793  79.9543610  17.9604511  82.5992889
  50.2681427  62.2988319  23.2941341  50.6423378  62.7805252  24.0318203
  50.9188309  61.6264343  23.0923462  71.1052094  68.0712051  79.0954514
  72.0122528  67.7880402  79.2108688  71.1740265  68.9393616  78.6982193
  16.8027210  59.6135330  71.2974472  16.9032001  59.5770836  70.3462372
  16.0813427  60.2266197  71.4387741  52.4072800  17.3778267  66.9090881
  52.0680656  17.3847523  67.8041382  52.0081329  16.6059761  66.5076447
  82.0246964  15.6351175  28.1913300  82.5809555  14.9613199  28.5822220
  82.6223526  16.1596928  27.6585503  47.6939659   3.5255404  14.2532988
  47.2577705   3.4093294  13.4092255  47.0342178   3.2756991  14.9002495
   4.0856380  36.4296265   9.4870024   4.1171851  35.5040436   9.7289419
   4.1545424  36.4301109   8.5322857  68.8945847  23.6250000  42.6326561
  69.1038666  24.2852211  43.2933693  68.0512161  23.9028149  42.2751961
  57.0143852   2.5623987   7.4992280  56.5480461   1.7972188   7.8357716
  56.7721786   3.2715578   8.0947618  57.6535873  43.6089249  14.6863947
  58.2110901  43.2625313  13.9896612  56.7697220  43.5858536  14.3196793
  80.3566513   7.2310543  40.8354263  81.0111160   7.0178800  41.5006104
  79.9048538   8.0005226  41.1818771  82.0487900   2.0413346  21.0222473
  82.8045807   1.8956861  20.4532127  82.4169617   2.4344685  21.8135262
  71.9414673  70.3638535  11.0599823  72.0905838  69.6675644  11.6996498
  71.8105545  71.1509018  11.5888071  42.1002808  15.0753193  80.5429153
  41.7494659  14.2922640  80.9671631  41.9586182  15.7762756  81.1791763
  27.5294437  45.6638184  86.6303329  28.0943165  45.9953384  85.9322968
  27.1512794  44.8610420  86.2714844  24.7682610  61.7614937  45.5579262
  25.5225163  61.8890076  44.9825401  24.7016411  60.8119392  45.6586113
  49.3934822  13.0379829   8.9220448  48.9132233  12.2133427   8.9965582
  50.0459099  12.9992208   9.6213770  50.8660545  17.1690617  64.1680527
  50.6967697  16.3207016  64.5777588  51.2178955  16.9521446  63.3046913
  55.2157898   8.4211693  28.3747845  54.7074623   9.2114420  28.1922836
  54.7340813   7.9832764  29.0765266  51.5856552  51.5862617  74.6970139
  52.1118317  50.8294945  74.9552383  51.1002617  51.8215294  75.4877548
  79.0066757   4.7327151  25.8200951  79.5503693   3.9581449  25.6763229
  79.4134064   5.1759996  26.5646114  12.8500118  29.6687927  74.7825851
  12.9430962  28.7553291  74.5121155  11.9070702  29.7910538  74.8927841
   3.9779644  14.3669739  20.3349304   3.1221149  14.7371330  20.1187458
   4.2073531  14.7676849  21.1734066   5.1829848  21.9113007  22.0313110
   5.3802342  22.7682800  21.6532764   5.9411445  21.7114925  22.5804043
  35.9761543  67.8154297  64.2732697  35.1730652  67.7068863  63.7638626
  35.9939728  67.0569153  64.8568573  28.9892273  36.8841057   4.0149322
  29.3026619  36.1602707   3.4726653  29.3473816  36.7046509   4.8842731
  70.4952927  62.4752083  83.4996262  71.3678513  62.5418243  83.1117554
  70.5738983  61.7747307  84.1472244  72.0001068  43.8950119  88.2064133
  71.1841965  43.4685783  88.4684601  72.2694321  43.4304161  87.4140472
  81.0305328  42.9671555  47.0463905  81.3806458  43.8479271  47.1801682
  81.8047256  42.4061928  46.9997597  59.8604889  26.7937069   0.4138215
  60.1021004  27.5820980  -0.0722819  60.2275581  26.9290600   1.2874196
  36.4053497  49.5109100  27.2183628  36.9077263  50.1240654  26.6818085
  37.0284958  48.8181381  27.4374237  33.4838829  41.6359291  59.7665520
  33.3776703  42.0361137  58.9035301  32.9747162  42.1945190  60.3538818
  86.6372528  57.7351189  11.7519131  86.2848969  56.8780556  11.5120916
  86.0023422  58.0894356  12.3744736  15.1143236  69.6297150  19.6981945
  15.3257780  70.4517746  20.1406136  14.8915615  69.0265198  20.4072571
  56.0669937  60.9614449  33.8255157  55.7199326  61.6357651  33.2414970
  55.2991180  60.6285667  34.2900467   8.5159903  26.7015667  88.4956970
   8.2987442  25.7862225  88.6722794   8.6206493  27.0943680  89.3622894
  48.6044731  68.4985352  59.0928268  48.9527283  68.8071442  59.9293175
  47.8989563  67.8982544  59.3339462  70.3169174  45.9970131  84.7512207
  70.2410812  46.2917442  85.6587524  70.9947052  46.5573502  84.3732605
  47.8293991  67.7265396  62.9323883  47.5081787  67.0531082  62.3327675
  47.3675156  68.5223007  62.6684494  28.4743290  68.7829208  84.7675400
  28.4243526  69.5728531  84.2292633  29.3307762  68.8359146  85.1917114
  62.0352898  22.9143372  20.4121895  62.2100105  23.7469044  19.9733982
  61.0948334  22.7766628  20.2989693  68.1961288  29.6641941  39.9351654
  68.1875839  30.1765823  39.1266975  67.5394440  30.0833397  40.4913254
  14.1188211  47.1341858   9.3075600  13.2105551  46.8341675   9.2718573
  14.3916168  46.9651756  10.2093630  13.7886572  64.4896393  87.3134842
  13.1844091  64.5954132  88.0482788  13.4097624  65.0211868  86.6133881
  56.5106468  54.7514381  72.8136749  55.7121925  55.0595207  72.3849640
  56.2068787  54.1008034  73.4466324  74.9893951  15.5136986  88.2431870
  74.2018433  16.0547638  88.3002167  75.2294693  15.3434162  89.1540146
  30.5452385  68.7256927  21.2111378  29.6083832  68.8711777  21.0793457
  30.6389694  67.7733459  21.2330952  38.1304817  21.8191509  68.0687866
  38.2525597  21.7612629  67.1211700  38.6839561  21.1238995  68.4244995
  78.5169449  65.0734177  85.0357666  78.1016693  64.5973587  84.3166351
  77.7890167  65.4807816  85.5052490  41.3540192  18.5513420  83.8185120
  40.6015549  18.0160179  83.5666122  40.9952049  19.4317894  83.9293976
   2.1890655  68.8889160  80.9338913   3.0707064  68.5683670  80.7436600
   2.1216815  68.8525467  81.8880234  23.1333733  70.1764603  25.1785355
  23.5684433  69.3867111  25.4998589  23.8228664  70.8402252  25.1628723
  22.3084888  69.2942505  52.5079498  23.2547588  69.4304199  52.4603920
  22.0348454  69.7832718  53.2839737  51.2295380   3.5678852  11.7440481
  51.3144646   4.5198841  11.6919193  50.8426819   3.4087188  12.6050014
   1.7422539  57.4300690  52.6062813   2.5157654  57.9768448  52.4686203
   1.1621438  57.9672890  53.1458206  77.8882828  13.6525984  35.5986824
  77.0231018  13.9861975  35.3611679  77.8231049  13.4626694  36.5345802
  31.7465649  41.1212120  51.3346977  31.0986347  41.6608162  51.7877388
  32.4941368  41.0926628  51.9318123  53.4907112  71.3789444   2.2933097
  54.1851273  71.8565598   2.7470717  53.6386566  70.4624176   2.5263720
  67.1694641  62.7898598  54.3616219  66.5395355  63.2620392  53.8171272
  68.0136719  62.9399376  53.9361534  63.7743835  69.7627335  85.7617874
  64.5186920  70.2819519  85.4573822  64.1651688  68.9518509  86.0873337
  52.4633141   6.6151242  34.2758064  53.1839981   5.9878111  34.3334770
  52.3727303   6.9582477  35.1647911  79.0792923  39.5265388  33.4161377
  78.6552887  39.0897598  32.6774368  79.6431961  38.8549919  33.7998924
  48.5694771   2.2330029  72.5223389  47.9644051   2.6080413  71.8824387
  49.3812370   2.0974305  72.0335693  68.3313522  19.4788513   0.7810783
  67.3891678  19.5999889   0.6634120  68.7300110  20.0451717   0.1203350
   8.2159233  57.9433022  39.2216492   9.0946589  57.6397362  39.4494705
   8.2974634  58.2592087  38.3217697  72.1812592  14.8601284  31.7651081
  72.3609467  15.7143421  32.1578751  71.5484772  15.0440607  31.0708599
  77.2589874  45.8029861  19.2401180  77.6090698  45.2108383  19.9057255
  76.9877319  46.5797157  19.7293530  26.6857033  63.7401047  30.4888802
  26.1838913  63.9668312  29.7059307  26.5785255  64.4941025  31.0687351
  86.1490326  39.8008003  36.8076515  86.3286133  38.9546242  37.2174911
  85.9399872  39.5869675  35.8983650  56.3919525  68.1588287  56.9025803
  55.4409485  68.2351151  56.9800529  56.7226181  69.0215302  57.1528397
  46.5038986  66.4698486  77.4825287  45.5873528  66.3410645  77.7266388
  46.4661026  66.9365234  76.6476517  11.3059540  62.1655350  56.3562889
  11.8305969  62.9027405  56.0440292  10.5752296  62.1136169  55.7401886
  67.0900497  57.3470345  27.4885902  66.5513382  56.8473129  28.1020203
  67.9105530  57.4975243  27.9580154  82.1879349  70.8536148  72.4403992
  82.5526733  71.5899582  71.9494781  82.7441101  70.7840958  73.2163315
  52.8919525  44.6541138  50.5904808  53.7071152  44.9220314  50.1662598
  52.3677025  44.2757912  49.8846016  62.6288490  34.1807938  44.9531364
  63.4647408  34.4448814  45.3375587  61.9712563  34.6594238  45.4578285
  63.8142128  16.3200817  62.3771286  64.4906998  16.3766651  63.0519600
  63.0542297  15.9544830  62.8298950  59.6110229  16.0776806   3.8579841
  60.5569038  16.1693287   3.9726317  59.3493500  16.8679161   3.3854530
  46.3071747  42.4566879  24.7221985  46.6870193  42.4305115  25.6004162
  46.9130859  42.9971008  24.2151890  69.3111038  40.5580826  73.9315109
  69.5804520  40.5234604  74.8493805  69.8963699  39.9449120  73.4868622
  81.6487961  65.4453964   9.3686247  80.8136826  65.0339661   9.1460409
  81.4827652  65.8898773  10.1999521  12.9270487  48.5441208  37.3408394
  12.0972576  48.4791107  36.8681335  12.6841898  48.4636574  38.2632141
  11.7487278  47.3853455  86.7598877  11.4385233  47.3649788  85.8545761
  12.5251760  47.9445534  86.7345047  18.9880543  64.0439224   0.4985366
  18.7214279  64.3528976  -0.3673023  19.9085350  63.8030853   0.3939251
  69.4013748  10.5736027  18.8368053  70.2665482  10.6550617  18.4354763
  69.4684525   9.7992649  19.3954945   8.9703655  22.5705166  26.7321796
   9.2526827  21.6934586  26.9915924   9.6545029  22.8759251  26.1364346
  36.3507004  58.0629387   6.3648272  35.4612122  58.4008293   6.4690857
  36.5519676  57.6544724   7.2067757  81.2953873  58.6658974  11.1053791
  81.8709183  58.2786026  11.7649231  80.4331055  58.2946930  11.2922382
  78.2517548   8.3559017  22.0988884  77.3293991   8.4616642  22.3319302
  78.4943390   7.5040426  22.4618225  60.5490913  54.5191765  12.5791121
  60.8214531  55.0026093  11.7991476  61.0182953  54.9414902  13.2986479
  56.8813324  46.7317581  50.7845917  55.9514465  46.8702774  50.6047058
  57.2281799  46.3549271  49.9759331  41.8347206  69.3220901  60.7960091
  41.8223457  68.5540009  61.3670692  42.5234146  69.8791733  61.1587639
  86.2171173  19.2157364  24.0873833  85.9177704  19.2933750  23.1815166
  87.0888062  19.6112041  24.0863056  15.7977877  70.7993469  83.0139160
  16.0666046  70.3225479  83.7991791  16.6194878  71.0273590  82.5791168
  78.6415329   5.1693110  57.9651527  78.1968307   4.3781452  57.6609726
  79.2645569   5.3766689  57.2686729  23.3695393  41.2287560  29.0778503
  23.6501389  40.6524773  28.3669357  23.9941292  41.0603561  29.7833710
  11.9459229  24.9835796   9.3484840  12.6940680  25.5698357   9.4616814
  11.1922445  25.4987621   9.6362123  27.5348034  47.8720055  70.6400833
  27.1599503  47.0572739  70.9746475  28.4139023  47.6294861  70.3492203
  79.4372482  19.7265549  32.5254593  79.9869003  18.9684525  32.7239380
  79.8120117  20.4369946  33.0460930  54.4385376  14.2454882   5.9057784
  55.1248779  13.5808887   5.8468323  53.6663208  13.8266897   5.5256162
  68.8148117  36.5144768   7.7407432  68.1541214  36.0140152   7.2619348
  68.4710617  36.5735512   8.6321354  21.3492489  19.5679626   8.3256836
  20.6089687  19.6511002   8.9267712  21.7296314  18.7138901   8.5308695
   9.8518171  70.8992691  52.8290253   9.3923759  70.1549225  52.4403191
   9.3539181  71.1008606  53.6212959  13.0848846  35.3625374   1.7128580
  13.7276115  35.3533440   2.4221177  12.7624798  36.2635994   1.6934578
  35.2221146  48.3101234  36.4166718  35.6898766  48.2099686  35.5875778
  34.4643059  47.7309990  36.3356056  10.3198442   5.5905814  17.7849827
   9.7429733   6.1518736  17.2669067  10.1432638   5.8383346  18.6925468
  70.3185654  19.6805496  62.3192978  71.2452927  19.5610523  62.5269852
  69.8583679  19.4125195  63.1146660  14.4580030  34.0171967  19.5437832
  15.0812511  34.5195541  19.0189686  14.9920406  33.3521500  19.9782352
  32.9094315  53.3488197   2.8035753  32.0174065  53.5998573   3.0433757
  32.7965584  52.6724548   2.1357234  72.4941864  48.2597809  30.7849274
  73.1814575  47.7323112  30.3779202  72.9378815  48.7256584  31.4936771
   8.7410011  19.9980888  76.7708893   9.4414330  20.2807388  76.1828995
   7.9362717  20.1508026  76.2755890   4.3294439   5.6012602  18.7694473
   4.4972706   5.4381127  19.6975899   4.2307525   6.5513277  18.7072830
  26.7456627  59.4206238  20.0809994  27.5182247  59.6237450  19.5536289
  26.2748241  58.7608376  19.5718517  43.7113342  45.3551178  65.7566757
  43.4402962  44.9786263  64.9194031  43.6933937  46.3009911  65.6109772
  26.2643013  45.6339455  71.4285355  26.7543144  44.9864845  71.9354019
  26.5614586  45.5075188  70.5274582  84.0619736  27.2794952   1.1466863
  84.7476044  27.1892357   1.8084958  84.0755615  28.2075729   0.9127693
  54.5888023  68.1491699  22.6056805  54.5463448  67.4268494  21.9790363
  54.2193375  68.8964233  22.1352177   4.8271894  51.6896400  20.0223980
   3.9142177  51.4170570  19.9306812   5.0825067  51.3828316  20.8924065
  16.5850773   9.5337849  75.1321487  16.5712051  10.4704638  75.3288040
  16.2121048   9.4680681  74.2530594   0.0301243  59.5871582  53.8639412
   0.7473580  59.8371391  53.2814293  -0.5876619  60.3162918  53.8097458
  45.3290329  68.2568207  56.0827789  44.8936272  68.6820526  56.8215828
  45.8759384  67.5812149  56.4836273   2.8386102   0.8916723  63.5671120
   2.1469088   1.1660504  62.9650345   3.4035151   1.6600462  63.6490631
  51.0643768  40.5760422  63.4523964  51.6083717  40.5984116  62.6651230
  51.4388008  41.2485199  64.0214386  10.9136353   4.0485392  87.0056152
  11.0517168   4.7886543  86.4145203  11.6740189   3.4844339  86.8647842
  54.5494843  43.2556801   3.2727039  53.8750343  43.8203163   3.6502447
  54.4240074  42.4108353   3.7048175  68.9961090   3.8597860  74.6652527
  69.8012238   3.7237582  74.1657333  69.0346451   4.7769184  74.9365768
  26.1177578  53.5924263  81.6089172  26.7701015  54.0542526  82.1355972
  25.7130966  52.9739380  82.2171555  53.9649124  66.2579956  31.7386150
  53.5769424  66.5183182  32.5740471  54.9067497  66.2369843  31.9081230
  58.8241425  14.7323256  39.8978767  58.8566399  15.6331959  40.2197609
  57.9304848  14.4438267  40.0832825   9.4091749   2.7356889  78.8802490
   9.6623268   3.2178559  79.6674347   9.7714233   3.2490091  78.1580963
  59.6422310   8.4651451  57.4370346  59.8806114   8.1125507  58.2944031
  60.2733917   8.0737143  56.8331718  16.3161430  63.1339836  87.3916168
  15.4621754  63.4819870  87.6482620  16.8338604  63.9082870  87.1710510
  22.3432655  61.5134544  84.7446289  22.1944656  60.6000671  84.5000610
  22.9891396  61.4704323  85.4497681  73.3790894  38.4463577   2.2037404
  74.0131531  37.8423843   2.5902812  73.3868179  39.2064095   2.7855427
  62.9240799  59.0560722  59.0850906  62.5910950  58.2723579  58.6478920
  62.8317184  58.8669357  60.0188637  60.3098145  40.8512421  76.8223267
  60.3297577  40.7322159  75.8727646  61.1244164  40.4542465  77.1306381
  61.9633942  68.7736206  72.0953293  62.2792282  68.8640518  71.1962738
  62.5805321  69.2850723  72.6185760  32.4955406  67.6375656  35.0552177
  33.3246574  67.5208817  35.5190926  31.8343887  67.2945557  35.6564331
  72.6124725  61.8401375  47.2377815  73.3285065  61.5695953  47.8125267
  73.0482025  62.1856155  46.4586678  15.0932779  17.3923531  88.4338608
  14.9299545  17.8892403  89.2355194  14.4689131  17.7469540  87.8008804
   1.1929216   4.1942277  44.1130295   0.3056805   3.9278815  43.8720016
   1.4732751   4.7670417  43.3992233   0.1122249  58.1191177  50.0573921
  -0.6197789  57.6152115  49.7017517   0.5815650  57.4986877  50.6150856
  76.1531067  60.5294495  84.5262375  76.2780762  59.7495956  85.0670166
  76.1685028  61.2570496  85.1480026  32.0195274  44.4140701   6.9491196
  31.6730537  43.5884628   6.6106558  32.7135925  44.6524315   6.3345566
  57.5773239  35.2943306  18.0441036  57.9413834  34.6216812  17.4685707
  58.2886047  35.5015182  18.6502247  66.2148590  17.8136063  37.8272629
  66.5787048  17.9281578  36.9493523  66.2569275  16.8700523  37.9827232
  77.5578156  40.4418640  40.5623093  78.4246445  40.2310104  40.2153473
  77.0379257  40.6632309  39.7896881  55.0249977   8.9764309  22.1455364
  55.9814682   8.9518585  22.1737633  54.7884865   8.3329906  21.4774971
  78.5047913  63.1344109  31.9774303  77.8942947  63.2376251  32.7074127
  78.0291595  63.4709778  31.2180042  69.5252304  64.1193466   6.5856161
  69.6779175  65.0475922   6.4087477  69.5732117  63.7007103   5.7261567
  25.9235859  46.4027328  67.6461945  25.4493332  45.5907173  67.4674606
  26.6067257  46.1494331  68.2669983  77.5364914  42.9704704  41.3925629
  78.4782944  43.1414528  41.3902779  77.4599380  42.0480461  41.1486282
  68.0380707  32.2860184  38.4413567  68.6231918  32.8585625  38.9373970
  67.1595764  32.5332527  38.7300720  38.7944527  66.3059540  53.0953903
  39.6865234  66.3253860  53.4418945  38.6051788  65.3756485  52.9731979
   6.8240123  33.6223488  59.2553864   7.5337539  33.9871025  58.7267532
   6.1600976  33.3609390  58.6173325  75.2285156   4.4456615  73.4949036
  76.1321793   4.5066662  73.1852188  74.9204178   5.3517060  73.5146561
  85.8793259  14.1419296  43.0836372  85.7758408  13.2059336  43.2551994
  86.4267273  14.1826086  42.2994614  58.9638863   5.0179672  54.6637650
  59.5912361   5.7187743  54.4861870  58.9481316   4.9467740  55.6181870
  13.1358538  44.5242538   7.3653145  13.4885979  44.0147820   6.6357670
  12.1975117  44.3353424   7.3577919  38.7057724  52.2362061  65.4216080
  39.1423225  52.7344131  66.1125793  38.8305664  51.3205757  65.6711578
  54.5387421  36.1319466  36.4684830  54.8927727  35.8501778  35.6249771
  53.6115913  35.8971901  36.4295578  39.7186203  48.7217293  21.5920811
  39.9541855  47.9967537  22.1710033  40.3310852  49.4205055  21.8219204
  42.7714424  39.5386238   4.8614874  43.6679420  39.5745468   4.5279822
  42.6090546  38.6073990   5.0121040  71.8584290  63.4344444  79.1451645
  71.8019867  64.1431503  78.5042419  70.9489822  63.1804657  79.3021164
  38.4022636  44.7198524  35.1407166  38.6659737  44.2068520  35.9046021
  38.3546066  44.0819435  34.4286499  75.6611862  17.5652752  53.0568886
  74.7888489  17.3094635  53.3565826  75.6744919  17.3294029  52.1292992
  31.7532501  17.5058784  71.2708511  31.5690041  16.9679852  72.0408936
  32.6986771  17.6523323  71.3016434  73.5251999  39.1035004  49.2778625
  74.2215500  38.8450012  48.6741219  73.6200638  38.5086021  50.0217247
  19.3155708  49.5089378  13.1097631  19.2805481  50.4183693  12.8132200
  18.5327339  49.1046982  12.7356138  11.5422115   8.4897041  56.9222260
  12.4583712   8.2414007  56.7988243  11.3583813   9.0927124  56.2019348
  84.6603928  46.1359901  59.2859459  84.7446442  46.8642807  59.9013519
  84.7711182  45.3528366  59.8250580  78.1320419  44.2095146  54.8803368
  77.4495850  43.5595169  54.7130318  78.8371506  43.9774551  54.2760162
  80.7952347  67.1285324   6.9202414  81.2444458  67.3106766   7.7456298
  80.9153366  67.9240112   6.4015722  48.7499886  10.2973871  11.2145758
  49.6300392  10.6625204  11.1228056  48.4994125  10.0497637  10.3245621
  60.6089668  50.3024178  14.5064192  60.3392143  50.8122520  13.7425261
  61.5633888  50.3744240  14.5175648  60.7748947  62.2571297   1.1718704
  61.3012466  61.4785690   0.9901364  59.8834534  61.9245186   1.2764639
  26.3998756  48.9963264  61.8342590  26.6575336  49.7346725  62.3862457
  25.8313141  49.3823547  61.1679611  48.0774498  37.3059311  32.0048180
  47.8064270  37.4529915  31.0986423  48.4031372  36.4058914  32.0143433
  62.2384987  34.2880287   6.7165732  62.9364624  33.6916580   6.9875355
  61.5591583  33.7155037   6.3602834  70.0953827  64.6578903  49.5571442
  70.8062820  65.2918930  49.4628448  70.2076797  64.0603943  48.8178139
  22.5354614  14.6603956  87.8793030  22.1717415  14.6785059  88.7645187
  21.9870949  14.0333052  87.4078293   3.4416099  67.8828888  53.0130768
   2.5981655  67.5989304  52.6606560   3.2689576  68.0540771  53.9388847
  43.0160027  53.9488182   9.9677382  42.9770660  53.0020485  10.1031895
  42.2912064  54.2952385  10.4882174  26.9847622  55.2555008  63.8795471
  27.7353020  54.8369255  64.3011169  27.3639679  55.7545357  63.1560860
  53.8121490   4.9560146  61.1569901  54.2876282   4.4964414  61.8490448
  54.4662704   5.1027484  60.4737434  24.3283978  34.4571495  12.4892712
  23.4034023  34.6409874  12.3255100  24.7950802  34.9713516  11.8304586
  71.4892502  61.0949974  12.8868837  71.3866119  61.9400253  13.3246298
  72.0414505  60.5841484  13.4787741   0.9196321   2.9900575  37.1968155
   0.0122847   3.2873611  37.2643661   1.1001087   2.5777779  38.0416145
  53.1773720  35.3955727  49.5235023  53.4326134  35.4486313  50.4445152
  52.2319069  35.2477264  49.5451126  84.4970016  31.4234676  23.5329285
  84.7708893  30.6590195  24.0397167  83.5835342  31.2469063  23.3079014
  51.5013504  52.3073273  79.6992874  51.3354568  52.0070801  78.8056641
  52.4307785  52.5361061  79.7064362  80.3382492  48.1284904  32.7844353
  79.5416183  48.1835060  33.3122482  80.8653336  48.8755875  33.0677338
  30.5310173  43.2342072  72.5233307  30.7499733  43.3883247  73.4423141
  30.8157368  42.3356476  72.3567123  39.3119202  16.3088341  69.2500153
  39.0498695  16.0817375  70.1421967  38.8347435  15.6913509  68.6957169
  30.9573975  25.6989994   4.2466254  31.2667885  26.5428543   4.5758944
  31.6790257  25.0947475   4.4208732  58.2538033  46.3408775  71.9214020
  58.5073051  45.4812584  71.5852127  57.9384460  46.1676788  72.8084106
  22.7912903  49.1041603  42.1201744  22.7891445  48.2078781  42.4561958
  22.9711246  49.6472359  42.8876114  58.0630264   8.9066572  81.5055771
  58.5668564   8.1243362  81.2811661  58.6367607   9.6362915  81.2717133
  58.1769295  57.6144371  25.5035095  57.4291382  57.7620316  24.9244995
  58.6489449  56.8839912  25.1036568  57.7258224  44.0949745  62.0896912
  57.7785721  44.8782845  62.6373024  57.8427544  43.3673706  62.7005501
  74.9401855  52.6960907   7.4243116  74.6657562  53.5015221   6.9859037
  74.3925400  52.0136375   7.0362711  17.0281582  31.3387718  69.8625259
  17.5899372  32.0960922  69.6978989  17.1248016  30.7944870  69.0810852
   6.4648714  41.4870377  37.2462997   7.2808251  41.7785225  37.6531029
   6.4995842  40.5318413  37.2975273  30.7617359  42.1247940  14.0547342
  30.2872372  42.8842278  14.3928881  31.2453594  42.4610443  13.3002281
  79.9890823  71.3470688  79.4464645  80.7120285  71.2441254  78.8276138
  79.2009048  71.2761230  78.9079742  39.4283218  36.6497459  56.6815147
  39.6058464  36.1575966  57.4830780  39.6666222  36.0500679  55.9745255
  62.0014572  65.8311691  76.5596390  62.0512543  65.1802521  75.8596039
  61.5404587  65.3844757  77.2696915  27.2402420  29.0774651   1.4480020
  26.8718052  29.1936817   2.3237760  26.6856861  29.6141281   0.8817049
  28.0681515  68.2363968  12.6736164  27.5936718  67.5058823  13.0704069
  27.3820496  68.8178177  12.3458214   5.9059763  25.9605427   9.7323399
   6.5801725  25.5288296  10.2570448   5.3915210  25.2417564   9.3650351
  15.2235928  20.0484905   4.5588732  14.3111773  19.9308605   4.2944999
  15.5662003  20.7044506   3.9517746  74.8609314  16.3843880  12.6395273
  75.0410309  16.6799107  13.5319757  75.6839905  15.9937553  12.3459015
  43.2056694  40.7527046  49.3444595  42.2672768  40.5650597  49.3234062
  43.4416885  40.6903305  50.2700043  32.0379639  41.4295959   3.7627094
  31.6204185  40.5711899   3.6918364  32.9742699  41.2479248   3.6817241
  48.8943596  20.4285641  27.9594517  49.5739555  21.0394688  28.2443619
  48.7046089  19.9021721  28.7360725  30.4096107   8.5214901   6.9411912
  30.9607220   7.7593985   7.1193037  30.4685726   8.6435003   5.9936314
  14.1862545  47.1067886  71.8047104  14.0295458  46.4657402  71.1113586
  13.3613558  47.1423035  72.2889709  59.7329140  52.5354462  53.5661049
  59.5362129  53.0973663  52.8165817  58.8828812  52.3781242  53.9771156
  38.5866814  61.0136414  84.9596024  38.2303429  61.8878021  85.1180267
  38.4728546  60.5542068  85.7915878  52.1546135  58.7060585  80.2214737
  51.7871666  57.8712502  80.5118332  51.5002670  59.0589943  79.6185608
  53.6383057  19.5343208  47.4917336  54.3713493  19.6618271  46.8895531
  53.7749214  20.1882858  48.1772232  70.3097763  28.3333511  54.6882706
  70.5753174  27.9972935  55.5443001  70.5362701  29.2629795  54.7151451
  12.4869194  31.6054840  30.1392555  11.6473856  31.8363266  29.7416058
  12.2928820  30.8410606  30.6816921  42.2084160  43.4580383  86.8210526
  41.9966240  44.0603447  87.5342178  42.9327927  43.8796005  86.3586731
   1.0559056  26.5236530  88.8482666   1.7579869  26.6587238  88.2118149
   0.2560228  26.7515945  88.3744888  76.7714767  61.8385315  86.9326401
  77.6973114  62.0616226  86.8362656  76.7689362  60.8978004  87.1094131
  12.9440374  43.9896698  40.0012741  13.5629759  44.7041893  39.8509178
  12.6460428  44.1164856  40.9020233  10.3409395  52.7353439  49.3288841
  11.2434940  52.4340210  49.4329643   9.8065434  51.9924278  49.6094742
  51.5307541  35.2972145  68.9307861  50.6903267  35.7552261  68.9425888
  52.0993576  35.8255806  69.4909286  46.9972420  68.5400162  20.7847366
  47.3421288  68.1349640  21.5804882  46.5519981  67.8271255  20.3267288
  22.8240471  39.3167877  76.0246429  22.8053627  39.8054390  76.8475037
  23.5389004  39.7134018  75.5267334  34.1997414  28.0054417  65.3989944
  34.7352600  28.6358681  65.8806686  34.3241463  27.1792431  65.8660583
  59.6170006  33.2303581   5.8664341  59.8081703  32.2989922   5.7557797
  59.0766830  33.2718658   6.6554608  54.1624031  71.2669830  56.1546707
  54.0521240  70.7358627  55.3660088  53.3970680  71.8417664  56.1652985
  86.3789444  19.9632072  51.2410507  86.7302399  20.7291813  50.7870598
  85.5598679  20.2700233  51.6299019  27.5467796  23.4765415  10.3631458
  26.7003613  23.3216896   9.9438305  28.0766392  22.7171001  10.1207981
  74.4328690  56.3850403  10.7889175  74.3618851  56.4899139  11.7377033
  74.8290024  55.5214806  10.6723719  72.5454483  70.1745911  15.7396717
  72.2798309  71.0938950  15.7161484  71.8976059  69.7241516  15.1977892
  53.4116135  62.2321587  78.6597137  53.7318001  63.1278381  78.5526047
  52.4639206  62.3264580  78.7557297   6.1172423  61.7038574  60.5044670
   6.2465897  62.3828430  59.8422852   5.2935653  61.2829666  60.2582207
  37.0037956   7.6715751  72.9768906  37.3251305   6.7890863  72.7919846
  37.7540970   8.1237297  73.3626862  18.2046661  57.5060501  41.9679871
  18.4126987  58.4378700  42.0362854  18.5620289  57.1215630  42.7684212
   9.1828566  35.7898636  36.3849182   9.6833868  36.0334740  37.1636047
   8.4073925  35.3457336  36.7279015  18.3312988   2.0381958  88.8884583
  17.8780518   2.1907001  88.0592804  17.6290607   1.9562535  89.5337372
  46.8119507  51.3757248  87.1668549  47.4627838  52.0402336  86.9408569
  46.2632599  51.7938042  87.8304672   3.4891136  61.2797241   4.3505864
   3.5475752  60.7985611   3.5251813   2.5656438  61.2230301   4.5959854
  10.3408918  23.6419411  70.5364456  11.1152267  23.3788223  70.0390472
   9.6298590  23.6320381  69.8956909  68.5304794  61.7934303  72.2389069
  68.7626724  62.2979736  73.0184937  67.6098938  61.5646667  72.3670731
  43.2859192   8.5292454  60.7567863  42.4968071   8.9591064  61.0865631
  43.9821091   9.1728125  60.8885918  41.9895439  18.0667953  56.9309044
  42.5893097  18.3312550  56.2333565  41.9674034  17.1112995  56.8782806
  36.4482307  36.6943016  21.0713005  36.3670692  37.2838669  20.3215961
  36.4276619  35.8168678  20.6893158  42.6976089  25.2956104  48.2059441
  43.5761261  25.0754242  48.5157089  42.3935127  25.9731331  48.8098640
  23.4886417  12.2435980   7.3952260  24.2980595  12.1107464   7.8886080
  22.9239864  12.7373734   7.9898548  -0.2504011  16.2559261   3.0564394
  -0.0740430  16.4095554   3.9846246   0.4740234  15.7032070   2.7632806
  66.3606796  37.3806572   2.9537077  67.1697083  36.8965340   2.7883718
  66.6526108  38.2600708   3.1937935  60.6046371  52.5057945  32.3710632
  60.1582794  52.9097862  33.1152306  61.2286263  53.1694183  32.0769958
  44.6373520  19.4348907  15.0659018  44.8983307  20.1349430  14.4675312
  44.0180817  19.8508873  15.6656351  45.5121574  16.9132900  43.0065765
  45.1853752  17.7758579  43.2623482  46.4605904  17.0257206  42.9428177
  39.4938660  34.3717155   9.0605078  39.4110641  34.4502258   8.1101332
  39.6500740  35.2666435   9.3620605  38.4325752  57.7292557  75.0039749
  39.2532120  57.2944870  75.2358475  38.5357132  57.9586830  74.0804214
  85.2823334  32.5518646  12.6311293  84.3996964  32.6733894  12.9810009
  85.2704773  31.6734314  12.2510672   3.5931416  32.2512741  78.0985184
   4.5107107  32.4554939  78.2790604   3.4701443  32.4928513  77.1805115
  66.0898895  52.6390305  42.6158104  65.8605118  53.4952660  42.9770279
  66.9341354  52.4290237  43.0150299  31.5893555  48.6533432  37.1751938
  31.1028728  48.6716805  36.3510399  31.8198681  47.7323074  37.2968102
  77.3277893  20.7999954  84.2115097  77.9519730  21.4915276  83.9915009
  77.2050705  20.8801804  85.1574173  65.7045212  21.5170345  19.3703213
  65.5456543  21.5262871  18.4264431  65.5450592  22.4188099  19.6488953
   7.3566999  29.4304981  69.4021912   7.2155457  29.9143677  70.2159348
   7.5879469  28.5461979  69.6863937   9.4073591  20.5912571  20.8626842
   9.8026142  19.9755459  20.2455082   9.8510056  20.4164600  21.6926575
  47.7351608  16.0989342  78.7987137  47.1405563  16.5086899  79.4270248
  48.1690140  15.4058800  79.2963791  59.8651543  20.2294807  13.6301546
  59.4598045  19.4699383  13.2118053  60.6310196  19.8741684  14.0811930
  10.5354252  34.1152649  77.4558029  10.5645056  34.1451111  76.4995117
   9.6595840  33.7866516  77.6586533  86.1397171  31.0806618  84.4885254
  86.1038513  31.8755550  83.9564667  86.9893341  30.6916752  84.2810135
  86.1030807  14.7266893  69.5562515  86.4420395  15.3406420  70.2077179
  85.7677536  13.9924679  70.0707474  82.5010223  27.6898499  53.2651596
  83.1952744  27.1291447  53.6113586  81.7944870  27.0847015  53.0396881
   3.5336933  65.0996399  74.4157867   2.8778381  64.6613159  73.8736115
   3.1919355  65.0313187  75.3072815  38.0681534  18.5852909  16.5223122
  38.5946045  18.3740005  15.7513161  37.5941048  17.7769527  16.7175007
  51.8999214  60.8232918  50.9363480  51.7611923  59.9956741  51.3968201
  52.3083725  61.3939972  51.5872650  11.7305374  44.7405777  10.6913977
  11.2673140  45.4142570  10.1935873  11.3900738  44.8243217  11.5820732
  33.3272362  24.2342930  14.4746532  33.0152359  25.1138039  14.2616968
  32.5312080  23.7064362  14.5374193  24.4248714  41.3833809  19.5463409
  24.9474411  41.4723206  18.7493210  23.7528210  40.7399139  19.3215523
   3.3824475  65.5593872  60.0620995   2.6890180  64.9409409  60.2921295
   3.8684430  65.6881332  60.8766327  65.5442200  46.0014000  16.6648426
  66.0060043  45.6997299  17.4471340  66.0663681  46.7383118  16.3477306
  72.4876862  44.8234100  53.1582985  71.6247864  44.7979240  52.7448006
  72.9547729  45.5187988  52.6951523  33.5210762  23.3641529   2.2559919
  32.7502365  23.8100491   1.9049724  33.4595299  23.4891090   3.2030029
  75.7927856   1.8489497  42.9073067  75.7560043   1.6982671  41.9627571
  76.1094818   1.0215331  43.2696877   9.4160604  65.5501556  61.2482033
   8.5984726  65.0568619  61.3148918   9.8374023  65.2098770  60.4589577
  63.2899208  57.0960617  44.8794327  63.5830498  56.7388077  45.7176933
  63.4706078  58.0339355  44.9424629  61.3564339  23.0355778  29.2901669
  60.5913162  23.0205822  29.8651466  61.0426559  23.4465008  28.4846134
  15.1608410  35.4794846   3.3714793  15.3183365  35.9467316   4.1919098
  16.0024033  35.0749435   3.1608794  18.6820984  51.2951088  23.9767666
  18.3471298  50.4000969  23.9222050  19.5850601  51.1949425  24.2781925
  78.8540039  39.9679527  67.3055344  78.5499420  40.8239594  67.0038223
  79.5278473  40.1684380  67.9551239  81.2996674  28.5285282  30.4416389
  80.8639679  27.7006397  30.2391586  81.8536758  28.3292980  31.1963692
  54.9804611  52.8234215   2.2543504  54.8648224  52.6370468   1.3226194
  54.7788162  53.7553024   2.3390305  83.7240524  24.2885723  35.0830879
  83.6801910  24.9212093  34.3660965  84.6298447  24.3356285  35.3889542
  84.7823563   5.8595896  86.8490753  84.7408447   4.9096408  86.9591064
  83.8991699   6.1079001  86.5760345  51.0161362  37.8747330  47.1515007
  50.2437897  38.1949463  47.6175232  51.7471733  38.0677032  47.7385101
  51.5225372  28.0981178  22.0281963  51.0408134  28.6827202  21.4430370
  52.0173073  27.5262432  21.4413471   6.7440906  21.1690121  57.1318970
   6.5633454  21.9280071  57.6864128   7.6984644  21.0955334  57.1301079
  52.6896591  59.2122459  69.8246613  53.6446648  59.1474686  69.8242645
  52.4277840  58.8854027  70.6853790  42.1690140  71.1978836  75.1979904
  41.5079880  70.7401047  75.7173309  41.8570595  72.1018600  75.1563110
  54.9980888  24.5974617  79.9695358  54.9055367  24.8623238  80.8846970
  54.4322319  25.2003632  79.4873047   7.5480361  20.3374634  60.2607155
   7.6419921  19.4436417  59.9313393   7.2783723  20.8471546  59.4966965
   9.3921041  45.4942741  26.7468662   8.8712673  44.9527397  26.1538200
   9.0395412  46.3773346  26.6367264  85.7041397  30.7070446  61.3495445
  86.5603485  31.0210133  61.6403618  85.1254578  31.4630299  61.4487572
  58.7728195   6.1951666  18.7906361  58.5706940   5.2991414  18.5213451
  57.9511375   6.5278678  19.1517124  20.9334774  31.0285091  77.4449539
  20.3520317  31.6731873  77.8481216  20.5955734  30.1831760  77.7406998
  25.2696457  54.5658684   6.8592267  25.8992653  55.1862907   7.2264948
  25.7045078  53.7157364   6.9256144  24.6592770  29.6548710   4.4357319
  24.4737301  28.7661095   4.7388930  24.3859844  30.2171307   5.1605811
  81.4121704  46.5741119  81.7736435  82.1291656  45.9569817  81.6277084
  81.5830154  46.9387550  82.6420212   8.1292133   9.4175501  24.2318478
   7.6288805   8.6039867  24.2952042   8.9094553   9.1804743  23.7306023
  21.0365639  38.5238876   4.0773535  20.5344429  38.7543793   4.8590059
  21.3486805  39.3624382   3.7372804  13.9790754  29.3289490  84.5609665
  14.5663300  28.9604225  83.9010010  13.6686401  30.1479301  84.1747894
  41.2508965  44.9412079  41.0838737  40.4337769  45.3608475  40.8147049
  41.8677483  45.1451073  40.3809166  58.5000000  38.9501381  18.1733322
  59.3498497  39.3844414  18.1000900  58.4003029  38.4779358  17.3467026
  15.0788298   9.1841431  72.8940659  14.3222561   8.6051455  72.9867477
  15.4270391   8.9859381  72.0247574  22.5714016  18.4281845  11.6427279
  22.2148266  19.1589470  12.1477737  21.8013668  17.9390030  11.3529339
  51.9539413  45.2796440  37.7109528  51.6280632  45.1760941  36.8169098
  51.2394066  44.9643250  38.2643509  11.1215487  59.4171867  68.7319794
  10.4480743  59.4124870  69.4121552  11.9354420  59.5984306  69.2020416
  14.4708910   0.7686726  86.7440643  14.1932058   1.5392976  87.2393036
  14.6069794   1.0924461  85.8536224  23.0999985  70.4560165  60.7661095
  22.3325729  70.9751053  60.5256157  23.5638027  70.9963913  61.4057312
  84.9628220  51.1794128  88.7808762  84.8465118  51.7680893  88.0351105
  85.0978470  51.7627373  89.5276871  33.2409935  53.5227470  29.7525330
  33.8631401  53.4088783  30.4710026  33.2489738  52.6828766  29.2934208
  60.2997208  64.5224304   4.7592406  60.3986511  64.8268433   3.8571463
  60.8825455  65.0864258   5.2676253  45.1579666  57.9159279  72.1427536
  46.1071205  58.0007744  72.0525436  44.9349518  57.1485176  71.6158981
  73.3131027  36.9985008  37.7360954  73.7406311  37.1917496  36.9017639
  74.0345459  36.8183632  38.3388405  59.8774796  13.4342928   5.9738846
  59.8513603  13.5039692   6.9281883  59.0823212  12.9520864   5.7470913
  10.4767323  56.1758728  29.0479469  11.4205379  56.0498352  29.1458168
  10.2376432  55.6254272  28.3022404  47.4920654  47.3418427  71.1852951
  46.9508972  47.9558258  71.6816788  46.9819717  47.1562386  70.3968887
  77.3036880  46.1519394  75.9986725  76.5491409  45.6441841  76.2971420
  77.6244812  46.5900841  76.7869339  15.1958961  45.2808304  22.8094311
  15.0689592  45.4943352  23.7338428  15.0489149  44.3363075  22.7593918
  38.9751358  14.5276279  87.5101852  38.4730568  14.9418793  86.8083725
  39.8365135  14.9426937  87.4656219  18.9689369  55.1419487  32.4511299
  19.3410568  54.9720268  33.3165131  19.7217484  55.1296082  31.8600693
  79.4598236  24.9798794  41.2226028  80.2474670  24.4601192  41.3829269
  79.6833420  25.5275574  40.4700584  59.3555069  54.4445839  70.6032562
  58.8777504  55.2275505  70.3294830  58.6732216  53.7957802  70.7757874
  21.6986141   9.7906656  77.2630234  21.9979115  10.5762081  76.8052292
  20.7434483   9.8461905  77.2346268  83.1092377  44.4394875  51.9653931
  82.9349365  44.8136292  52.8290329  83.5657654  43.6182022  52.1478653
  33.0968132  70.2062531   6.4537764  33.5649490  69.4450302   6.7967367
  33.5159073  70.9557190   6.8767362  83.9897537   2.4652181   4.1763139
  84.9312363   2.5800128   4.0472207  83.7946777   2.9617260   4.9710836
  34.8067551  36.5582695   6.7922592  35.2807922  36.7038956   7.6109872
  35.1629562  35.7375603   6.4519806  19.4667511  58.7645988  24.5791321
  18.9013348  59.5269775  24.4553871  19.8816681  58.6332245  23.7265968
  65.2515259  19.1006699  55.3633270  64.4312897  19.3497944  55.7892075
  65.0641327  18.2531281  54.9598618  23.8827648  26.2723484   0.8894680
  23.9619904  27.2203407   0.7833225  23.3357601  25.9939804   0.1549419
  10.4074783  15.5653830  14.7115211  10.1128139  16.3088245  15.2375431
  10.1451635  15.7854853  13.8176651  63.8077507  57.8122253  22.8422203
  63.9805984  57.2313385  23.5831165  62.8532791  57.8358727  22.7740002
  16.9741344  52.8578224  79.5567093  17.9220009  52.9065819  79.6808090
  16.7652893  51.9304390  79.6688385  74.8578262   9.7648287   9.6396761
  74.8533096   9.0375986  10.2620487  75.2744751   9.4066925   8.8558578
   5.8834214  49.0504036  55.3240356   5.5914884  49.9619370  55.3346329
   6.7777238  49.0813560  55.6638832  53.3469009  34.8244476  72.9991837
  53.3212051  35.2097206  73.8750534  53.4098587  35.5753822  72.4089584
  43.8935204   6.0213428  63.4441910  44.5588455   5.4335942  63.8021317
  43.0643730   5.5711408  63.6056366  82.5880737  18.7564945  -0.1881353
  83.0959091  18.6665630   0.6182445  81.7592468  18.3163624   0.0004408
  13.8281221  64.6277390  59.9595566  13.9139919  63.6823463  59.8367004
  14.6168318  64.9938736  59.5594177  45.1685944  63.3204231  27.3542347
  45.1000404  62.6104279  27.9925461  44.2691383  63.4669075  27.0613995
  20.1395569   0.8495162   5.5761437  20.6619358   1.2667558   6.2611718
  20.7778454   0.3742827   5.0441909  78.5129623   2.8146641  76.3044586
  78.5699310   2.3104851  75.4927979  77.6331711   3.1915176  76.2910767
  41.5961266   6.3969989  13.0574532  42.5100250   6.3541112  12.7760601
  41.4559937   7.3181596  13.2766743   8.3991795   4.4944711  20.8882732
   8.4377298   4.7795496  21.8012218   7.7427797   3.7978103  20.8824081
  83.9022827  53.7066460  50.7083168  84.5197220  54.4096451  50.5063362
  84.4167862  53.0719109  51.2069473  81.0452347  19.6487179  53.5672951
  81.1203384  19.8704929  52.6391754  80.3465118  20.2159348  53.8933105
  38.9395599  36.6524010  64.4491730  38.1323318  36.8435669  64.9267426
  39.4778290  36.1660347  65.0736313  77.0244141  28.9863491  64.6209717
  76.2741470  29.2244968  64.0763474  77.7876358  29.2242107  64.0945282
  12.7473412  42.8009415   2.0893114  13.2380276  42.5244942   1.3153380
  12.8642759  43.7504578   2.1205089  59.5198746  62.4299088  31.3703556
  59.2568855  62.3809738  32.2894173  59.8881378  61.5670586  31.1803417
   1.6909709  67.2252884   8.0510998   1.9254318  68.1355286   7.8702245
   2.2864277  66.7116013   7.5053959  63.2901230  69.2682037  80.7640228
  63.8053322  68.5715637  80.3572235  63.8979950  70.0039520  80.8375092
  29.5955906  49.5417595  87.6352081  30.3749733  50.0488777  87.4080124
  29.8445473  48.6325760  87.4689636  67.0416336  54.9969444  30.9362888
  66.6933136  54.3945999  30.2789574  67.9517441  55.1366768  30.6747551
  60.5803871  70.7664948  59.4096680  60.5439339  69.8100128  59.4156647
  60.7787170  70.9929352  58.5010300  54.6652946   0.1311527  24.1876411
  54.5235023  -0.4195364  23.4176617  54.3564034   0.9975218  23.9226456
  68.4443054  35.8043976   2.2638557  68.4065323  34.8579903   2.4021175
  69.2540359  36.0773430   2.6952069  24.6246490  37.3722649   0.0890431
  24.4392815  37.7390213   0.9535430  25.0334396  36.5259895   0.2705282
  67.2007370  29.8820534  15.0241461  67.6208115  29.1881275  14.5159817
  67.1468124  29.5293484  15.9123602  48.7846565   9.4329987  63.3798828
  48.5541992   9.8604288  62.5550041  48.3183441   8.5974312  63.3551254
   5.3407187  34.4436646  55.0262909   6.0562835  33.9737816  54.5980263
   4.6275635  33.8066254  55.0689850  77.0000992  28.1875381  84.8882828
  77.9125824  27.9284096  84.7599716  76.7803726  27.8656387  85.7625427
  12.1248465  30.2065201   2.7833550  12.2195883  29.5330505   2.1097879
  12.4758987  31.0001984   2.3795366  77.5097961  69.1248932  19.9374924
  78.4588013  69.2454910  19.9702549  77.1557083  69.8847809  20.3994808
  29.0307541  58.9932938  86.2515717  29.2227345  59.6278877  86.9419785
  28.4387207  59.4561424  85.6586990  16.9881096  28.0349045  19.1127872
  17.1396732  28.4040947  19.9828205  17.7409039  27.4636269  18.9605560
  23.9349556  68.3503647  31.8789635  24.0733070  69.2967911  31.9158401
  22.9994373  68.2383041  32.0477333  11.3977137  64.9325104  27.1353474
  11.9032755  65.0969238  27.9313412  11.4543924  65.7509842  26.6422729
   1.5422204  63.9729691  49.1375999   1.3577306  64.9050140  49.0214806
   1.1977050  63.5601425  48.3456955  30.2092113  34.2006302  84.4354172
  30.0778522  34.0046883  83.5077362  30.1513424  35.1545639  84.4892578
  55.0973167  15.9074678  50.7269669  55.8377266  15.5605841  50.2292747
  55.3867912  15.8779125  51.6388664  63.7680893  64.6801682  16.2062473
  63.8814507  64.1211243  15.4375792  62.9107933  65.0873795  16.0819111
  53.8146362  42.1456413  34.6506081  54.0760040  42.9138222  34.1428566
  53.6896667  42.4774055  35.5397339  14.8434629  62.4631577  49.8013153
  14.5373325  61.5590935  49.8733215  15.7805481  62.3851852  49.6223640
  57.2371216  30.7716255  33.1978683  57.1339951  29.8376980  33.0151787
  56.5741119  31.1967316  32.6538696  48.8314247  12.6973515  77.2541733
  49.3451233  12.2216482  77.9068985  47.9297256  12.6389513  77.5700226
  51.0398369  38.0003662  29.7237797  50.5312996  38.7791061  29.4975414
  50.6489105  37.6877060  30.5396538  37.4358635  42.4278374  42.3581200
  37.6086922  42.9064522  43.1688538  38.1585846  41.8039780  42.2895622
  40.7010117  19.2113895   0.6301459  40.5436325  19.4705811  -0.2777545
  41.4595032  18.6292515   0.5849906   0.1525654  56.0456390  57.9108315
   0.1600670  56.7192345  57.2307968  -0.0783968  55.2403679  57.4477692
  60.8082695  20.8495197  33.2080002  60.3146400  21.4551697  33.7609482
  61.6075287  21.3264599  32.9845085  85.5902023   1.6658181  51.0403519
  86.1766357   2.4108181  51.1719055  85.5613556   1.2303603  51.8922768
  20.0151539  62.0614891  58.2049522  20.2919388  61.6989746  57.3634033
  20.2340508  62.9916229  58.1486969  28.6501846  24.3238220   3.2547159
  29.1744347  24.4642086   4.0431862  29.1193676  24.7972240   2.5677016
  75.2041168  35.9750900  72.5884705  74.5214767  36.5367088  72.2212906
  74.7467499  35.4289627  73.2278290  22.5449314  42.9703255  38.4921227
  22.3968353  42.1103363  38.8854675  21.6792583  43.2496910  38.1941338
   8.4049110   4.2513347  10.8882208   9.1484938   3.6486530  10.8787394
   8.7763014   5.0940595  10.6272297  65.0680313  54.7600403  73.5713120
  65.1345520  55.1531105  74.4415436  65.9686127  54.5295601  73.3431320
  25.6321182  27.6925526  80.8332748  24.8476162  28.2409115  80.8427582
  25.8771591  27.6091022  81.7548065  37.6026459  33.5128250  16.7958603
  38.1581039  34.2646484  17.0019035  38.1660728  32.7523766  16.9390583
   1.1369827  32.6686440   2.8185294   1.2114767  32.4311485   1.8942571
   2.0403407  32.8041382   3.1045663  83.5471573  62.9247055  79.0846558
  83.3095093  62.2101135  78.4937973  84.4273529  62.7021065  79.3878708
  57.3386116  51.4337006  61.9436646  58.2433472  51.1607361  62.0958939
  56.9651680  51.5247154  62.8202972  51.8532867  66.8076553  19.3334560
  51.7622948  67.7593307  19.3811340  51.7313232  66.6015244  18.4067059
  42.9231949  18.3501987  79.8289413  42.1602020  18.3959713  79.2527618
  43.6519775  18.1399860  79.2450562  44.3208542  65.7661438  85.2493210
  44.0318413  66.2128448  86.0450363  43.8841057  64.9149551  85.2804108
  62.7879601  16.6358738  68.5130997  61.9393768  17.0147190  68.7424774
  63.2672348  16.6029797  69.3410110  84.5410080  66.8284607  45.1489983
  84.8708038  67.4108734  44.4647026  84.6752014  67.3146667  45.9625244
  69.3018494  12.8536873  55.8065147  69.8698578  12.6097002  55.0757141
  69.4475327  12.1709490  56.4613991  64.0183563  10.5918713  21.9300671
  63.8481445  10.3570395  21.0178661  63.2010231  10.3904982  22.3857479
   4.5523939  59.9233551  83.6734009   3.6066744  59.9768486  83.5356140
   4.9070673  59.6948395  82.8142014  20.4751930  38.9892387  42.8389549
  20.0033035  39.0157776  43.6713295  19.8923931  39.4278870  42.2191429
   1.6137241  40.9902649  35.5125351   1.9182401  40.1793976  35.1051102
   0.8050929  40.7437401  35.9615021  18.9632568  66.7919083  79.3830643
  18.7026596  66.0436707  79.9201584  18.7147331  67.5571060  79.9016571
  13.6371584   0.7556147  77.5089417  13.8993931   0.2318803  76.7518692
  12.7158985   0.5345998  77.6455612  40.1535378  33.7494469  31.2198601
  40.1214371  33.7003632  30.2644577  39.7753601  34.6036263  31.4286461
  24.2261295  58.5581169  25.9853458  24.4703560  58.4349403  25.0680618
  23.2814045  58.4052505  26.0042763  55.8465500  51.0205269  24.6765099
  56.6510582  50.6706238  24.2936707  55.2540092  50.2698288  24.7162952
  76.4690933  11.9152985  31.5967159  76.8659134  12.0843878  30.7422123
  75.6449280  12.4017649  31.5785465  47.4995079  39.3420601  16.5723286
  47.2437973  39.7748604  17.3868999  47.1954613  38.4402122  16.6746044
   6.7980542   1.9262650   3.3239198   6.5517206   2.4204421   4.1058021
   5.9693389   1.7600876   2.8746448  54.7160912  59.5098495  86.2906418
  54.6903343  59.6673126  85.3468399  54.8419113  58.5644836  86.3723984
  74.7739639  44.3905220  64.8083496  73.9428024  43.9284325  64.6993866
  74.6371078  44.9530869  65.5705948  31.0893421  23.4014568  69.1523285
  31.4679184  23.9983158  68.5068283  30.8754692  22.6131935  68.6531982
  44.9996185   9.8471298  84.2238083  45.2625046   9.8997641  83.3049164
  44.4479294  10.6174736  84.3595963  51.2791634  20.2367191   3.2023728
  50.3283119  20.1479473   3.1373293  51.6179276  19.7329903   2.4622872
  34.6760445  59.4701080  67.4054947  34.5230217  58.5963860  67.7652512
  33.8144150  59.7600441  67.1058960  34.1567154  53.9192162  60.5373726
  33.2207909  54.0709114  60.6687737  34.2740059  52.9845161  60.7071075
  10.0341387  52.9733124  52.2327538   9.8678360  52.0652046  52.4855690
   9.1635981  53.3473282  52.0967255  43.7296562  26.3578835  78.1670074
  43.5454140  25.4387760  78.3607254  42.8909111  26.7135696  77.8733749
  76.6508942  67.9288254  22.7171307  76.3492813  68.6944046  23.2061672
  76.6421204  67.2170944  23.3571224  45.6227684   9.8050776   6.5034375
  46.1808434   9.8192730   5.7258887  45.3853264  10.7215519   6.6445990
  52.2659035  63.0500793  40.8313942  52.4740295  63.3630714  39.9510803
  51.5030746  62.4846687  40.7104454  58.4987335   1.0626512  37.9991455
  59.1548004   1.6042114  38.4379234  58.8378525   0.9477301  37.1114388
  65.2030640  45.1875877  83.0737915  65.4118347  45.0959625  82.1441345
  66.0432281  45.3800583  83.4900970  42.3795700  58.8262863  51.9913025
  42.1252899  59.1415329  52.8585930  42.6551933  57.9212379  52.1367416
  63.6874542  62.4856033  26.0596294  64.2343216  61.8008156  25.6746178
  63.3371353  62.0914803  26.8584881  46.9648514  48.8285255  38.8967209
  47.0580444  49.4734306  38.1955452  47.8225288  48.8107567  39.3213387
  81.8542480  33.5150642   6.0367413  81.2052231  33.9234962   6.6096153
  81.3550873  33.2384186   5.2682743  16.1332912  49.9109077  68.9663239
  16.0389366  49.8912086  69.9186554  15.4205713  49.3594666  68.6435623
  33.9601021  37.2778130   1.7783660  34.6772308  37.4881401   2.3764665
  33.5232391  36.5281067   2.1824956  82.3415604  52.6905289   8.9751892
  81.5596085  52.4037704   9.4469471  83.0136032  52.7709465   9.6520338
  71.5282669  51.4761963  23.5852566  70.9564896  51.5417366  22.8203983
  72.4105225  51.4104729  23.2198277  35.7558861   6.1101079  16.8316078
  36.2441025   6.5836945  16.1581173  35.8063240   5.1926303  16.5634251
  45.7484016   0.6925517  56.6830444  45.0646057   0.5200884  57.3302765
  46.4736633   0.1248908  56.9438019  56.8723297  14.4764614  13.4642668
  56.7796631  15.2261248  12.8763466  57.6619835  14.6657219  13.9710798
  51.9041443  20.8979778  67.9239960  51.0622101  20.5821438  67.5959320
  51.6830482  21.6658535  68.4509811  66.0005341  58.3280106   3.8723969
  66.0245285  58.7897987   4.7104936  65.5340424  57.5137062   4.0608830
  58.3022652  26.0461540  41.0727959  57.3888321  26.3232574  41.0014763
  58.2597542  25.0911198  41.1211319  40.8027802  16.8164921  11.7912121
  41.7225571  16.9573956  12.0156822  40.6569443  17.3670120  11.0218668
  46.4018364  68.0907974  45.7065773  46.5427437  67.2187271  45.3379631
  46.0480156  68.6036606  44.9799385  10.7796106   6.0119553  57.4545326
  11.2658873   6.8363304  57.4413910  10.2783709   6.0165224  56.6390762
  24.3363800  24.8227119  13.7481070  24.3213558  24.2117329  13.0114174
  23.7466698  25.5293808  13.4852543  25.7969341  59.8860512  87.7369003
  26.6368847  59.4500046  87.8803482  25.4205837  59.4377213  86.9795456
  82.7019119  41.1679230  24.2455502  82.0017548  40.8854523  23.6571369
  82.4037323  42.0118370  24.5848522  57.6647453  39.5129967  65.4323425
  56.8862839  39.3003464  65.9471283  58.1972961  40.0536919  66.0156708
  45.5511131  18.9555626  31.9731159  46.2153549  19.6394062  32.0589600
  45.7646332  18.5162449  31.1499252  24.1691647  49.5405121  44.4491158
  24.9593124  49.8705597  44.0213737  24.4697342  48.7894859  44.9608269
   0.5668200   6.6172905  30.8680077   0.3362247   5.9433122  31.5073910
   1.1343250   6.1686487  30.2411976  68.7719421  29.5377541  42.6869011
  68.5989227  28.5967579  42.7155533  67.9065018  29.9379559  42.6027489
  49.5249672  60.7469254  43.6536140  50.4556885  60.5420761  43.5640106
  49.0962982  60.2099686  42.9871674  53.0171509  40.8129044  85.2942352
  53.8035431  40.4162254  85.6690140  52.4965363  41.0758553  86.0532150
  19.8636456  62.9086189  49.6851692  19.6747608  63.0078087  50.6182899
  20.5882034  62.2839737  49.6525383  25.2023621  15.3794909  88.6123657
  24.5975552  14.6451721  88.7182693  24.6444874  16.1564541  88.6489029
   8.6659470  40.0994720  57.1954994   7.7222810  40.0504379  57.3482132
   9.0532408  40.0418205  58.0689468  55.4305267  60.3818130  18.3401585
  55.0770683  60.8971481  19.0652294  55.0308800  59.5181351  18.4430008
  78.6888046  21.9038563   4.3463111  79.1678391  22.6050110   4.7880578
  79.0810623  21.0976562   4.6815772  22.0095463  15.3701763  74.5819550
  22.9416809  15.4789267  74.7704468  21.8144283  16.0508556  73.9378738
  59.9430656  26.3388901  66.4352570  59.4867325  25.5639725  66.7631226
  59.9643135  26.2204533  65.4856491  21.5916805  44.0771561  86.3032532
  21.2550831  43.4820709  86.9731827  21.2369194  43.7379456  85.4814758
   0.2039965  45.4127197  11.0524988  -0.3844079  44.6606255  10.9864120
   1.0202531  45.0488205  11.3953333  15.2825680  19.4736767   8.6013508
  15.9671078  19.9233990   8.1059847  14.4868059  19.6082478   8.0866823
  50.0547295  69.0860825  87.6940155  50.1976852  69.5543137  86.8714905
  50.1215248  68.1609192  87.4576874  37.2302475  41.6853065  87.2395935
  36.8605576  40.8768387  86.8847122  36.4884644  42.2886620  87.2838211
  64.5417404   1.3557885  69.3318329  64.7759552   2.2075188  68.9631424
  64.9994431   1.3244027  70.1719208  52.1775703  68.5757904  85.4502106
  52.9660683  68.8311234  85.9290695  51.7739792  67.9008331  85.9958878
  25.3698635  34.6039085  -0.0866183  25.8910656  34.1776657   0.5937478
  24.7549305  33.9294472  -0.3750501  49.5265007  52.6884079  20.8527184
  50.4322586  52.9880295  20.9305801  49.0102539  53.4935913  20.8152924
  83.4442978   8.1473455  15.4615726  84.1630783   8.6514606  15.8429565
  83.6095047   8.1701012  14.5190115  56.0914497  18.1177731   6.2574100
  56.8192177  17.6235065   6.6346183  56.2674522  19.0265961   6.5009151
  83.4184494  30.1144924  55.6423950  83.1761246  31.0097942  55.4058685
  83.2470322  29.6031094  54.8516159  40.9108543  19.6195183  64.9997406
  41.1483727  20.2145100  65.7109451  41.2162857  18.7612152  65.2934418
  42.6223145  68.4485931  66.6780777  41.9659195  68.5112686  67.3719406
  43.4606895  68.5217590  67.1341553  67.2736740  60.9362907  10.0055962
  67.2717667  61.2936401   9.1176043  68.1606445  61.0981941  10.3270216
  43.2323380  21.5841465  83.3299637  42.6309090  21.0041981  82.8628693
  42.7660713  22.4182568  83.3855057  38.7521515  52.2860260  70.1839066
  38.3624611  53.0926361  69.8466339  38.0382652  51.8523788  70.6513977
  36.8561897  10.6153173  70.2943497  35.9299088  10.4575891  70.1117096
  37.2927704   9.8034086  70.0365982  82.0537872  32.4122734  48.4054985
  82.0604706  32.3385773  47.4511642  81.9943237  33.3528824  48.5726814
  49.2238579   5.4929509  25.8668079  50.1655273   5.4626031  25.6977978
  49.0091667   6.4257364  25.8596230  70.8739319  10.8125858  32.4563217
  71.3539658  10.3846674  33.1653252  71.2548599  11.6891708  32.4041176
  80.7037659  21.0341396  51.0676041  81.0300293  21.7264423  51.6424942
  79.9063568  21.3981190  50.6830482  78.8068771  61.2731781  16.7271423
  79.5174179  61.0838242  16.1143551  78.0462112  61.4352989  16.1691666
   6.4430332  36.3103714  62.1589661   6.0962577  36.7218437  62.9505920
   6.9624424  35.5732422  62.4800339  16.8090782  38.1640739  57.3781357
  17.5030918  38.1515312  58.0372391  16.8209419  39.0575066  57.0348091
  62.4363747  36.9820175  12.6147461  62.8969116  36.5913734  11.8720932
  61.9731674  36.2496986  13.0214138  51.6936073  54.2830887  21.1770267
  52.5392914  53.9714432  21.4994068  51.1729507  54.4238930  21.9678001
  38.5304337  69.5779800  16.3035297  38.6549797  68.6504135  16.1026745
  37.6091118  69.7445526  16.1043911  11.5196686  69.6089325  86.9597473
  12.4530945  69.4854813  87.1321106  11.4164753  70.5559998  86.8667603
  86.5344391  12.5730181  55.7209129  85.7239685  12.9067087  56.1056328
  86.8499908  11.9255428  56.3513412  86.5876312  61.6296883  65.7026367
  86.7144547  61.6806068  64.7552414  85.6432724  61.5182877  65.8122177
  18.4309254  27.0813255   4.3378692  18.7498951  26.1960716   4.1623249
  17.5135193  27.0637951   4.0653052   3.4009192  40.6631966  72.3674545
   2.7003303  41.2640381  72.1136856   3.2251475  39.8657494  71.8680420
  44.0150909  51.2046165  33.1870041  44.8469620  50.9389076  32.7950516
  44.0603333  52.1601715  33.2201576  26.7630768  51.6420593  35.2901878
  26.8754635  52.3224030  34.6263123  27.6044788  51.1861496  35.3107452
  14.5139952  41.4749184  20.7256985  13.9946032  42.0785980  21.2567654
  14.6733484  40.7264290  21.3006783  68.2593613  52.9922409   0.2379136
  68.2951508  53.2122650   1.1687955  68.0429459  52.0599937   0.2202961
  37.6801605  52.6859207  22.8079739  38.4190445  52.2057991  22.4341221
  38.0410690  53.5433426  23.0333729  32.9360237   8.7678108  20.4558201
  33.6913261   9.3545427  20.4945297  32.5186768   8.8577986  21.3125324
   8.5459538  51.8165283  58.6284065   8.6705046  52.7136078  58.9381866
   9.0408688  51.2787857  59.2465706  44.5181503  16.4967613  67.5916061
  43.7820892  16.3496914  68.1855927  44.3884468  15.8613453  66.8875809
  53.2939301   1.0784361  68.9806137  53.5869675   0.5129967  69.6952057
  52.5573807   1.5668428  69.3482895   7.7182865  26.6636124  80.3195572
   7.4335952  25.8783035  80.7869644   8.1996794  27.1703072  80.9735794
  62.4409065  62.7978897  86.3260880  62.7312088  61.8859863  86.3458557
  63.2082634  63.2871552  86.0294113  79.9890976  53.7086105  13.5739765
  80.7370758  54.2352867  13.8557262  80.1319046  52.8534775  13.9796686
  27.9774494  35.7637825  19.1598969  27.6246796  36.3520737  18.4922886
  28.8984146  36.0131760  19.2364197   1.6280353  27.7033234   8.3571930
   1.5032550  27.1439114   9.1238222   2.4630222  28.1437626   8.5154390
  60.4936485  16.3652878  77.6208496  59.6751747  16.4292030  78.1130371
  60.2533035  16.6009197  76.7247772  56.7701912  38.9793777  20.3592453
  57.3744316  39.1670876  19.6409893  56.7056084  39.8046875  20.8397942
  57.4040184  15.4117270  83.5378342  56.7304192  14.7964621  83.8275681
  56.9275436  16.0644169  83.0248108  64.1615829  41.8814049   6.7447438
  64.1676483  41.1022186   6.1888127  64.7961426  42.4711075   6.3375349
  74.9668274  24.2863064  19.3927803  75.5465393  24.8934498  19.8527222
  75.3464127  24.2093849  18.5174351  14.4865494  56.7316704   1.9472781
  13.6265125  56.9916649   1.6171699  14.8604336  57.5379601   2.3027248
  61.2478752  61.9961205   6.1807923  61.6784248  62.6077309   6.7781119
  60.3267975  62.2562370   6.1945486  68.4698868  65.3630447  75.9597168
  68.3746567  65.6794434  76.8580780  69.4155655  65.2923279  75.8296661
   9.8265753  44.0084763  29.9556236   9.7446976  44.5757217  29.1889706
  10.7342138  43.7052765  29.9333935  73.8454132  48.6517105  33.6223068
  74.6013870  48.0645866  33.6179199  73.3759384  48.4316826  34.4269218
  30.7229519   8.4426346  74.8838730  31.3892937   7.7580967  74.9441071
  30.4214211   8.4041710  73.9762268  82.1957474  41.5708733  11.7980118
  82.5330124  40.7698936  11.3968697  81.8403625  41.2858505  12.6398535
  39.8136826  14.5210390  74.6372452  40.2258301  13.7654648  74.2183456
  40.0535736  15.2630529  74.0821762  32.9239159  38.3673401  48.9197655
  33.1417313  38.9858131  49.6171036  33.6371498  38.4579544  48.2878494
  47.9603004  64.4170761  50.9701004  48.5407524  63.6911926  50.7411842
  47.4861870  64.6089478  50.1610031   6.4075813  51.3018188  78.1732025
   5.9111495  50.6745758  78.6988983   5.8149772  52.0457001  78.0650482
  49.8208809  70.1626511  41.9470062  49.6769257  69.3553848  41.4532127
  50.0492401  70.8124924  41.2823334  79.6230545   8.9326448  17.6890182
  79.9229431   9.8319139  17.8217335  79.4080353   8.8868971  16.7574024
  44.9653778  50.1980209  29.2235985  45.5510674  50.7307281  28.6856213
  44.2283401  50.7763329  29.4199905  56.3898048  17.4096069  38.2141533
  55.7878418  16.6661034  38.1813965  55.8265266  18.1780529  38.1222801
  33.4648552  51.2311974  70.6561432  33.4273376  51.5947647  71.5408173
  32.6083832  51.4312782  70.2784500  77.0656357  53.6252327  73.6778793
  76.3002472  54.1974716  73.7322998  77.4672699  53.6793289  74.5450592
  83.1461868  62.9557114  52.2585678  82.3159790  62.5121536  52.4324684
  82.9141693  63.8822479  52.1958656   5.4998627  55.3849411   5.5489597
   5.1705894  55.1773567   6.4234414   4.7189841  55.3964272   4.9954901
  67.4626312  11.9951172  31.5815220  66.8372650  12.5429316  31.1071281
  67.6472855  12.4826136  32.3843193  83.9394226  35.3318329  51.0630722
  84.7745285  35.3068085  51.5301933  83.3333054  35.7449799  51.6780205
  13.1762934  51.9442406  11.6488571  12.3087091  52.1897125  11.3274927
  13.7652378  52.1366005  10.9192162  84.1268158  30.9744415  49.5527153
  83.2795868  31.3287487  49.2827187  84.5488281  30.7128716  48.7343521
  30.0731716  68.5046310   8.6041679  30.2474308  68.8164215   7.7161050
  30.4837284  69.1568527   9.1718712  80.9801712  54.8419724   6.2454233
  80.5209274  55.0781403   5.4394746  81.0711823  53.8902321   6.1991377
  57.8083267  12.4958344  53.9807930  58.2943153  12.9015188  53.2628326
  57.4143066  11.7148676  53.5921135  72.6978073  35.4654045  50.7557106
  72.2723083  34.7005081  50.3682594  73.6319351  35.3227921  50.6030960
  28.3897228  45.3302994  16.6262665  28.7802715  45.0179100  15.8101082
  28.0242977  46.1867523  16.4044933  79.5419006  48.2324028  39.8884697
  79.4233093  47.9172249  40.7844772  78.6600952  48.4650002  39.5977058
  38.2766418   2.3666737  16.8711910  38.7363930   2.0234275  17.6373787
  38.9600258   2.4726610  16.2093868  73.5635834  46.9734306   6.3366089
  73.7741394  46.8997116   5.4057693  72.6149902  46.8521538   6.3779368
  39.6088867  47.0569992  12.3740120  39.0292587  47.8187370  12.3691530
  40.3407707  47.3093491  11.8110771  50.5196609  56.4374352   6.6491046
  51.3926392  56.7232742   6.9182420  50.1810989  55.9576302   7.4050121
  71.2066269   5.4471908   8.6133194  71.9531937   6.0144243   8.4206505
  71.1398849   4.8719783   7.8511467   4.7990928  49.5440750  80.3115768
   4.7066822  49.1207314  81.1650848   4.2517796  49.0221481  79.7248306
  35.9448166  21.8885899  69.7868652  35.1461983  21.5582314  69.3754044
  36.5812874  21.9327030  69.0732880  69.6858521  38.4184647  39.6545410
  69.0958023  38.1176147  38.9634819  69.3942719  39.3095589  39.8473244
  67.6368256  64.8962784  30.4090633  67.7642670  65.3835068  31.2230644
  67.0545349  65.4489441  29.8877792  81.7650223   8.6022587  76.0780869
  82.5590897   8.7145691  76.6006470  81.0515060   8.8267965  76.6753464
  79.2612686   6.9983830  66.1423721  78.4190369   6.5863829  66.3350906
  79.1677856   7.3278365  65.2485352  59.5401802  15.1050148  70.7546997
  58.7310562  15.5705738  70.9663773  59.6532784  15.2371101  69.8134232
  84.2486877  13.0535851  16.8078022  83.6193085  12.8164282  16.1267223
  84.1973801  12.3376818  17.4411125  14.8827705  26.9415359  65.1405411
  15.7331295  27.3535767  64.9877548  14.3459845  27.2174568  64.3975983
  77.1473236   1.0583307  61.7098312  77.9700851   1.2713029  61.2694435
  76.9762878   0.1474804  61.4703941  84.4599075  30.1318359   0.5452750
  85.3965607  29.9506912   0.4672442  84.3542786  31.0094738   0.1780855
  75.7992859   8.7340689  30.0013638  76.0890808   9.6253033  29.8065548
  74.8713150   8.8257999  30.2174377  46.9782410  13.8748236  70.6929932
  46.2849121  13.2439089  70.8865814  47.7215652  13.3373909  70.4193802
   1.9236511  32.3146057  59.3036690   2.0144517  32.6040421  60.2115326
   2.8182707  32.3095245  58.9632835  15.8317041  16.8809834  54.1015129
  16.5600014  17.4298172  54.3923683  15.0877171  17.1707115  54.6295013
  51.0468941  50.3843918  58.2494392  51.7616234  50.4287949  58.8845978
  50.6543427  51.2571716  58.2692070  46.9637108  44.5976753  10.3352413
  47.1677208  44.0055847  11.0591478  46.5715752  44.0342064   9.6681862
  17.4884872  42.2846718  67.0732269  18.0479107  42.8773308  66.5711975
  16.6639194  42.7604942  67.1727829   1.0471916  14.4839773  40.9483986
   0.4409182  15.0495434  40.4700661   1.8966993  14.9166365  40.8625221
  73.5079727  21.4167614  77.3154297  73.6706848  21.9769840  78.0743179
  73.4063416  22.0267601  76.5848083  76.8953094   4.8670177   8.2602215
  77.6465759   5.4548068   8.1805897  76.6802368   4.6296630   7.3582029
  68.0350494  63.6270943  34.7988739  67.4576874  64.2932816  35.1718063
  67.9964981  62.9010315  35.4214325  42.7326508  66.2346344  26.1526585
  42.7230949  66.4878464  27.0757103  42.2937737  65.3842010  26.1330280
   0.7053683  28.4648590  42.6108360   0.5472286  27.9061928  41.8498383
   1.4227945  29.0385876  42.3418274  14.7264147  61.4460182  23.9123192
  14.2743702  61.5163269  23.0715199  14.6978693  62.3316345  24.2743931
  80.0572815  23.4695320   9.4716043  80.9573441  23.7846088   9.5543442
  79.8636627  23.0720558  10.3205767   6.2336287  51.4033966  73.2172241
   6.6670709  51.9980049  72.6050186   5.6102705  51.9567451  73.6878204
   2.0140576  50.4654427  19.9522495   2.0002060  49.8560448  20.6902676
   1.9758025  49.9044228  19.1776390  46.6715050  58.3145523   2.1055729
  47.4582634  58.2461586   1.5646757  46.7164040  59.1927605   2.4836857
   4.9451303  60.9599495  23.3277340   5.7925024  61.2453957  22.9860992
   5.0177264  60.0070915  23.3827286  10.2284622   1.6824498  63.8243217
  10.2025118   1.2653219  62.9631844  10.9123049   2.3478153  63.7476501
  30.1228046  42.9078941  69.4669113  30.8455849  43.5020866  69.2650375
  30.0824814  42.8960075  70.4231873  61.5421906  63.7272720  78.6059952
  60.7965889  63.4064484  79.1133194  62.1068459  64.1513901  79.2521515
  83.0595398  70.3505630   7.4862652  84.0163193  70.3554993   7.5143781
  82.8441162  69.7565308   6.7672706   6.5101318  36.4706764  79.0475159
   6.5902314  35.7199745  78.4590759   6.8772297  37.2031708  78.5526199
  65.0744934  13.8079109  30.6801147  64.6824036  14.4843311  31.2323380
  65.0590973  14.1799507  29.7983093  57.6237602  28.3586349  47.3815002
  57.1214828  28.5380363  46.5866661  56.9606171  28.2199917  48.0577049
  47.8160210  25.3836021  11.2397623  47.7230682  25.8737869  12.0566530
  48.0021744  26.0512924  10.5796366  48.1560745  53.6583748  31.4995041
  49.0928383  53.4616776  31.5027447  47.7389641  52.8333588  31.2513142
  59.2525826  18.0312843  47.4951210  59.8179016  17.3550491  47.8684235
  59.8445625  18.7579556  47.3008614   2.5737190  42.3133812  83.7860641
   2.9491456  41.6329269  84.3448715   2.2583654  42.9786644  84.3977737
  35.8988991  37.2649117   9.1105490  35.5203247  38.0673141   8.7512980
  36.6375771  37.5648727   9.6402769  21.5271263  59.5460930  21.5781651
  21.8783531  60.2069283  22.1749668  22.1541595  58.8243332  21.6242008
  11.3270607  62.8903198   2.6742511  11.7953691  63.3340912   1.9671541
  10.7443352  63.5597839   3.0326941  52.1931458  27.8138714  25.4742222
  52.9011192  27.1736717  25.4024754  52.5907440  28.6418591  25.2048073
  55.5841942   3.8150361  40.4013824  54.7416611   3.6322100  40.8172455
  55.6691055   4.7676430  40.4409142  58.4489975  62.8746872  55.6284599
  58.4827995  63.4930267  56.3583565  57.5377769  62.8985672  55.3363266
  12.9560719  50.4675407  54.2571678  12.7420397  49.6202393  53.8666496
  13.6015730  50.2632103  54.9337845  54.8186302  11.4771862  52.8745995
  54.5317841  10.5640564  52.8866730  55.2683716  11.5758829  52.0354195
  12.0216084  45.1932945  26.5985680  12.2594929  44.2994080  26.8447514
  11.0684299  45.1726456  26.5133781  63.4901009  21.5426445  11.6762810
  64.3377686  21.1958828  11.9545708  63.7000008  22.3713875  11.2457504
  73.0879288  12.7972326  60.6309662  73.1847687  13.4479427  61.3262558
  73.7049255  13.0760527  59.9543533  60.1933098  37.5259857  28.2887497
  59.5960426  38.2570190  28.1303291  60.6905594  37.4423180  27.4751339
  82.3854675   7.3895125  72.6833878  81.9606781   8.2211361  72.8936005
  82.3175659   7.3198466  71.7311478  78.2677383  33.8209038  81.7816696
  78.5869370  33.7711792  82.6827087  78.4101791  32.9427910  81.4283142
  80.8545609  42.9656219  63.6010704  81.3147583  42.8119278  64.4261932
  80.1841431  42.2831230  63.5700073  32.3296089  64.4148102  15.7882700
  32.7380180  65.2399139  16.0502586  32.8426819  64.1221542  15.0350504
  51.7296715  60.3310966  18.4447155  50.9306221  60.2096558  18.9575577
  51.8833847  61.2757339  18.4608650  22.3568382  43.1551743  32.5002480
  23.1556911  43.6810188  32.4608078  22.1405830  43.1176071  33.4319420
  55.8334045  51.0687408  43.6061668  56.3934898  50.8011398  44.3348160
  56.2351112  51.8733025  43.2782326  52.8892746  53.8532715  68.0033417
  52.8025055  52.9416542  67.7246704  53.7459755  54.1241112  67.6732712
  25.8567276  55.1620445  79.4596710  26.5473194  55.7882423  79.6769104
  25.9860229  54.4399948  80.0746155  61.8268661  25.2333393  18.4712048
  62.5211983  25.3747482  17.8276691  61.3962440  24.4275284  18.1857777
  34.5810013  34.2776222  10.0076685  34.8559570  33.6438408   9.3451338
  35.2417221  34.9689903   9.9665461  21.8200779   3.9819491  82.6324310
  21.8074760   3.8128757  81.6903687  22.1952534   3.1879501  83.0132751
  61.0618362  39.8585510  67.1860962  60.4070969  39.3116074  67.6201477
  61.8545532  39.7448616  67.7104187   8.3666153  15.1845846  22.5658169
   9.0115185  15.7689695  22.9643478   8.0738754  14.6248617  23.2850151
  74.0177689  48.5156593  79.0258026  73.5407028  48.4715652  79.8544693
  74.8543549  48.0876770  79.2079926  52.8833618  12.9503126  79.8169250
  52.8422890  13.1456776  78.8807678  53.8013344  12.7303896  79.9756470
  20.0492821  31.9377403  59.1712418  20.7668018  31.9293442  59.8047447
  20.4829426  31.9730415  58.3186417  27.6001930   8.6254463  75.2409363
  28.4758339   8.8214598  74.9076691  27.0537586   8.5646915  74.4573822
  72.7419205  19.1396542   9.3838482  72.3970947  18.2488327   9.4451885
  72.7220230  19.3402843   8.4481220  75.3494110  13.2567110  67.5115967
  75.9533920  13.8814974  67.9129486  75.1848907  12.6087408  68.1966553
  61.4703712  51.9963341  57.7714996  62.3744049  51.9436951  58.0816383
  61.0331917  52.5670242  58.4034920  15.4217806  28.9559708  77.8159485
  14.9620113  29.3023891  77.0512009  14.8408766  29.1481857  78.5520477
  56.6965599  58.6838799  60.1875877  56.2345161  59.1298676  60.8974037
  56.6234169  57.7537384  60.4014091  26.0933628  48.5988121  10.3040781
  26.7774143  49.0780411   9.8364840  26.5682621  47.9532700  10.8275080
  37.7143440  27.3749332  75.2305145  37.3150826  27.0944309  76.0540085
  36.9751968  27.4924965  74.6337967  23.3417110  33.8142357  63.9946327
  22.9671154  33.1282158  64.5471573  23.1905212  34.6238365  64.4824066
  54.3059082  58.3409309  75.3898468  55.0845299  58.0763054  74.8999939
  54.5771904  59.1265335  75.8646774  19.0871754  57.8389206  18.1555138
  18.3146992  58.1793480  17.7042713  19.4362526  58.5911713  18.6335201
  37.1725883  18.8971500  88.2771225  36.8832130  18.2874355  88.9559021
  38.0989037  18.6921234  88.1501007  60.6018639  10.6865959  54.4514961
  60.3263206  11.1626606  55.2348671  59.8045921  10.6047258  53.9281578
  11.8973637  63.2914391  23.1024799  12.0502129  62.3497009  23.1799526
  11.4903936  63.3980980  22.2426949   6.9038897  40.0557671  84.3147888
   7.7145925  39.5800667  84.1339645   6.9329858  40.8107147  83.7270508
  43.4745216   0.5860283  68.6258774  42.7012253   0.6165640  68.0625763
  43.1938858   0.0838098  69.3908997  62.6741829   1.4958689  74.7921829
  62.5020866   1.7163546  73.8767548  62.1508217   0.7104828  74.9518433
  51.4514008  63.2432556  75.6724396  51.5557137  63.1511574  76.6194687
  52.0302048  62.5770378  75.3018112  86.0619354  69.1044922  32.5602074
  86.5144119  68.6466064  33.2686119  85.4097443  68.4773788  32.2478027
  12.9888840  60.4653168  71.1018295  13.4362583  61.2434845  70.7693481
  12.2984648  60.8096886  71.6683655  77.5075607  54.0557251  31.1612816
  77.3506775  54.1118965  32.1038666  77.8906403  53.1878777  31.0335331
  63.7988777  16.5714073  71.1383286  63.2744904  15.9222565  71.6072159
  64.6860962  16.4528446  71.4774704  81.8746185  56.1849365  75.0174789
  80.9553299  55.9546852  74.8828278  82.0716324  56.8047485  74.3151627
  67.4753952  71.0390778  22.8486691  67.1623840  71.8927383  22.5494614
  68.3818893  70.9962082  22.5442772  66.2534714  27.7537632  49.4936600
  67.1985931  27.6022720  49.4990044  65.9629059  27.4243584  48.6431923
  64.5056000  31.2413788  31.7739906  64.6114502  31.1593380  30.8262062
  64.7383118  30.3784103  32.1165733  21.8060360  27.2321339   3.7025630
  21.6908226  27.4398651   4.6298199  21.8696613  28.0847664   3.2722104
  73.6592026  55.2462082  86.8137817  74.3897095  54.6666756  86.5976105
  73.1210175  54.7372665  87.4200592  72.1998444  69.4755554  31.6119232
  71.5045471  70.1074905  31.4290295  71.8860321  68.6565323  31.2285709
  57.5763474  21.8248100  19.1790428  58.0494080  21.0451050  18.8883457
  58.1517296  22.5540619  18.9480476  76.1143036  34.1307602  28.8788891
  76.3197250  35.0422134  29.0869503  75.6092758  33.8213921  29.6308651
  47.9670219  18.1076469  82.9858780  47.4358139  18.0757942  82.1902390
  48.4938507  18.9011116  82.8905182  36.8479385  36.4017906  73.6205444
  37.1343994  37.3142052  73.5796814  37.1113167  36.0301285  72.7786865
  85.1058121  52.9634514   1.6793985  85.4797516  53.2324066   2.5184839
  84.1668701  53.1242371   1.7730709  61.4386444  43.4467964  46.9914665
  62.1097374  44.0223389  46.6245689  61.8294640  42.5735359  46.9613190
  47.4176292   6.1998363  80.8084717  48.2058334   6.6654124  81.0881271
  47.6662560   5.7816386  79.9841385  38.6543312  18.4079018  45.4694328
  39.1183395  18.7869644  44.7229462  38.8925476  17.4809475  45.4539223
  17.3976212  54.3847084  82.9924850  17.2640896  55.2127113  83.4538040
  16.5340786  54.1624756  82.6444397  11.8732109  48.0859299  53.2829285
  11.5119228  47.5751228  54.0073395  12.3693609  47.4510498  52.7662163
  26.3309402  71.1510925  89.2199860  26.1731491  71.9708176  88.7516022
  27.2515545  70.9515305  89.0500641   9.5738964   9.9838514  20.2552261
   9.7378349   9.5396605  21.0871220   9.2523975  10.8500166  20.5054836
  15.6634693  22.0587292   2.7096324  15.1405029  22.3926830   1.9807885
  16.2079487  22.8004913   2.9733789  57.0454941  54.0917473  62.0431671
  56.9597969  53.2725372  61.5555420  57.6224442  53.8752594  62.7756271
  36.6118240  55.8877869  49.1615639  37.5633125  55.9657974  49.0921822
  36.2730408  56.5008202  48.5091438  38.8413315  51.2152977  50.6598740
  38.7675438  50.8960648  51.5592499  38.1392975  51.8605995  50.5764198
  15.8096504  36.0986519  15.3659735  15.2863274  36.6975975  14.8334036
  16.4127464  35.6904678  14.7447710  83.1847839  61.0364075  76.6719284
  82.4510651  60.4786873  76.9304352  82.8279495  61.5979347  75.9837494
  48.6481972  37.4063263  20.0763512  48.7240486  38.0070000  19.3349533
  49.3197136  37.6998520  20.6920929   8.3487196  63.3652802  29.0922356
   8.1043329  63.1479263  29.9918270   7.9755735  64.2345428  28.9460392
  85.0286255  53.9825935  19.5938320  85.3528061  54.8113289  19.9464436
  85.6750565  53.3342476  19.8731251  22.0321312  36.3845367   0.1049682
  22.1849251  36.2165871   1.0348492  21.1134281  36.6489754   0.0571385
   8.0926847  33.3989639  54.4945869   7.4498954  32.7107353  54.3231392
   8.8555250  33.1495514  53.9729538  13.0327520  23.8290882  17.5810909
  12.5020933  23.2364140  17.0487671  13.3310413  24.5002079  16.9672089
   3.7669032  18.9875221  10.3297834   3.5895467  19.5223541  11.1035604
   4.7171073  18.8720150  10.3311291  55.9847908   2.7532637  26.4065990
  56.8283424   3.1861842  26.5378780  55.9336739   2.1091480  27.1128101
  76.7279053  67.6459885  81.0272751  77.2167892  67.3975525  80.2427368
  76.6754913  68.6007919  80.9844818  23.2395420  52.6126709   1.1248313
  24.0524178  52.4021187   1.5843222  23.4963760  53.2600060   0.4681531
  75.2666092  62.4434853   8.5923100  76.1016006  62.6446075   8.1697302
  75.3248825  61.5124626   8.8068676  50.6716728  26.7982655  61.0353737
  50.7029343  26.6070271  60.0979919  51.5178795  27.2032413  61.2255440
  54.2698174  65.3813400  83.1235657  53.8299217  64.7004623  82.6145172
  54.8133354  65.8438263  82.4856567  70.6597137  16.1724911  57.3011971
  71.5922699  16.0655727  57.4886513  70.2598267  15.3565617  57.6021652
  37.1911697  37.8302269  34.0831299  36.3353806  37.8677864  34.5102692
  37.4266777  38.7465286  33.9376755   9.2462320  17.6512184  16.1555786
   9.3170404  18.5497398  15.8332815   8.6068478  17.7013321  16.8661480
  14.3373594  69.5570755  87.1545639  14.5101337  70.4183426  86.7742920
  15.0487289  69.4248734  87.7812271  76.3480988  17.7799301  37.6245461
  76.4629974  16.9861355  38.1469612  75.7562332  18.3245907  38.1434593
  64.5545273  48.3783073  40.6025238  65.0839233  48.8476830  41.2472420
  65.0956039  47.6314011  40.3464088  42.2809639  71.2901993  31.7228909
  43.0211105  71.3298492  32.3285637  41.5261421  71.5530396  32.2495728
  75.4103470  44.0102501  84.5542984  75.3396530  44.5014534  85.3728027
  75.1271667  43.1245193  84.7812881  51.5609627  40.3308754  72.5038757
  51.9425163  40.9871216  73.0869598  51.4664345  39.5508080  73.0504837
  58.6149063  15.4256182  22.2918854  58.3686752  16.1085968  21.6680737
  58.9926338  14.7320852  21.7509918  29.4270096  10.9987192  10.1748476
  29.1657410  10.2860622  10.7580204  28.8790398  10.8857632   9.3981876
  17.1095467  49.8116722  29.8313503  16.9221210  50.4095802  30.5549603
  16.5242100  50.0948639  29.1289158  32.1357765  69.7485504  69.6880722
  32.0072174  70.6950912  69.6266403  31.9082584  69.5341644  70.5927887
  76.2530899  54.8098373  51.1581535  76.6082306  53.9394112  51.3383102
  76.8640747  55.4107704  51.5845375  11.9086409  39.8657913  16.3827343
  12.5263977  40.2070312  17.0293922  12.3118238  39.0557404  16.0704994
  14.2564363  65.9798584  34.6695518  14.5461988  66.0100403  35.5813408
  14.0214615  65.0635757  34.5231133  29.2922611  50.6652336  26.3504791
  29.1434174  51.3364868  27.0164337  29.4921761  51.1577721  25.5544453
  39.2026024  43.4280624   6.7901025  39.4095306  43.9241104   5.9980493
  39.4075890  42.5206223   6.5647945  48.1285667  26.8600178  62.2115059
  49.0087852  26.7164135  61.8639030  48.1593857  26.4999256  63.0978546
  68.8030167  42.8920746  18.7439480  68.5299606  42.0235405  18.4484444
  68.9433212  42.7915955  19.6854630  82.4572067  36.9078712  79.9932556
  82.6673737  36.9271240  79.0596085  81.9033127  36.1342964  80.0981750
  58.7790031  34.8831596  64.4174500  59.2655182  35.6336823  64.7584152
  58.2230835  34.6070328  65.1461105  19.5079308  52.8136215  53.1696663
  19.5011463  52.9492226  54.1171913  20.3353519  52.3640327  52.9979744
  47.2997017  38.6392555  61.8249550  47.4240570  38.5465927  60.8804016
  48.1577568  38.4411201  62.2000771  47.6710663  40.4140816  64.8281403
  46.9322090  40.9991493  64.9955063  47.5585823  40.1406059  63.9177589
  50.8450851  33.1187897  35.0758133  50.7826157  34.0714035  35.0061150
  51.1491432  32.9634895  35.9700508  77.4776230  47.2735825  78.4723434
  77.7161484  46.5004921  78.9838791  78.0140762  47.9772415  78.8374786
  83.7358932  46.5090904  62.1924744  83.0535660  46.5809288  61.5250130
  84.4972916  46.9398651  61.8039665  47.8669167  44.5818253  77.8296738
  47.2353439  43.9256973  78.1243668  48.3235092  44.1638184  77.0995865
  70.6410294  42.5650673  63.9680748  71.3685455  42.3641663  64.5567932
  71.0128174  43.1691475  63.3253517  53.9241486  49.8732796  41.6391640
  54.5076485  50.0662193  42.3730125  54.5127678  49.6884804  40.9073105
  49.1823158  19.1293316  68.6138916  49.4466820  18.2152042  68.5103760
  49.4908752  19.5596619  67.8164978  49.8460884  34.9864388  51.8998528
  49.0970993  34.6316948  51.4208946  50.2420082  35.6136703  51.2948227
  62.4630318  36.1274223   0.1378437  61.7037163  36.3512764   0.6759515
  62.2155609  35.3120384  -0.2982086  36.6217842  10.1545849   6.8981147
  37.3265610  10.7107487   7.2300844  37.0264435   9.2938318   6.7904692
  28.4977531  62.9142303  56.5417824  28.8612614  62.0311012  56.4771461
  29.2641144  63.4860687  56.5856247  84.6012039  21.4434586   5.8511229
  85.4290085  21.7317371   5.4665933  84.7830200  21.3764305   6.7885022
  71.4820328  41.3203201  56.0142670  70.5593185  41.4429054  55.7911110
  71.5977936  40.3705292  56.0412254  59.7618790  26.4479675  37.1219101
  60.0143623  26.0245323  36.3014297  60.2464638  27.2734413  37.1244392
  35.5474777  51.4656258  81.9856873  34.8259125  51.6630745  81.3885345
  36.0960884  52.2497597  81.9659805  61.2727623  70.7291031  75.5247498
  60.8135452  70.5686798  74.7003632  61.9397430  70.0437012  75.5646896
   8.6707954  64.6933441   4.3012815   9.3637781  64.9203033   4.9213567
   7.8818989  65.0938568   4.6666040  13.2071724  71.2265701  82.4925613
  13.0865011  70.2808609  82.5779648  14.1447697  71.3617630  82.6299210
  48.8895035   6.2479849  56.5759659  48.6354370   6.4549389  55.6766052
  49.7423058   6.6683378  56.6866989  69.3046570  50.3008385  39.0424118
  68.6431046  49.6807632  38.7356758  69.2400208  50.2673988  39.9968414
  68.5735703  17.9486694  30.7780838  68.8011017  18.3910275  31.5958748
  67.6435089  18.1379833  30.6541061  19.3195438  20.8063393  76.7287140
  19.6160717  20.8304443  75.8189240  19.7421474  20.0308762  77.0979004
   5.5632172  42.3712082  74.7691193   5.4508209  42.3011131  75.7171097
   5.2249160  43.2397575  74.5513916  77.9040146  26.5244713  51.6824036
  78.4502106  27.3039207  51.5805931  78.3287354  26.0236931  52.3788719
  21.2772560  43.7126846  14.4144459  21.2542477  42.8853493  14.8953047
  22.2018795  43.8410072  14.2027006  52.7638550  49.4591484  56.1499748
  53.5691986  49.6886978  56.6136093  52.1038132  49.3841209  56.8391418
  44.6200142  29.1052341  87.9092560  43.8754578  28.9612331  88.4933167
  45.3519974  28.6650696  88.3413315  43.2715416  27.6735153   0.7764313
  42.9202423  27.0328102   1.3947488  44.0678406  27.9994717   1.1958294
  83.8288727  24.5216618  82.8501968  84.2618713  23.7413921  82.5038910
  84.5136337  25.1903934  82.8616562  16.4421883  10.2527275  14.5363998
  16.9189568  10.8405085  13.9503641  16.5359077   9.3880739  14.1366224
   8.5587368  50.3024216  10.9124327   9.0333605  50.4038773  11.7374611
   9.0744276  49.6669044  10.4160337  40.6425972  64.2150040  26.1089211
  40.5337143  63.8848877  25.2170677  39.9726334  64.8929749  26.1968269
  66.8158264  37.4710922  65.9518967  67.6775208  37.8389320  66.1478806
  66.7121964  36.7560692  66.5797729  83.2729416  58.7575951  65.3415527
  83.9134598  58.1080132  65.6314011  83.4408112  58.8579636  64.4045486
  59.6040993  60.8979950  45.2891273  60.4623260  61.2808647  45.4710236
  59.2364120  60.7128487  46.1532822  60.1008873  17.6335983  61.3539391
  60.0237961  18.5555115  61.5996323  59.8832855  17.6150894  60.4219856
  85.8341751  21.9319324  12.4502048  85.0163727  21.9345684  12.9476194
  86.4985657  21.6593666  13.0830755  12.7598839  60.8287277  34.7212639
  12.0862732  60.1918716  34.4827423  13.4403219  60.3088226  35.1489716
  69.3975754  37.7661247  87.0019150  70.1656418  37.3859482  87.4282684
  68.6708527  37.5604362  87.5899658  53.7530479  33.0602989  52.0887375
  54.5426178  33.5738564  51.9182472  53.2848740  33.0565109  51.2538528
  85.6966553  15.4352865  17.6920662  85.1978683  14.7001410  17.3356876
  86.3040085  15.0338125  18.3134956  37.3525772  26.4992123  12.5623569
  37.6112785  27.0076256  13.3310051  36.8174095  27.1016502  12.0457373
  15.3302774  34.3403358   6.1811090  14.6240511  33.6983223   6.1083393
  16.0047665  34.0235786   5.5803061  35.2748604  37.2712250  61.1288338
  35.7944260  37.2068214  60.3274956  34.6321564  36.5657463  61.0549202
  75.0587006  65.1586990  59.2628212  74.5805054  64.4166718  58.8927422
  75.6160202  64.7717514  59.9380264   6.1418605  35.6451836  33.0503883
   6.8434505  36.2590523  32.8332062   6.2574663  34.9216690  32.4344368
  69.6028595  63.1355171   4.0859389  68.9227219  62.6165657   3.6565993
  70.2500153  63.2971039   3.3994193  48.8729515  42.0606346  78.3227158
  47.9269485  42.1123543  78.4592285  49.1113281  41.1849480  78.6269836
   9.1404657  55.4241638  56.2743645   9.5478678  55.5459557  55.4167938
   8.8373871  56.2977562  56.5217819  83.7889786  24.1267300  67.9782944
  82.8498993  24.3067532  67.9340897  84.0883560  24.6048145  68.7516251
  70.0041275  57.2610970  61.5722466  69.3814392  57.8930550  61.2129135
  70.6177673  57.0959320  60.8564262  67.2984238   4.4152770  84.6067429
  66.4076462   4.1175046  84.7913666  67.6703033   3.7291236  84.0525513
  78.4762115  69.9926758  24.6860447  79.0170441  70.1287613  25.4639969
  78.8630524  69.2301254  24.2558060  53.8712234  29.3394451  81.7697449
  54.7102776  29.1708012  82.1984329  54.0182037  29.1024971  80.8540573
   4.1124802  10.0603542  28.7822742   4.7323947   9.5364790  29.2897129
   4.0212135   9.5882759  27.9545994  30.5750008  42.9462585  78.1047516
  31.3242626  42.4973030  78.4962692  30.4018955  43.6811371  78.6931534
  56.5500641  46.2000465  36.4373589  55.7279968  46.1257706  36.9220505
  57.1703682  46.5595856  37.0715370  51.4263649  43.9094849  58.0387726
  50.6330414  44.3500557  58.3433533  51.3060799  43.8264961  57.0927963
  56.7693748  23.0750389  73.2547150  56.2033577  22.3147621  73.1211700
  56.3507042  23.7760296  72.7551498  57.7991066  52.5711250  71.4655228
  57.5987892  52.9250488  72.3320312  56.9537773  52.2781715  71.1251831
   6.9860907  62.5358658   6.7408538   6.1852236  62.1780396   6.3577003
   6.7072549  63.3482628   7.1633344  17.2636948  21.9839306  10.5067034
  16.5961533  21.3326912  10.7223644  16.8662395  22.8218479  10.7436771
  74.7091751  39.4466057  55.0895767  74.8658905  39.7388954  54.1916656
  74.1733398  40.1388702  55.4767303  59.5086823  59.8283157  18.3758240
  59.6972771  59.4367104  17.5229988  60.3680801  60.0581169  18.7291756
  22.1234894  71.6577301  14.2588778  23.0541306  71.4379959  14.2158175
  21.8858910  71.5152435  15.1751070  30.2970371  47.2202797  39.7622414
  30.2034950  46.2688522  39.8098755  30.9472980  47.4308624  40.4323502
  70.3376007  70.3522034  37.6319885  70.7072525  69.5043869  37.3854179
  69.6072006  70.1356201  38.2115059   5.8529544  43.3316689  10.5901098
   5.5477457  42.5114288  10.9777718   6.7985744  43.2155876  10.4975948
  59.8021622  16.5488834  74.9125519  58.8642044  16.6164093  74.7339249
  60.2132988  17.0974503  74.2445145  34.5897484  27.7850838  72.2154999
  34.2843513  28.6730309  72.4012833  35.4135475  27.9088688  71.7440491
  15.5031252  45.6962852  43.6259766  15.1181612  44.9455948  43.1737633
  15.9499941  46.1877136  42.9367485  26.6755772  69.1108780  32.8607063
  27.1456604  69.3672256  32.0672722  27.1598740  68.3547363  33.1922836
  50.3666000  70.9416885  39.0549164  50.7780800  71.4869919  38.3844223
  49.4354744  70.9513092  38.8332329  16.9045467  67.8926163   4.3283706
  17.2227993  68.4376373   5.0480213  16.2085514  68.4112320   3.9248166
  32.9028091   4.6049023  16.4852715  32.9433060   5.3753080  17.0518990
  33.6832352   4.6710162  15.9350014  33.4068184  16.3128090  68.1785049
  33.2435303  15.9073429  69.0300751  32.6708984  16.0321674  67.6345444
  80.9246979  19.9561729  20.5427475  81.1200562  19.7611485  21.4592800
  81.2360229  19.1886520  20.0629349  39.1655769  18.5909691  71.6608047
  39.3158798  19.5362530  71.6695862  39.0584755  18.3740654  70.7346802
  19.7793140  48.0537720   2.5624001  20.5401421  48.4329720   3.0023789
  20.0018616  48.0823402   1.6318690  63.5627327   4.0461779  72.0567093
  63.2318993   3.1946993  71.7707596  64.2631149   3.8358850  72.6743393
  35.2974319  27.9295731  11.4476147  34.7649803  27.4636593  12.0923223
  34.8968887  27.7139816  10.6054049  65.7792892  35.0120697  19.8623524
  66.1069717  35.8370781  19.5042839  65.7132645  34.4313889  19.1042747
   1.1058649  53.3921967  69.5768433   1.1140330  53.3732872  70.5338211
   1.0172236  52.4743996  69.3199005  40.3331566  51.8366356  47.3428535
  40.8454895  52.2514687  46.6488380  39.9689636  51.0510902  46.9347916
  10.4710932  33.6006813   8.7505264  10.5551023  34.0508919   7.9099994
  11.3229876  33.7175903   9.1710501  59.2505341  40.4169960  84.3086624
  59.6119652  41.3023949  84.2678223  58.3202057  40.5288162  84.1131668
  41.7486000  70.4468918  15.5125113  42.3529472  70.6125259  14.7889357
  41.0863266  69.8631363  15.1425781  33.3961105  13.9484520  13.1297836
  33.3690033  14.6418095  13.7891417  34.1862259  14.1319742  12.6215811
  54.7475967  68.5840988  71.6494598  53.9904785  68.0387115  71.8628845
  55.2577095  68.6130753  72.4588852  42.2950058  36.8038368   5.1736178
  42.0952377  36.2631111   4.4094567  42.9649239  36.3108521   5.6473384
  56.2858353  41.2887268  86.3008118  56.4624748  40.6441689  86.9860611
  55.6142921  41.8587112  86.6754837  58.9139557  32.6579704  60.3723488
  59.4943771  31.9340076  60.1373711  58.0580673  32.3993912  60.0305481
  11.5587959  49.1227455  43.4718666  11.2398748  48.3681374  42.9768028
  11.5976524  48.8158569  44.3777046  29.3354073  58.1496010  77.4652328
  30.1306343  58.2873001  76.9505615  28.6391106  58.0693321  76.8133392
  68.2457275  28.9145622   6.4672360  69.0760193  29.3888493   6.5108171
  68.1080246  28.7580833   5.5330062  18.3653736  16.4222622  20.9097595
  19.0360069  16.0258179  21.4659214  18.0005035  15.6887856  20.4146709
  48.0736923  24.4972649  19.8918667  47.3778191  23.9371834  19.5479221
  48.2795601  25.0931377  19.1715984  73.7125854   9.2132959  33.4291840
  73.4912415   9.4074411  32.5183907  74.4373474   8.5906458  33.3720398
  85.6733093  46.6263161  25.3008976  85.0838089  45.8803177  25.1904125
  85.5751343  46.8750916  26.2199764  66.0924301  48.0344582  19.1908665
  66.3691025  47.9313927  18.2803364  66.3101807  47.1986275  19.6034279
  34.1622124  37.0076103  74.6853027  34.5407944  36.1285324  74.6740570
  34.8645439  37.5666237  75.0176697   6.9061875  56.3192673  25.4703312
   7.6155920  56.0515366  24.8861237   6.7912498  55.5768127  26.0634441
  18.2112942  64.7680893  27.5543098  17.7047005  63.9594688  27.4786682
  18.8541336  64.7150345  26.8470802  60.3973656  41.7096138  73.7790833
  60.5129356  41.4475174  72.8657455  61.1978607  42.1884232  73.9939880
  40.4200974   6.8389668   7.3029771  40.5345612   6.0045843   6.8480744
  41.2836990   7.0337591   7.6669631   1.4495980  20.9420033  13.5224915
   1.6085503  21.0478992  14.4604425   2.3083935  20.7306499  13.1563883
  85.0372391  55.8403091  81.7905273  85.7752914  56.1250267  81.2515945
  84.3802490  55.5449600  81.1601562  75.2281189  49.0947571  72.1891632
  75.9264832  49.6336479  72.5608063  75.5705185  48.8099174  71.3418961
   4.9417801  61.4770393  39.6731606   4.6252360  62.2856255  40.0759315
   5.8740721  61.6333923  39.5227699  21.2160587  68.0814285  78.9397430
  20.4543037  67.5020142  78.9240952  21.9648800  67.4956284  78.8286819
  58.0311661  43.1566429  76.6877365  58.6922913  42.5685654  77.0528564
  57.8373909  42.7923927  75.8240204  74.0295486  39.8054047  39.9528580
  74.3191605  39.0042419  40.3893204  73.8500443  39.5359459  39.0520782
  64.7281189  38.1459007  40.1258278  64.9401016  37.5109825  40.8100624
  64.5406647  37.6122284  39.3536339  54.9175186  40.8232307  27.1976509
  55.1801949  41.4903679  27.8318138  54.2953987  41.2701530  26.6236649
  79.4782257  62.7069855  22.9688301  79.5650101  63.6502075  23.1067791
  79.6837921  62.5804787  22.0425625  38.4197807  21.8650036  65.2375946
  39.3359032  21.5881081  65.2209091  38.3965034  22.6490154  64.6889496
  82.4151688  43.1104431  65.9368896  82.8592377  43.7930832  65.4338608
  82.4532623  43.4173355  66.8427582  75.5721207  61.1118279  65.1853943
  76.1257477  61.1746750  65.9637070  75.7822342  60.2565575  64.8104324
  44.8524971  29.5584984   5.8652935  45.1084442  30.0695152   5.0974488
  43.9832344  29.2208538   5.6494079  35.4611549  57.1995392  61.7029037
  34.6499138  57.5115166  61.3019142  36.1558800  57.5850067  61.1690483
  32.3791389   3.8188007  65.2536926  31.9594116   3.1925359  64.6639023
  32.8869553   4.3885732  64.6760101  23.0692635  66.1829147  28.5360451
  22.8408222  67.0713577  28.2627029  22.9741421  65.6562500  27.7424450
  67.8287811   3.3228018  16.9721375  67.7940598   3.8206429  17.7889481
  67.0243454   2.8040481  16.9734421  73.7833481  17.5320625  84.7885132
  74.4215317  16.9415855  85.1888733  72.9397659  17.1005459  84.9241333
  70.1357880   3.0322428  63.2628250  69.5114288   2.5160327  63.7726631
  69.9671860   3.9377110  63.5234642  34.2254753  21.1109581  17.9187126
  34.2604485  21.2821922  16.9776039  35.1270370  21.2299652  18.2174759
  22.9768314  51.5420494  38.9247742  23.7905273  51.1104965  38.6642113
  23.0658398  51.6709747  39.8690681  77.2228699  66.1545334  75.1542892
  77.8786774  66.1759491  75.8512039  77.5641937  66.7486343  74.4858780
  44.9754257  58.1035461  56.7844582  45.0150032  58.6879578  56.0274048
  44.1072006  58.2542419  57.1582336  64.1696167  39.3275070  11.0358467
  63.5165977  38.6330833  11.1228533  64.9939117  38.8639641  10.8878508
  38.0354652  42.7493401  23.6488628  37.6809578  43.4670715  24.1736622
  38.4372101  42.1609459  24.2880993  73.0591354   9.8859310  56.3528175
  73.2340240   9.4860296  57.2047119  73.1021729   9.1577482  55.7330360
  43.1501999  34.5497284  52.1392632  44.0242424  34.1748352  52.2476120
  42.8315849  34.1803970  51.3156662  23.8529377  26.4542198   8.5970812
  24.0675678  27.0487003   9.3159399  22.9574795  26.1700649   8.7805052
  75.8117752  20.2930489  22.5333939  75.1755524  20.9986134  22.6501541
  76.1714020  20.4372463  21.6581192  26.0325756  20.9961815  69.6389618
  26.1685238  20.7139378  68.7344818  26.2293587  21.9328899  69.6297150
  83.3648529   1.8496071  25.0050240  83.1727982   1.3080906  25.7706013
  83.7620010   1.2453768  24.3778000  47.9577904  51.5967102  51.7000999
  47.7585678  51.7283821  52.6270332  48.9068909  51.7061462  51.6412125
  34.2206268  60.8829269  33.6901855  34.5781326  60.7724228  34.5712128
  34.8145332  60.3868980  33.1267509  17.3069439  65.3173141  22.5631618
  17.0166473  64.8231812  21.7964840  18.1797447  64.9734116  22.7533665
  16.9771614  70.8069229  28.6572285  16.6938915  71.2749023  29.4427109
  16.6664600  69.9109192  28.7871380  45.5332527  61.2195511  61.8644104
  45.4479485  62.0845566  61.4635162  45.6999512  60.6300774  61.1289062
  82.3928223  22.1134777  12.4621696  82.7140961  22.7901878  13.0580521
  81.4581909  22.0463257  12.6576014  51.9394302  24.7328510  15.1554823
  51.8666801  23.7987556  15.3514585  51.1830521  24.9205952  14.5997190
  21.6625042  51.2743111  32.8514633  21.4884968  52.0883217  32.3788719
  21.7845440  51.5467644  33.7609177  72.1423340  66.8688278  60.2720680
  72.1222839  67.2042923  61.1683350  71.2748260  66.4864349  60.1399918
  70.4972000  47.0557594   5.8783231  70.2332687  47.0820465   6.7980390
  69.8060074  46.5550461   5.4450035  25.8173504  29.2348175  63.7532196
  25.5735283  30.1582031  63.6888695  26.7418633  29.2134342  63.5061340
  47.0998039   7.5738935   0.1220118  46.2985039   7.2779212  -0.3098978
  47.3379364   6.8530307   0.7050060   1.1460810  16.5751877   5.8583956
   2.0695090  16.4752522   5.6270404   1.0509448  17.5042267   6.0683146
  80.8818741  27.0271587  56.2148018  80.6860962  27.8139973  55.7060928
  81.3272400  27.3524189  56.9971657  70.3676682  25.9072571  86.5529861
  70.7165070  25.3371582  85.8677597  70.9979706  25.8337307  87.2696075
   9.2211628  17.4022503  77.6598587   9.4622974  16.7533169  76.9988251
   8.8732166  18.1385899  77.1568985  23.0081196   9.0566940  69.8917923
  22.4373016   8.3388681  69.6176987  22.7839851   9.2034245  70.8107376
  78.0788193  58.9342842  34.5015793  78.5358887  59.7015610  34.8459702
  77.3267593  59.2944603  34.0315704  84.9942322  67.7790298  13.0911465
  85.7174225  67.1762619  12.9182510  85.1610031  68.5248032  12.5147400
  30.3269119  43.8288918  88.6491013  29.4345570  44.0021095  88.3492203
  30.3132343  44.0479012  89.5808029  12.0871820   0.1358589  27.0845909
  11.8923626   1.0335697  26.8155327  12.3508453   0.2125259  28.0015621
  50.4234314  59.3682098  85.5686646  50.9126701  58.6735840  86.0095367
  51.0975533  59.9449692  85.2092972  17.7654266  19.0011177  29.0657196
  18.4880581  18.5994434  29.5481033  17.8283176  19.9335594  29.2726707
  72.0175705   4.8102384  84.9099808  72.4625244   4.3779840  84.1810074
  71.3335495   4.1941619  85.1722717  18.0942822  63.3898392  55.4826088
  18.2435608  64.3299026  55.3814964  17.8441162  63.0916290  54.6081276
  40.7398376  -0.3203991  83.3409882  40.0800438   0.0925831  83.8980865
  41.4449463   0.3246344  83.2863846  49.4279251  68.2685928   3.5161304
  49.9677391  69.0037689   3.8065593  48.7709656  68.1670532   4.2048435
  65.9160995  66.3881760  63.8837814  65.7197876  65.4513931  63.8949356
  66.8700333  66.4322205  63.8181458  43.2049026  51.8396988  14.6604919
  42.9847908  51.5108719  13.7889109  42.3982353  51.7379570  15.1656351
  33.6968536  60.8359985  52.6774139  33.7733574  59.9035454  52.8796692
  33.3309212  61.2242279  53.4721489  49.0917702  49.0772629  79.6990204
  49.8066139  48.8516922  79.1037445  48.6785316  48.2389336  79.9055862
   7.7279716  16.6118946  68.0635986   7.9827614  15.7096367  67.8706131
   8.5563250  17.0684814  68.2105408  57.0573349   3.5787485   4.6587334
  57.8442345   3.9330947   5.0728068  56.7798767   2.8698401   5.2389913
  25.4073925   0.9769498   8.7500000  24.8140450   0.2301244   8.6698637
  26.2236958   0.6784044   8.3490610   2.7336953  41.5307465  60.8595695
   2.4141436  41.2512970  61.7174911   3.6847744  41.5712280  60.9597778
  63.9980392  69.1337814  10.3897638  64.9139709  68.8557663  10.3922634
  63.9349327  69.7438965   9.6549110  53.0592155  39.1119652   5.2407928
  53.1977386  39.3573151   4.3260007  52.4473534  38.3768997   5.2016053
  37.5493927  19.3271561  83.0408859  37.1869125  19.5906429  83.8867111
  36.8263359  19.4418716  82.4242325  27.2515640  40.7758942   8.2186327
  27.1349049  41.7247353   8.1704245  27.6841373  40.5456810   7.3963714
  74.1457062  46.5333328  76.6188126  74.3387451  47.1283455  75.8942947
  73.5368805  47.0210114  77.1735458  60.0013390  35.6271515   1.5984241
  59.5960655  35.9091568   0.7783895  59.4980049  36.0725937   2.2799411
   2.4229085   1.7148242  44.7631950   1.6173952   1.6516945  45.2764130
   2.3463571   2.5483520  44.2988625  85.6364212  67.6429520  76.9579010
  85.8840866  67.3129044  77.8215942  86.1137390  67.0861206  76.3428040
   4.2903948  17.3586388  51.4623108   3.4225178  17.2815075  51.8586311
   4.2922354  16.7071075  50.7610703  83.1288071  43.1539459  37.7723999
  82.4227829  43.2990227  37.1425438  83.9092407  43.5030975  37.3419991
  54.6379433  13.7639322  72.9774551  55.1059494  13.9188833  72.1569748
  55.0670891  12.9970264  73.3568344  24.1551838  35.2212181   6.2667894
  24.4565315  35.7848091   5.5541992  24.7718201  34.4891090   6.2702570
  36.9953079  50.5378113  33.4730034  37.0197639  50.9162407  34.3518829
  36.8656044  49.6007805  33.6192322  46.5593987  12.9223595  66.7377701
  46.5452347  12.9938259  65.7833481  46.7890129  13.8009653  67.0403595
  79.8395233  61.1223526  25.0545597  79.6333466  61.6312294  24.2704849
  79.0578766  61.1983566  25.6018162  22.8339615  42.7191200  46.1852303
  23.4988823  42.0709229  46.4175148  23.3307076  43.5162621  46.0007401
  21.1483803  36.2734222  49.7881165  20.1914806  36.2560005  49.8045616
  21.4049625  35.3513336  49.8003502  65.4806366  10.6248112  65.8755798
  65.0309753  11.0899773  65.1701279  66.4085312  10.6839552  65.6481094
  15.0997372  30.0893135  65.4651337  14.6190367  30.9072666  65.5920486
  14.5496817  29.4220791  65.8755798  10.6293507  40.7485504  32.2480888
  11.1413336  40.1907234  31.6624832  11.0337839  40.6286964  33.1073341
  52.5881691  65.6430359  69.8150177  52.7155495  65.8835983  70.7326965
  53.4606857  65.7086411  69.4268875  38.7747879  17.4436722  79.6402206
  38.0937157  18.0230007  79.2985382  39.2886581  17.1982803  78.8708344
  54.0786057  39.3875046   2.8447015  53.7715607  38.6016998   2.3925216
  55.0027695  39.4560814   2.6050065  58.1584244  48.7351379   6.8532100
  57.8165283  49.6055984   6.6491542  58.9884834  48.9024277   7.2995787
  46.3508797  27.0572720   4.7021217  46.1380653  27.4722958   3.8662419
  47.2990303  27.1587906   4.7854013  12.0095549  18.0943260  17.4405823
  11.7346630  18.6855240  16.7397614  12.3902111  17.3434734  16.9850006
  18.0432148  66.2858734  29.6552258  18.0577927  65.9332428  28.7654667
  18.5849819  65.6806641  30.1616249  46.1282539  55.7960472  69.0485153
  46.3650589  56.7053680  69.2309647  46.3285713  55.6780624  68.1199722
  62.7844887  13.4605122   5.1557307  61.8497620  13.6570950   5.2179828
  62.8715782  12.9665480   4.3404722  67.9274902   3.0871241  13.4248629
  66.9717255   3.0371151  13.4090958  68.2100983   2.2001638  13.6477261
  14.8937492  64.2821045  44.6754379  14.9368210  63.3299980  44.7641220
  15.0522537  64.6124420  45.5597382  59.5298004  48.0230789  28.2991772
  59.6555290  47.4511299  27.5420113  58.7664948  47.6607132  28.7489414
  67.8906403   5.6734953   5.0804906  68.7261276   6.1276016   5.1899910
  67.5363617   6.0181165   4.2607632   2.8619683  67.4032135  23.7435970
   2.0365763  67.5301819  24.2113991   3.3736713  68.1870346  23.9436245
  25.2432804  31.8066959  63.9378166  25.4346466  31.7566605  64.8743591
  24.6976662  32.5878143  63.8462410  39.4547234  49.5258064  35.1435776
  39.8048248  49.2631569  35.9948578  39.9496689  49.0059509  34.5103226
  14.9650955  10.5360804  77.5312042  14.4287767   9.7798042  77.7692032
  14.4179506  11.0368242  76.9261322  82.3235016  14.0780239  13.1844721
  82.2009354  13.7081509  12.3101702  83.0668411  14.6737089  13.0904808
  17.5060539  65.4901352  87.5277328  17.3706684  65.5582123  88.4728622
  17.8840160  66.3335190  87.2785568  22.4525871  53.0687103  14.4447517
  22.2642117  52.2896004  13.9215555  21.8336811  53.7260818  14.1268673
  83.7685089  21.0260086  69.3167496  84.1590424  21.3950119  68.5245667
  83.2308273  21.7342701  69.6709976  14.7086620  50.8651199  81.0431671
  15.2459440  50.4084816  80.3958359  14.7461920  50.3086052  81.8210602
  55.9920998  20.1047058  16.7264328  56.8649406  19.9920483  17.1028519
  55.3976021  19.7599277  17.3927135  80.8040543  67.3321609  79.8017654
  81.1831818  68.2089615  79.8627853  81.3235626  66.8929138  79.1284103
  53.5511093  50.4426689  10.1478796  52.8147926  51.0336647  10.3053389
  54.2925873  51.0237503   9.9782181  78.8590775  33.5827255  14.5662632
  78.7396393  32.6330681  14.5555239  78.1652298  33.9048958  15.1416016
  46.2791290   8.5249643  68.7416000  46.5344734   7.7282500  69.2066574
  45.7193604   8.2172060  68.0287399  68.3412552  15.6155930  46.5567513
  67.6662369  15.9916191  47.1217194  67.9227524  14.8520670  46.1591148
  24.5046768  59.4219627   1.8334723  25.2928429  59.9537468   1.7228825
  24.7282715  58.5778999   1.4413024   5.5461960  68.3578568  25.9787674
   5.8133011  67.4408340  26.0416298   6.2212100  68.7673798  25.4375820
  58.1941757  10.4491377  76.8789978  58.9351196   9.8542633  76.7634430
  58.4442024  11.2390604  76.3996887  74.4093475  31.6519814  88.9500427
  74.8653717  31.0170593  88.3976364  73.4842224  31.4206619  88.8672180
  35.0643845   4.5653172  86.3744507  35.2240372   4.5984631  85.4312439
  34.6151276   5.3875213  86.5703659  68.2549133   4.3268495  52.4155235
  68.4567413   5.1602225  51.9901009  67.5387344   3.9604127  51.8968315
  62.9129944  11.9749060  74.7091827  63.0571480  11.8914309  73.7665939
  63.2013321  12.8634815  74.9178162  11.1011906  20.7148285  71.5906372
  11.6663504  21.4070587  71.2476425  10.5665207  21.1493893  72.2551041
  24.2267399  43.4946480  83.7710190  23.5221386  44.1114540  83.9692993
  23.8397598  42.6323051  83.9221725  34.7232628  62.7674370  50.6464119
  34.8707771  63.4782410  51.2702942  34.2213898  62.1174240  51.1381836
  46.0199165  55.5104408  63.9646378  45.1310997  55.7461281  64.2305069
  45.8997116  54.9451981  63.2015610  63.7652626  49.3028145  35.4567795
  63.6450920  48.5493622  34.8787651  63.6558075  50.0629120  34.8853722
  27.5037937   7.2503018  77.6730042  27.3853035   7.8858204  78.3789062
  27.4867191   7.7752428  76.8727646   4.7687187  20.5557098   7.5031662
   3.8725550  20.4987736   7.8346496   5.0427184  19.6448631   7.3958569
  22.5114574  64.2358704  56.9105911  22.8263226  65.0727768  56.5690079
  21.6196976  64.4183121  57.2067528  38.2264366  14.5971737  20.4926395
  37.5835190  14.9641953  21.0994186  38.4456978  15.3228350  19.9081974
  74.5308380  68.3633575  70.3875885  74.2971878  69.2455978  70.0989914
  75.4011841  68.2132645  70.0185242  67.6321564  20.9808750  27.1427555
  68.3913574  20.9888229  26.5598431  67.9222488  21.4577160  27.9203815
  52.7990952  34.5784340  85.9873962  52.3223953  34.9916382  85.2675018
  52.4133530  33.7054329  86.0602112  83.4632187  47.1416092  47.7042809
  83.3782425  46.4862862  48.3967857  82.6462402  47.0750351  47.2099686
  64.1920700  54.9763947   9.5202522  64.7263336  55.7700043   9.4889679
  64.8272781  54.2605057   9.5359926  63.1594238  40.6889915  42.5256882
  62.8681412  41.5024338  42.9376373  62.3521347  40.2668991  42.2318230
  75.3441772  26.7816982  59.6582947  75.2801971  27.6213074  60.1134796
  75.4725418  26.1398048  60.3566704  66.2864151  47.5629692  34.1654739
  66.9890213  46.9231873  34.2805557  66.6981888  48.4069061  34.3510704
  53.8916206  37.3822250  20.1499615  54.6302376  37.2181664  19.5636463
  53.1182709  37.2810783  19.5950489  47.2010841  52.0659180  43.0798340
  47.3168869  52.1410713  44.0270271  46.4051895  52.5647278  42.8955193
  56.6964836  27.0876141  86.3796234  57.5570297  27.0150433  85.9667969
  56.5700417  26.2467766  86.8192062   5.1978765   3.4012027  39.0906601
   5.9508886   3.8543990  39.4698944   4.6026311   3.2671967  39.8281975
  72.5334778  31.9867077   6.0841761  72.1642456  32.7003021   5.5639048
  73.3737335  31.7961731   5.6671710   6.7104654  20.1396999  67.7008972
   6.3073001  20.8543854  68.1937637   7.6455774  20.2154789  67.8907852
  27.9292202  21.3781357  83.7530518  28.7508183  21.0699806  83.3706284
  28.1153336  21.4572430  84.6886444  17.0648441  24.9241543  88.6718292
  17.1008053  24.4212074  87.8582001  16.2702599  25.4519176  88.5922470
  48.8168411  30.6402473  49.7694168  49.4995651  30.7299614  50.4342995
  48.4414558  31.5173321  49.6917114  61.3369675  14.3078594  46.8321724
  61.2719078  13.7508488  47.6078873  61.4757080  15.1885195  47.1806259
  73.1746750  28.9944324  51.9324074  72.4883118  28.3336468  52.0246048
  72.7063828  29.8292007  51.9424438  25.5107880   8.7083378  73.2040329
  25.6683102   9.6415396  73.0606689  24.8788300   8.6796980  73.9223938
  80.7580566  68.4319687  65.2396851  80.2060699  67.7719955  65.6591721
  81.6288223  68.0352554  65.2148132   1.5897439  38.3492813   9.2039890
   0.9623000  37.6767540   9.4690466   2.4285858  37.8903046   9.1601982
  61.4201927   7.8857546  63.8396111  62.3333664   8.0004673  63.5765648
  61.1383514   7.0912309  63.3862572  34.7979431  26.2928677  88.0057602
  35.1321754  26.8230705  88.7292252  35.0010948  25.3914642  88.2556229
  47.5232086  21.5373077  18.8204098  46.6607208  21.8061275  18.5040607
  47.5110626  21.7450008  19.7547264  36.0305519  16.8585472   8.8867970
  35.5528946  16.3106384   9.5095901  36.3321457  16.2487049   8.2134733
   4.2651105  49.3967628  69.3387527   4.5014157  49.3163490  70.2628326
   3.3743980  49.0499001  69.2882462  23.4754410  71.7954178  81.4921265
  22.6602764  71.3593826  81.7403412  23.8566227  71.2274399  80.8225555
  43.7639160  33.9781723   6.4980922  44.3282013  33.3352203   6.9275403
  44.3622284  34.5079308   5.9712052  51.5955734  62.8972321  59.9216347
  51.1578255  63.2373543  59.1412964  52.2210541  63.5806274  60.1624184
  56.2610435   3.0699561  55.9878998  56.6679802   3.6945651  55.3874855
  56.9977264   2.6118712  56.3924866  34.4444466  30.3300476  78.6213837
  34.1160774  31.2167797  78.4726868  34.3136826  29.8828602  77.7852249
  53.7595749   2.7993493  49.6133537  54.1144791   2.9970279  48.7466393
  53.8914757   3.6036277  50.1153221  78.1606979  21.7080593  42.6089325
  77.8970642  21.4073334  41.7392807  77.6955566  22.5362453  42.7271767
  86.0583954  56.0214539  75.4925003  86.6738358  56.2151604  76.1995621
  85.6480408  55.1963615  75.7514801  70.0520554   1.7373135  21.4163342
  70.0562363   2.0315251  22.3271885  69.2986450   2.1796277  21.0252247
  81.8334351  57.2330475  26.5309238  82.7901077  57.2055092  26.5148640
  81.6226196  58.1573105  26.6633263  72.4659958   5.5042582  39.6111832
  72.7034988   6.1656213  38.9612427  71.7913589   4.9780707  39.1819572
  74.5095444  23.7478848  13.1476383  74.1744461  23.2053108  13.8614721
  74.1999588  23.3149300  12.3520622  85.1071777  61.2157516  11.8321037
  84.6842117  61.7059937  12.5370789  85.1001892  60.3075294  12.1342888
  23.0812016  48.0297127  14.2836809  24.0381527  48.0135536  14.2688904
  22.8453388  48.7659988  13.7193375  82.9491959  68.8073959  15.3357782
  83.1715775  68.7908020  14.4049168  83.4776077  69.5198135  15.6956062
  85.9694443  64.1877975  66.3447952  85.0272293  64.1836777  66.1761322
  86.2724152  63.3352699  66.0323257  41.1339111  33.1366196  35.5685921
  41.6445045  32.5637016  34.9964981  41.2358208  32.7563667  36.4410896
   1.6884149  18.9371967  64.0285110   1.1007671  19.5523853  64.4671936
   2.5333457  19.0638618  64.4601135   3.7860031  10.2896481  73.8681870
   4.5320377  10.8114204  73.5725250   3.5058730   9.8093004  73.0890732
  38.7727432  37.4700737  25.0926495  38.3156700  36.6306572  25.1445580
  39.5904999  37.2697563  24.6372566   0.3280072   0.9082017  79.8637085
  -0.3622192   1.3177934  79.3421173   1.0037365   0.6760474  79.2267380
  44.8728409  58.6232529   6.6502700  44.5964317  57.8650436   6.1355429
  44.5906448  59.3786316   6.1345148  59.6081238   2.7909834  46.6532516
  59.5708961   1.8735780  46.9238319  59.0386963   2.8374774  45.8852539
  29.8450699  40.5013504  63.6329613  30.7872849  40.6251488  63.7475891
  29.7478161  40.2366104  62.7182541  60.7222328  64.9379044  65.2790527
  61.5055618  64.8865204  64.7313461  60.9959450  65.4482193  66.0412216
  79.0073013  10.8877602  34.9712830  78.9160233  11.8297548  34.8279381
  78.7884293  10.4946156  34.1264381  42.7276726  37.3045731  28.6977921
  41.9246063  37.8251076  28.6787167  42.9554749  37.2495995  29.6258621
  11.5080366  45.9828033  68.7954712  11.7230911  45.8295097  69.7155228
  11.8751726  46.8458748  68.6042786  85.2097626  18.2525768  15.0954847
  86.1569595  18.1730289  15.2082863  85.1051941  18.6949387  14.2531004
  47.5392227  66.5942764  82.0733032  47.5863914  66.8910217  81.1644897
  46.6512451  66.8175430  82.3523788  13.8920841  40.7343712  87.3613129
  13.8881664  41.3748589  88.0726471  14.0696192  39.8984947  87.7926254
  64.6747360  40.2203445  37.1211281  64.2712860  39.9124489  37.9327087
  64.7193298  39.4421349  36.5655785  41.4118881  22.8453808  15.4829445
  41.6622238  21.9885845  15.1373053  40.8411942  23.2174606  14.8105659
  41.0523872  23.6289139  83.4894485  41.1186218  24.5362568  83.7870636
  40.7505341  23.6954269  82.5835266  60.2526741   4.4093046  81.8327255
  60.2520103   3.6598094  82.4281158  60.4713097   4.0365224  80.9786377
  30.4779110  45.1921158  82.8923874  31.3087883  44.7261162  82.7990036
  30.6780682  45.9240417  83.4758682  82.0921478  60.9162292  23.4295044
  81.4082794  60.8728867  24.0978394  82.2883682  61.8495293  23.3477783
  41.9873047   6.2470298  61.1988564  42.5240860   7.0377822  61.2518349
  41.1855240   6.5307932  60.7596970  67.7336655  33.0603447  64.2672119
  67.2923813  33.2165031  63.4322739  67.1685486  33.4762802  64.9182663
   6.1117835  68.3038483  57.3097038   5.6319823  68.0168457  58.0866547
   6.5649157  69.0996017  57.5884094  31.4106102  47.1006165  43.8724327
  32.1174164  47.3475418  44.4688225  31.6981373  47.4173317  43.0161285
  84.0864182  21.0956783  27.4283218  84.9903793  20.9360600  27.6996422
  83.7985458  21.8280430  27.9733009  79.9926376  61.4509811   5.6454501
  79.3389053  60.7837753   5.8544946  80.2324905  61.8251877   6.4931936
  40.5200996  34.9202728  12.1567163  40.7201309  35.8462143  12.0194130
  39.7461014  34.9233894  12.7198734  32.8410530  53.3645134  22.9308376
  32.4715080  52.7548676  23.5695858  33.0639381  54.1419334  23.4428654
  32.9060974  53.2741394  41.1909294  33.0910568  54.1784630  40.9375076
  32.2683220  52.9700966  40.5451469  58.2316132  42.3358994  51.8378906
  58.9695702  41.7488213  52.0021706  57.5506744  42.0394554  52.4417763
  44.6297951  55.0163269   7.8680520  44.1901207  54.6951218   8.6552906
  43.9450188  55.0285034   7.1993484  56.8624611   7.6112542  58.5457764
  57.6958809   8.0053520  58.2882347  56.8636475   7.6519661  59.5021095
  55.3112335  16.9306068  62.2715607  54.7382011  16.2491474  61.9201622
  54.7123489  17.5998993  62.6026459  29.7357082  67.6011963  81.4752731
  28.8752460  67.4717560  81.8741302  29.6226807  68.3600388  80.9029007
  72.8140793  46.8294334  60.3711510  72.3432465  47.5735397  60.7464561
  73.2851944  46.4462471  61.1110497  35.1938286  30.6899166  87.7607117
  35.8263588  30.9403572  87.0873489  34.3459930  30.7249508  87.3177948
  71.1719818   2.1582167  30.6993446  70.7017593   2.9626946  30.9182987
  71.0577545   2.0638494  29.7536812  47.6740532  51.4148521  79.4713211
  47.1607590  51.3049622  78.6708984  48.2103806  50.6236687  79.5224304
  84.4285431  59.3617325  33.5936584  84.2058334  59.8407440  34.3918953
  83.9586411  58.5316391  33.6734772  78.6629486   1.0836532  51.1785622
  78.5245972   1.6438918  50.4148712  78.1958389   0.2746387  50.9698982
  30.4653721  43.5428467   3.8200097  30.7774239  44.2657967   3.2757668
  31.2075291  42.9400978   3.8661180   9.9387054  32.0362167  44.8658676
   9.8042536  32.0960579  43.9200478  10.8302507  31.7008667  44.9603081
  81.5491180   2.8290768  78.8655930  81.7847748   2.3807924  78.0533524
  81.5585403   3.7586639  78.6375351  10.4938641  34.6046982   2.4475589
  11.2617121  34.1345863   2.7725813  10.7477589  35.5271530   2.4766097
  27.6468639  55.7957611  48.5591698  27.4083748  56.4078369  47.8629532
  27.6295528  54.9360771  48.1386032  45.5551758  34.0496368  53.2313499
  45.5310173  33.1743202  53.6179581  45.1426544  34.6123657  53.8866348
  13.4231596  34.7679710  39.7559052  12.8145828  34.3785286  40.3837624
  13.6201744  34.0599823  39.1425781  83.9600754  14.2481489  29.4579391
  84.9081955  14.3760004  29.4887104  83.8495483  13.3068008  29.3242226
  13.2311440  56.1068497  29.1768951  13.0940943  56.2557182  30.1124630
  13.8895998  56.7544212  28.9252605  27.2282505  35.7754707  32.4267349
  26.8736343  35.4187431  31.6123486  28.0251770  36.2339554  32.1604004
  57.7068748  38.2589073   7.6677351  56.8609848  38.6980476   7.5790920
  57.7260170  37.6283913   6.9477921  36.4775848  60.7307320  35.3918495
  36.2692184  61.2514076  36.1675491  36.9403305  59.9658623  35.7340012
  22.9974270  35.5746498  22.6715641  22.4265327  36.2041283  22.2310295
  22.8227730  35.7043991  23.6037083  78.3964615  66.4298401  57.9946976
  78.7873993  65.9021759  58.6910934  78.8661118  66.1674042  57.2029915
   7.1111026  15.4759350  14.9396658   6.4072704  15.4547491  15.5880508
   7.9140167  15.5184422  15.4590435  35.7901878  61.0491524  26.5087414
  35.0378036  61.6061745  26.3090496  35.4078484  60.1987610  26.7252674
  61.0520172  17.4506207  84.8825836  60.1385231  17.7182922  84.9831390
  61.4568253  18.1620522  84.3863678  37.4163132  16.4089127   0.5268697
  37.3767166  15.7801228  -0.1937463  37.0051765  15.9557877   1.2629908
  61.5137787   9.8716002  41.2494812  60.5688896   9.8399973  41.3992004
  61.6459351   9.3683662  40.4460373  55.2158203  32.2226715  31.6914940
  55.1043434  31.9286919  30.7874031  54.3419800  32.1521225  32.0757637
  10.5359030  11.6601954   8.3314123  10.7499094  11.2046843   7.5171990
  10.8831282  11.0942373   9.0208740   8.5122919  45.3882294  71.4171066
   8.3848829  45.4924736  70.4741669   9.0841236  44.6249504  71.4985962
  14.9680414  54.8868027  58.0126190  14.4011679  55.6051178  57.7317009
  14.7691517  54.1734886  57.4061089  32.4395218  51.2578850  76.5537262
  31.5229893  51.0994949  76.3276367  32.4801903  52.1945457  76.7467041
  32.6668091  41.0145302  45.0321846  33.1211700  41.5336380  45.6957474
  32.8745499  40.1069603  45.2544327  62.5071144  18.0217667  57.7752647
  62.6476746  18.7415791  57.1601639  61.5561371  17.9183903  57.8096962
  49.5020103  41.5730247  84.8111420  49.8520660  41.5597992  83.9203491
  48.8123932  40.9092102  84.8073654  64.1338654  63.5411720  58.0281219
  64.8021164  63.0116882  57.5930061  63.3407478  63.3974457  57.5118484
  80.6929016  36.9397850  27.5079117  81.0108795  36.1820641  27.0170155
  81.2020035  37.6758881  27.1685009  78.7172852  29.7467270  69.2492599
  78.4215393  29.4016800  68.4068146  77.9447861  30.1762657  69.6166534
  35.9705238  59.2032356  11.2030668  35.8619194  58.6366501  11.9668856
  36.6443748  59.8308640  11.4642925  75.7337494  21.1825962  73.8394394
  75.1111603  21.5834999  74.4459839  75.1873169  20.8047104  73.1503448
  85.6677628  25.6113853  40.3111305  86.1157303  24.7790947  40.1599922
  86.2872696  26.2752762  40.0083275  82.0802689  68.4153137  62.7654839
  81.9267654  68.6163177  63.6886673  82.3668365  67.5020218  62.7636452
   3.4105537  55.4192238  86.3217545   3.3173769  54.7359276  86.9855804
   4.0113997  56.0531883  86.7132950  10.5801992  70.9302902  14.7722797
  11.5076885  70.6963577  14.7366524  10.3773451  71.2404556  13.8897390
  40.9278145  54.2540207   6.6547399  41.5553703  54.4248047   5.9524336
  41.0086784  55.0093536   7.2371192  81.8911972  52.5780334  34.1804886
  80.9343262  52.5645866  34.2014999  82.1182098  53.5076637  34.2025032
  78.0762558  69.0144424  38.3036499  77.7660065  68.8021317  37.4233627
  77.9846954  68.1971664  38.7934647  26.3256073  43.2855721  85.6849976
  25.7537880  43.6067886  84.9878082  25.7320652  42.8637733  86.3063049
  71.2457428  23.3421917  17.1330757  70.8937302  23.7759304  16.3557758
  70.6936722  23.6521435  17.8509808  66.7782974  67.6893158  67.6216278
  66.1762009  66.9474258  67.5640945  66.5916977  68.2103424  66.8406372
  17.9528561   3.6540408  61.6650696  17.5790043   3.0571966  61.0168114
  17.4872952   4.4790277  61.5276642  25.0773125  53.8449440  41.3461914
  24.6444359  54.6498795  41.6306725  24.3988686  53.1727257  41.4099808
   4.0479431  19.7426662  26.1273766   4.5775819  20.5390224  26.0882359
   3.1444800  20.0525646  26.0645313  61.7764854  55.2667770  80.5800171
  61.7804413  55.8515053  79.8221893  61.1615219  55.6716194  81.1917038
  62.1255760  44.8708000  13.5597696  62.3936081  44.1391754  13.0037889
  62.2449646  45.6454430  13.0103083  84.8227081  31.0800762  15.1823826
  84.1786575  31.2907715  15.8584290  85.5806351  31.6243877  15.3956823
  20.5725060  48.5139732  68.1043167  20.9129791  48.2399750  68.9559174
  19.9439259  47.8321953  67.8670502  58.5874939  63.7578239  58.5929756
  58.7114334  63.7532234  59.5421066  57.6619873  63.5460510  58.4712563
  49.3563423   8.8766632  45.4647255  49.0940208   9.7970715  45.4810333
  49.2406769   8.6107740  44.5525017  12.4681673  55.5931358  25.3064804
  13.4202557  55.5017548  25.3439980  12.2728662  56.3133011  25.9060249
  14.1793909  71.3406754  52.1914787  13.7659140  70.5136032  51.9440575
  13.4750795  71.8500443  52.5923767  10.2693644  14.3612003   5.4310455
  11.2048187  14.1586180   5.4202228  10.1624708  14.9597998   6.1702914
   0.6833917  45.7997437  61.1471252   1.4173083  45.5158272  60.6021576
  -0.0003397  45.1495895  60.9857330  27.9744263  25.3825378  66.2249832
  28.4750710  26.1822052  66.3865891  28.6383591  24.7153339  66.0510178
  53.2258682  46.1687050  54.6252747  53.5648727  47.0638123  54.6154823
  52.3586502  46.2453690  55.0231247  77.9310150  36.0504494  63.6394424
  78.0350342  35.5850563  64.4693985  77.1615448  35.6497688  63.2349663
  84.5004730  65.6600876  68.7518768  84.0890350  65.2597275  67.9859390
  85.3063278  65.1596375  68.8799057   5.4520965   8.7134552   0.9623705
   5.9852757   9.4995003   1.0810483   5.5917864   8.2063007   1.7620659
  47.4849319   2.7058296  47.7281647  48.0392761   3.2331421  47.1529465
  46.6617355   3.1916497  47.7787628  86.1807251  43.3051338  76.0956802
  86.5397949  43.4332161  75.2176743  86.3148651  44.1453209  76.5342255
  78.0329514  28.2198200  16.8957405  78.3825073  29.0246334  17.2782536
  78.2141800  27.5452042  17.5501728  53.1883430  30.6120663  71.1099625
  52.8339005  29.7384453  70.9444733  54.1215401  30.5333767  70.9120178
  62.5112457  49.3998184  68.3703308  63.2338333  49.7163925  67.8282242
  62.4629326  48.4626617  68.1815720  84.0806274  37.5092926  82.3572388
  83.8366547  36.7866707  82.9356155  83.7403259  37.2549171  81.4994965
  72.4130249  12.3918524   1.7960640  72.5754700  12.1498718   2.7078154
  72.9390717  13.1798944   1.6600404  19.3490658  65.7643127  55.2704430
  19.2788258  66.7188721  55.2810822  19.7917671  65.5659103  54.4452896
  15.0931883  51.6915855   0.3366959  15.3539448  51.1035500  -0.3721424
  15.1137505  51.1442795   1.1217227   9.8493996  58.0718803  30.9886189
   9.6419249  58.5336609  30.1762505  10.1564207  57.2113342  30.7032547
  58.5296402  70.0944214  26.6670074  58.4332771  70.3161240  27.5931797
  58.0884628  70.8060989  26.2032127  40.2218628  64.3067780   6.8424158
  40.4832993  64.6578293   7.6936765  40.8105202  63.5659637   6.6978121
  83.8892441  18.7497807  26.0551949  84.0659485  19.5899677  26.4783859
  84.2322617  18.8519268  25.1674232  69.2661438  70.9210663   9.9320202
  69.0275192  70.5538406   9.0808821  70.1736298  70.6472321  10.0651083
  53.1250534  17.1493778  49.3584557  53.6883049  17.7898788  48.9240150
  53.6862450  16.7479210  50.0218773  23.3051262  68.9716568  12.2417326
  23.5588360  68.3812637  11.5322981  22.5216599  69.4147186  11.9159918
  53.4817657  54.7269363  85.7716064  52.7591324  54.7713966  86.3977432
  53.6526566  53.7907028  85.6691589   7.9733491  38.7220383   5.7831597
   8.6899004  38.1872635   6.1249261   7.3796134  38.0931129   5.3730831
  30.5119495  55.9273720  41.4061203  30.2315063  55.6969414  42.2918320
  31.4681149  55.9039001  41.4439201  63.5565605  59.6941414  44.7945137
  63.5123100  60.0426598  43.9041176  63.2197952  60.4008293  45.3453445
  52.7281494  70.4964600  74.0964737  52.3418999  69.8192673  74.6518631
  53.5368614  70.7421951  74.5457382  25.6985378  63.8918419  80.5946884
  26.3072662  63.4377747  81.1773605  26.2448196  64.5159225  80.1168518
  69.9319534  21.9105186  21.6712990  69.5694351  21.4068260  20.9425259
  70.0970917  21.2597332  22.3535309  86.2312851  42.6171341  32.1510849
  87.0190659  42.3908157  32.6454620  85.5123520  42.2478142  32.6638908
  74.4137650  24.2545891  75.4038239  74.9996719  24.1373940  76.1516266
  73.7786713  24.9078941  75.6972275  84.3167725  41.3278694  68.8430176
  83.9265823  40.4597473  68.7412643  83.5858002  41.9343910  68.7245331
  61.5658722  56.0777931  14.6190462  61.1779289  56.1700554  15.4892302
  62.2254181  56.7701759  14.5762100  57.5261459  66.5978317  33.5914574
  57.0657845  65.8055649  33.8682518  58.3280182  66.6038666  34.1141396
  26.7316074  15.6520929   4.1419125  27.5104389  15.2064438   3.8086734
  26.1478481  14.9436054   4.4130268  61.8340073  68.9901199  46.3968544
  62.2034950  69.7974701  46.7544785  62.5868034  68.4084244  46.2912102
  79.5609894  66.6526108  66.9865570  78.8157959  66.0705261  66.8378906
  80.1909943  66.1168365  67.4685059  54.1225548  55.7383080  55.9461365
  55.0607872  55.6427498  56.1099091  53.7878952  54.8415375  55.9402390
  46.5099068  19.7164173  36.5598373  45.6523056  20.0249958  36.2673798
  46.9290085  19.3853760  35.7654839  86.0162201  53.6539307  67.6467896
  86.6925125  53.7472954  68.3177185  86.4813232  53.7765198  66.8192139
  19.3708153  57.8577614  70.3211899  18.9299011  57.0348167  70.1100159
  19.2523003  58.3999634  69.5413132  53.3397827  30.5802498  24.8387032
  53.9933815  31.2521572  25.0325661  52.7540169  30.9921169  24.2035084
  29.3979130  56.8536186  52.1260071  29.7224369  56.4378738  52.9248009
  29.3267479  56.1373024  51.4950905  71.6323318  58.7709160  33.9713097
  70.8514175  59.1660614  33.5836716  71.8647690  58.0618973  33.3717270
  71.3715134  39.6506767   0.8096706  71.7577972  38.9966164   1.3920993
  71.1092529  39.1553383   0.0337234  11.2371264  45.0502472   4.9187427
  11.8196659  45.7618179   4.6531358  10.9602604  44.6475067   4.0957127
  58.6240120  20.6613731  70.4581223  58.3569565  20.3343620  71.3171768
  58.0379372  21.3992519  70.2899399   0.7929362  66.6484222  31.8324947
   0.8674203  66.6601334  30.8782692  -0.1129592  66.3878174  31.9988422
  24.5274830  14.6434746  77.5959473  24.5044975  15.5922441  77.4712830
  24.5883656  14.2868690  76.7097397  36.1826477  53.0010376  78.0629196
  36.7769394  53.2921181  78.7545242  36.4762154  53.4699783  77.2817993
  18.4467392  12.4837484  16.7923737  19.2781944  12.8929129  16.5525837
  17.8119106  12.8540497  16.1791019   2.6827068  67.0051346  85.8526840
   3.0479662  66.2267761  86.2733688   2.8968275  67.7225189  86.4491196
   5.7360387  54.0169449  82.9815826   5.9681478  53.1254692  82.7215271
   6.1844573  54.5759697  82.3470383  62.4692230  61.8394852  48.6834869
  61.5827103  61.8395805  49.0444984  62.8712692  62.6336365  49.0354958
  42.2022858   2.3869405  74.7848969  42.4878159   2.5308847  73.8826828
  42.8384705   2.8652127  75.3166428  66.1057510  51.1621704  70.7567062
  66.4456329  50.3048096  70.5004959  65.2184067  50.9845848  71.0686417
  77.0355072  15.1676750  68.8481369  77.6953888  15.6761684  68.3767242
  77.2771683  15.2577829  69.7699356  50.1010551  64.4853287  69.9329834
  51.0435562  64.6524048  69.9360123  49.9885216  63.7591324  69.3196259
  12.4709682  44.2470589  79.1142883  12.0904350  43.4503441  78.7446060
  13.3558331  43.9913216  79.3747559  65.8821640  43.3016243  17.4750881
  65.0553894  43.3088150  17.9573975  65.7092361  42.7508965  16.7115250
  26.0474739   5.9380808  28.0115108  26.3234024   5.9219441  27.0950851
  26.1406021   5.0319753  28.3056736   0.6556942  29.9760437  26.7806492
   0.6483424  29.6884995  25.8676891   1.5138298  29.7080135  27.1092739
  39.3235359  56.5464096  17.1815777  39.3693047  55.7352066  16.6755276
  40.1200142  56.5427895  17.7124634  79.5097580  30.6032085  50.1055374
  79.1243439  30.5580330  49.2305260  79.5099564  31.5362358  50.3192902
  60.2487450  23.5938911  75.0984421  60.1371231  23.8031540  76.0257950
  60.4008331  24.4404945  74.6784821  13.2212486  57.3262444  36.3160973
  13.8090849  56.8511238  35.7287827  12.3662653  57.2798843  35.8882103
  67.6934586  58.4681969  60.4143372  67.3418961  58.6781616  59.5491486
  67.1141434  57.7834091  60.7485390   4.9931583  69.4430237  75.9965668
   5.8065443  69.8730621  75.7325516   4.8415112  69.7462921  76.8917007
  67.3538513  40.0717010  51.3251228  68.0487595  40.3840790  51.9045715
  66.5436401  40.2663994  51.7961578  32.9500351   7.2575960  82.1893921
  33.1433868   6.4145169  81.7794342  33.2218552   7.9071574  81.5410004
  83.3513947  30.4602108   3.3870080  83.7780838  30.2967815   2.5459034
  83.8208008  29.9013214   4.0063047  30.1389065  60.8169289  56.0848541
  31.0249100  60.4660110  56.1747856  30.0677681  61.0536499  55.1601181
  72.8869400  58.4838562  56.0693970  72.1301422  57.9941826  55.7473564
  73.6107712  57.8587074  56.0308495  69.3382568  61.9675026  44.6436157
  69.7826767  61.1330109  44.4941254  69.3484726  62.4005814  43.7900505
  35.5021667   4.6237497  66.1753616  35.5553970   3.6687398  66.2121735
  35.2674179   4.8157358  65.2674713  69.3786697  69.9446564  42.1684532
  68.5491104  69.7448730  42.6022110  69.8926544  69.1415939  42.2530327
   5.9043751  50.9157257  22.9825001   6.8519721  50.7854996  22.9460049
   5.7979784  51.8450470  23.1856632  59.3904305  10.2871990  79.7108994
  58.9911613   9.9624939  78.9038162  60.1133347   9.6831112  79.8803711
  83.8187561  34.8578949   1.1172934  83.6482697  35.6673813   1.5988533
  84.3367004  34.3249054   1.7205228  62.0304680   9.1480341  20.4368305
  61.2196121   9.2074480  20.9420185  61.7423592   9.1132431  19.5246811
  46.5995522   7.2430248  18.6244926  47.2651825   7.1264920  19.3024178
  46.0776939   6.4414191  18.6609135  53.4292526  56.2500153  61.5692825
  53.2194176  56.4984627  60.6690216  52.9477959  55.4349785  61.7112312
  54.2278824  38.4144287  59.4514694  54.9965019  37.9986992  59.8421440
  53.4996910  38.1461716  60.0118332  49.8372459  29.0121365  83.5115204
  50.4615707  28.4855309  83.0123825  49.2092781  28.3769016  83.8555527
  57.8997231  14.7949142  31.6891499  57.3796387  14.5645332  32.4590034
  57.5322876  14.2623396  30.9837513  20.3914890  58.6260490   8.9866495
  20.2161942  58.3453903   9.8848333  19.6194401  58.3479996   8.4938402
  86.1641769  40.1155663   7.6010690  85.6672211  40.7266617   7.0571694
  85.6107178  39.3363075   7.6527462  68.9546051  41.4255524  84.7118301
  69.4328918  40.8344841  85.2932968  68.3788528  41.9207497  85.2945175
  17.0846672  57.4970512  66.6574783  16.6017857  57.7937546  65.8861008
  17.9351635  57.2208214  66.3160324  18.7105045  31.9511642  14.3713293
  19.1651211  31.8587971  15.2086010  19.3219070  32.4387131  13.8193197
  64.3439331  71.1558456  57.3712082  64.3749619  71.7222748  58.1422005
  64.2312622  70.2740784  57.7262001  76.6297531  20.3209248  76.5557098
  76.0646896  20.8136406  77.1508255  76.4564362  20.6984463  75.6933441
  73.2738113  64.9589996  62.3939857  73.5528030  65.1901245  61.5079956
  73.3136826  64.0028763  62.4158783  21.7369137   8.6526127   4.6386113
  21.9091148   8.7252369   5.5773888  20.8789253   8.2317276   4.5843425
  80.6611023   5.1030359   9.0037613  80.4749222   5.2119155   8.0711775
  80.3202057   5.8995652   9.4106493  86.1942978  68.2642670  20.7039547
  86.6888351  67.4667130  20.8925571  85.5154953  67.9854813  20.0893555
  26.8826714  41.0970459  62.9771309  27.8245754  41.0714760  63.1456375
  26.5680256  40.2334251  63.2443199  66.6817627  64.9823685  72.2198639
  65.8951492  64.5495224  71.8880234  66.5614471  65.0028458  73.1692505
  55.9599571  19.4428673  26.1152172  56.6088943  19.2024670  25.4539146
  55.1171608  19.2453804  25.7066517  72.9731064  48.4784203  25.2240124
  73.6877136  49.0997314  25.3637695  73.1137085  48.1472282  24.3370113
  48.0312881  44.5809669  52.2837448  47.4362793  44.1285973  51.6857834
  48.8066330  44.7676697  51.7543907   8.4860029  43.1558189  48.0507278
   7.9921536  43.4795189  48.8040962   7.8692956  42.5912323  47.5847359
  45.1489716  28.7695999  13.3344402  45.4751015  29.6440983  13.5468645
  45.2872963  28.2616615  14.1338758  44.0941353  62.0408363   1.3245958
  44.8553352  62.3388100   0.8265820  44.1558571  61.0857773   1.3078527
  42.4814606  55.5729027  17.6423073  43.4315033  55.6826134  17.6020679
  42.1980629  56.1860695  18.3204975  82.0299377  62.2708893  40.6926041
  81.4360428  62.8629112  41.1541595  82.7590256  62.1420593  41.2992821
  61.6331635   9.7365131  13.5437326  62.2359467  10.3875170  13.9030085
  61.4064674   9.1821690  14.2904215  52.2884827  50.1989861  21.0528965
  52.8034897  50.8078117  20.5234337  51.6154671  49.8723984  20.4557190
  71.5548935  48.1746254  83.7068558  71.2349319  48.6750412  84.4574814
  71.2976303  48.6943245  82.9453049  71.0461578  53.8988342   9.9367723
  71.8626404  53.4628029   9.6928959  71.0371475  53.8726044  10.8935699
  67.0835648   6.3196230  47.9599533  66.5098114   6.3255658  47.1937904
  67.0678711   7.2223258  48.2779388  54.1212502  62.9355240  81.8565445
  54.1430511  62.1738510  82.4358673  53.3316154  62.8130951  81.3295593
  65.8302383   2.9693294  80.6474762  65.9516144   2.5253375  79.8082123
  65.0341568   3.4879394  80.5311661  81.6101227  17.8650036  19.1489334
  82.0669403  17.7148743  18.3212795  81.4428101  16.9874935  19.4927559
  73.8245697  33.2795792  27.8481884  73.1008530  33.5738754  28.4012299
  74.5538864  33.8534813  28.0826378  48.3142586  29.4480705  65.4841766
  47.5161896  28.9597435  65.2820511  48.6036415  29.0961800  66.3259964
  35.7561455  11.1737337   4.5688996  35.5225334  10.3930140   4.0667706
  36.0760040  10.8341141   5.4047112  81.9130783  47.0688858  84.4558258
  82.1127701  47.8925591  84.9007034  80.9625854  46.9819145  84.5281601
   5.2346840  51.6010208  81.9048691   5.7939520  51.0652809  82.4673996
   5.0574346  51.0462837  81.1452103  74.2503662   3.7045214  16.2469845
  74.2740784   3.5638402  17.1934929  74.9711761   3.1738253  15.9078302
  83.7625351  60.5617332  35.9454880  84.4593430  60.0605125  36.3691292
  83.5380783  61.2429047  36.5794144  19.1543007  56.8025436  64.7924118
  18.8067303  56.7971535  63.9005585  19.6508999  57.6187439  64.8510056
  62.2400322  56.6471100  17.1555195  62.0982132  56.2231102  18.0018902
  62.9363022  57.2830544  17.3198948  42.4478645  61.8602562  64.5778122
  42.5001450  62.7752457  64.3016052  41.5100861  61.6899223  64.6660767
  59.4178276  66.9946365  55.9633713  58.7782135  66.4390259  56.4088097
  59.0794678  67.8834839  56.0715256  32.7821693  59.3020134  16.8951969
  33.0841255  60.1114998  17.3072510  33.5845947  58.8634567  16.6123371
  16.8658943  58.2731819  73.5137711  16.7845268  58.6905861  72.6562271
  17.5266991  57.5923691  73.3870392  42.3834496   8.2730618  79.7593918
  41.5233269   8.6930885  79.7581711  42.2305908   7.4153743  80.1559296
  44.7491493  33.5657578  89.3523407  44.9808960  32.8775558  88.7287140
  44.6686401  34.3558960  88.8180847  69.9491196  44.1485138  57.7503738
  70.3264389  44.5160255  56.9511261  70.7033463  43.9759216  58.3139229
  72.7970886  36.8298988  78.2354889  72.8795471  37.6576462  78.7090530
  73.6994324  36.5657158  78.0560150  50.0649529  14.6327362  56.1607094
  50.1278000  14.0946054  55.3716011  49.6068535  15.4233599  55.8755951
   9.1214933  48.7879562  55.0820808   9.9519520  48.3120384  55.0734901
   9.0175219  49.0718613  55.9902763  53.2355461  69.6190872  15.2491732
  54.1513863  69.3859787  15.0971022  52.9068985  69.8738251  14.3870068
  80.3717957   2.0546932  66.5018768  81.1033478   2.2554169  67.0856400
  80.6443405   1.2616807  66.0402756  34.3488121  19.4636612   7.8055763
  34.5577545  18.6579742   7.3328800  35.0191002  19.5226288   8.4863605
  41.1835747  40.2754631  66.5418091  40.3824997  40.4208412  67.0451660
  40.8780975  39.9596748  65.6913986  50.5151711  51.6525612  35.6349449
  50.5732231  51.0143661  36.3459778  50.2082214  52.4547005  36.0575409
   8.6441479   0.9087448  88.1466370   9.5930147   0.7836417  88.1619110
   8.3476171   0.5965980  89.0015411  44.5387268  56.8106461  20.5715313
  43.7478714  57.2380447  20.2427311  44.5717697  57.0482597  21.4981823
  51.7225533  60.0688438  59.8019562  51.7067413  60.9679985  60.1298294
  50.8179169  59.8920822  59.5438385  70.5650177  67.4008179  30.9289856
  70.4158020  66.5437241  31.3281879  69.7563705  67.5868073  30.4517651
  60.1384850   9.5472975  38.9105339  59.9387932  10.3952131  39.3072624
  59.5438194   8.9344950  39.3430595  73.8998566   0.6297315   3.3940325
  73.2839890   0.4111153   4.0934243  74.1574097  -0.2165962   3.0284822
  68.5195160  51.7741814  30.3305206  69.0795593  50.9986954  30.3652477
  69.0195465  52.4079018  29.8161316  39.1915512  39.4768257  86.1345139
  38.8495827  38.9510078  85.4114609  38.4226913  39.9205894  86.4925079
  40.8853569  61.7328987  21.3945007  41.4410057  62.4827003  21.1817017
  40.5159760  61.9442062  22.2519016  82.4152679  30.5949726  83.4989090
  82.5578461  30.7225533  84.4367905  81.4932785  30.3476315  83.4282684
  79.2161865  61.1008530  45.0704002  79.8648911  61.7517853  45.3381729
  79.1709061  61.1855545  44.1180305  50.5024605  43.1895294  61.3124733
  50.9235153  42.3339539  61.2292328  49.6173248  43.0548286  60.9739075
   6.1148071  30.5382233  56.2951317   6.2100701  29.6121387  56.5176735
   6.9524770  30.9309597  56.5406914  43.2950516  59.3812370  77.4195175
  42.8476295  60.0917511  76.9599380  44.2215576  59.6190643  77.3840561
  14.4063873  18.1680946  15.0252705  13.9365005  17.4141235  15.3815899
  13.7288399  18.8306122  14.8902483  70.6609573  47.8113670  67.3009796
  70.5349731  47.1328087  67.9642410  71.0921097  47.3599129  66.5753479
  35.0537109  32.3232613  64.4855347  35.0036964  33.1799736  64.9095306
  34.1774330  31.9526157  64.5903625  13.9167871  12.0352268  71.0600281
  13.3747149  11.8164196  71.8179932  13.4650774  11.6326847  70.3183060
  47.4996529  63.3823090  69.5575027  47.2674675  64.2494965  69.2253723
  46.6596947  62.9398766  69.6797791  45.2417336  28.7348976   2.2508485
  45.7976151  28.9598789   1.5047876  45.3706589  29.4528065   2.8706992
  63.9108849   7.2622380  13.6451836  63.5704727   8.0730457  13.2671051
  64.4927673   7.5515084  14.3480101  27.6339912   6.5237012  14.0459986
  26.9174404   6.4694834  14.6783314  27.2858620   6.1143961  13.2538452
   0.8883379  15.2938385  22.7371445   0.3686523  15.9095879  23.2538776
   1.2006012  15.8091917  21.9934139  63.6403580  19.7530727  31.2516441
  62.9257317  20.0046635  30.6666298  64.2804031  20.4595833  31.1655197
  40.6912842  39.3547592  33.3275986  40.0667992  38.7906418  32.8714981
  41.5443764  39.1023598  32.9743881  65.1523514   0.4798751  76.2723770
  64.4124146   0.9134765  75.8472672  65.8893280   1.0753270  76.1362610
  19.1136169  29.9416790  20.5161190  18.7004623  30.2662525  21.3162365
  19.6181393  30.6860695  20.1881371   6.4634490  10.7278337  12.9348459
   6.1861963  10.0922318  12.2750177   6.0408278  10.4347982  13.7421579
  83.9421310  14.7948046  52.6208801  83.1126251  14.4506454  52.2896576
  83.7054749  15.2580614  53.4243813  46.9158821   3.9371414  70.6639709
  46.1450157   4.0246100  70.1033096  47.5601578   4.5317612  70.2798157
  87.0150299  23.5561848  56.7409058  86.1915588  23.0713997  56.6851349
  86.7557373  24.4392929  57.0038147  57.3244820  13.0409155  44.8654594
  56.3729439  12.9561462  44.8052673  57.6578598  12.5239668  44.1320724
  57.9916229  36.5880203  68.1288605  58.6858292  37.0587692  67.6676636
  58.0693665  35.6849480  67.8212051  77.7282562  13.0623674  23.8214207
  78.4951782  13.5744572  23.5648499  78.0590210  12.4472799  24.4760151
   6.5363102  30.1802406  34.3950844   6.7653046  30.1158218  33.4679146
   7.2370214  30.7075081  34.7787819  27.1749420  63.7143784  19.8568554
  27.9307632  63.1539841  19.6810074  26.6556778  63.6751633  19.0536995
  38.9298172  42.6934891  51.3810043  39.3507309  43.5455894  51.4949760
  38.3084412  42.6343155  52.1066933  71.1766434   1.2462895  52.0402184
  70.8215256   0.6077104  51.4218788  70.7122192   1.0710700  52.8586578
  81.2674484  70.7011261  87.8135910  81.1602325  70.5519714  86.8741837
  81.2701569  71.6538467  87.9060593  24.1469707  59.5795135  51.9754906
  24.2462273  59.1477509  52.8239937  25.0421944  59.7811127  51.7031593
  38.1395073  12.1673460  88.3267212  38.3250275  13.0016651  87.8957672
  37.6472282  11.6661825  87.6765518  66.9391861  48.4965858  86.9971237
  67.0915298  49.4355392  87.1038437  66.8702393  48.1619759  87.8912811
  56.9610291  64.5522537  46.1454010  56.2946548  64.0694962  45.6563988
  56.9667091  64.1428909  47.0106316  85.9785233   1.7664889  67.7682190
  86.5963593   1.2021104  67.3034744  85.8713684   1.3508680  68.6237946
  21.7771931  35.3769569  10.9913225  21.1178532  35.3238678  10.2994528
  21.8802662  36.3148422  11.1524944  76.0155563  43.3418770  27.2422867
  75.1782990  43.0450554  27.5988426  75.7961197  43.6999969  26.3821526
  43.1351357  18.9595165   6.0120234  44.0443153  18.8917618   6.3036304
  42.9605827  19.9003754   5.9886556  66.9016876  31.4303608   6.6387825
  67.7759781  31.7843609   6.4758811  67.0601883  30.5685406   7.0239782
  33.2600060  43.2415543  50.4297295  32.7560272  43.4751358  49.6501923
  32.9158020  42.3872604  50.6903801  54.3163414  66.9544296  44.5803299
  54.2735214  67.2756577  45.4810028  53.4221611  66.6758957  44.3826141
  35.4015236  28.4689903   0.3932045  35.1663742  29.2349377  -0.1304949
  36.2726860  28.6706371   0.7347363  45.6816750  18.9500923  67.5554428
  46.1833191  18.8853493  66.7427902  45.2528725  18.0985680  67.6407013
  80.4880524   4.5515585   6.3481932  80.1402817   4.5034895   5.4577017
  80.8114243   3.6685610   6.5270228  46.7455788  47.7173576  34.2928619
  45.9947205  47.8357010  34.8746185  46.4032288  47.2034798  33.5614548
  28.4781513  26.5150261  18.9316349  28.3161659  27.4485226  19.0679245
  28.0101528  26.3062592  18.1231651   4.5003428  63.5758553  66.8689499
   4.5123758  62.6385918  67.0629120   4.3139172  63.9922180  67.7104492
  56.3690071  64.1635590  34.2336464  55.8016396  63.7252693  33.5994301
  56.6248665  63.4720955  34.8440933  75.1790619  49.4615250  41.3632851
  75.2464600  50.2081070  41.9585190  75.5203323  48.7223320  41.8666306
  17.4533310  37.9197731  39.1524086  17.3870831  38.8258362  39.4539032
  16.5469170  37.6154289  39.1074524  79.2272263  35.7847214  17.1049061
  79.6414413  35.3523903  17.8517323  78.3238525  35.4684525  17.1158829
  55.9348793   7.9216967   0.5411062  56.7454491   8.2895269   0.1891033
  55.3639641   7.8268905  -0.2213252  57.6803246  16.5043449  34.5578156
  58.4732857  16.9957943  34.3435249  57.8121834  16.2193642  35.4620438
  38.4440804  61.6428070  65.6716537  37.6056213  61.8382835  65.2533188
  38.8287125  60.9555435  65.1276245   8.1604156  32.7879410  75.2630310
   7.4489970  33.3437767  74.9449692   8.7995892  32.7858391  74.5505142
  26.3883152   9.6493721  78.8929520  25.9145317  10.0379333  79.6283340
  26.2485237  10.2594824  78.1687622  85.4853973   0.3225666  53.6449318
  86.1546402   0.9592084  53.8959999  85.8040009  -0.5099756  53.9936409
  60.3381195  60.0203018  30.4843616  60.9511528  59.4050064  30.0820751
  59.4860458  59.5898705  30.4141369  62.1688004  41.3538704  13.2581520
  61.6353989  40.8126869  12.6760540  62.8260422  41.7471886  12.6840763
  59.8220100  24.1011486  38.8622932  59.7262688  24.8985920  38.3415718
  60.0883904  23.4331436  38.2305946  38.3935890  70.0401611  79.3504639
  37.9503746  70.1913071  78.5156326  38.0401497  69.2068787  79.6618576
  83.7234955  58.3964729  44.1887169  84.4912109  58.6564140  44.6979103
  83.0385666  59.0081062  44.4589081  40.1921158  57.2010612   0.1999530
  40.7004776  57.7010880  -0.4386192  39.6163063  57.8481712   0.6072890
  56.0125427  11.9759512  81.3322830  56.2897415  12.8762474  81.1624069
  56.2544174  11.4972305  80.5394669  41.4441261  43.9068222  76.7750244
  41.4645271  44.8201523  77.0607529  40.7084351  43.5229721  77.2521515
  78.7805634  24.5606327  31.3444691  79.7171631  24.3638306  31.3611889
  78.3585510  23.7382851  31.5932293  10.2727299  49.7329178  67.5256348
  10.4021978  48.8602371  67.1542892  10.7620001  50.3154335  66.9446716
  19.3492012  63.8895836  71.8739014  18.8296566  64.3272247  72.5482788
  18.7343578  63.2923737  71.4478302   4.1378007  44.6338005  50.5343475
   3.8506446  44.8500824  51.4214745   4.4838152  45.4560890  50.1874428
  65.5972214  40.7086601  40.7549095  65.5225525  39.7546654  40.7784386
  65.0404663  41.0102539  41.4727516  70.8863754  28.9094334  39.4269371
  71.1410065  28.5608196  40.2812576  69.9293747  28.9145088  39.4458885
  30.0834007  61.7746773  53.4284477  29.9047394  62.3876190  52.7152748
  30.2393055  60.9375000  52.9913368  23.6939220  46.6570816  65.7386703
  24.5191250  46.4370766  66.1709518  23.9352570  46.8089790  64.8249283
  71.3642273  30.5342293  42.0112190  71.4638672  29.7689438  41.4449654
  70.7011566  30.2742691  42.6507454  38.2050247  58.9259796  45.5374031
  37.9635925  59.7063637  45.0384560  39.0008621  58.6065331  45.1121674
  29.7067852  50.9281235   7.5115185  29.8925705  50.0251389   7.2539630
  28.7518578  50.9911003   7.4920354  57.7270126  49.0191383  52.2529907
  57.4003754  48.4112816  51.5896301  57.2213745  48.8107109  53.0385590
   8.1149549  59.3975983  12.4906759   7.3561287  59.8155746  12.0836029
   8.7447100  60.1085281  12.6099176  72.3713226  38.7857971  80.4721756
  71.6246567  39.2006912  80.9041214  73.1354218  39.2438965  80.8222198
  33.2837181  66.4672623   4.4256659  33.2608147  67.0067139   3.6352825
  32.3630257  66.3284454   4.6476626  60.6189041  33.4850769  34.6080971
  60.1983719  34.2871437  34.2981491  60.3994789  32.8286705  33.9468727
  38.2119675  49.1674080  11.5648451  37.5058784  49.7970886  11.7103376
  37.9679222  48.7164078  10.7565918  39.0132790  39.6316032  41.3041039
  39.6538620  38.9598694  41.5378990  39.5064621  40.4516144  41.3282356
  85.4601288  39.1264610  51.3869514  85.9878082  38.4576149  50.9505730
  86.0567856  39.5277328  52.0187798  43.1152306  17.0530949  82.3161850
  42.9827080  17.5321121  81.4981308  42.5678978  17.5116940  82.9536362
  20.6310139  28.5611267  80.7024002  21.2377625  29.2882385  80.8416748
  20.2675190  28.7161446  79.8305740   2.7418368  55.0965195   4.6932483
   2.3481820  54.6810760   5.4604993   2.4253695  54.5797729   3.9522667
  19.5095558  34.7757874  75.7972565  19.5926628  34.1540680  75.0742111
  18.7694664  34.4499588  76.3094406   4.4369369  21.6100349  11.4018908
   4.9444089  22.0213032  10.7022028   3.8910058  22.3157940  11.7484350
  26.5959053  62.6232147  43.8151360  26.8063641  61.9204025  43.2003250
  27.3649693  63.1929016  43.8000641  10.2074194  28.3982162  60.3907547
   9.3133965  28.1254539  60.5970459  10.5442572  27.7051926  59.8228722
  57.0399933  44.1081886   4.5353403  56.2598763  43.9503899   4.0036001
  57.2306480  45.0379143   4.4108748  21.2811432  28.0913715  10.2604980
  21.6384659  27.3036938  10.6705170  20.3552837  27.8909550  10.1232052
  54.9832535  15.0780296  56.5054359  55.1100464  14.2749538  56.0002365
  54.1218414  14.9733381  56.9094620  19.2617474  32.8190422  78.6276779
  19.5361900  33.6322594  79.0514603  18.3865795  33.0086899  78.2895279
  16.4297657  17.5376472  78.5585938  17.0744572  17.3864269  79.2497787
  15.6544476  17.0544777  78.8443527   0.9525377  45.8169289  23.2216568
   0.4829775  45.8738441  24.0538254   1.7539918  46.3205719  23.3639431
   7.6621962  66.7034836  72.1214523   7.0121951  67.4034882  72.1824112
   7.4084487  66.0810165  72.8029099  39.9753036   0.5301983  32.8439941
  40.1282768   1.4525578  33.0491371  39.2393265   0.2795238  33.4023247
  49.0996857  24.9396057  44.1294098  48.1702309  25.0926743  44.2994537
  49.4832420  25.8156700  44.0890694  11.3369598  55.7978859  70.0114365
  11.5025349  54.9852448  70.4893799  12.1255293  55.9313698  69.4855347
  70.3000870  52.4282112  68.4855652  69.5717545  52.9062881  68.0890732
  70.0818253  51.5057793  68.3524704  17.1737614  38.8262024  52.8576546
  16.8770084  38.2153244  53.5321884  18.1248188  38.8547974  52.9620743
  42.9821281  57.9447098   8.4329119  43.6465263  57.7059898   9.0793009
  43.4324150  57.8782578   7.5908570  17.1162453  60.6810799  40.7553787
  17.6831875  60.5900726  41.5212288  17.5052624  61.3970680  40.2531242
  67.8128433  35.2675514   9.9973850  68.3774948  35.1139832  10.7548914
  67.6854782  34.3998833   9.6137695  14.8943195   2.2979288  54.4311485
  14.0375185   2.3166380  54.0047989  15.3268118   3.0988064  54.1348801
  31.4187241  51.5535736  24.4452515  32.0228767  50.8111877  24.4354534
  30.8751335  51.4302864  23.6670856  44.8133240  39.9640999  11.0192833
  44.5891228  40.6560974  11.6414576  45.4478645  39.4195251  11.4851475
  78.1178970  44.5522919   8.1810818  77.8401718  43.7851524   8.6816778
  77.3379745  45.1055756   8.1382895  64.0039368  23.3915215  29.8954372
  63.0640182  23.2419491  29.7934093  64.3781738  23.1506443  29.0479946
  50.9975929  60.0265884   2.1463463  50.3114662  59.3863792   1.9576640
  50.7869072  60.3526192   3.0213020  26.6602707  68.9603195   6.4437342
  26.8599606  69.8036041   6.8502078  26.0486908  69.1730652   5.7387924
  76.4610062  62.1169586  68.2032547  76.1529388  61.2373886  68.4216232
  77.4152679  62.0421371  68.1982498  29.0104637  52.3538818  31.0456676
  28.9461842  51.7103539  31.7513390  28.4037704  53.0493088  31.2997055
  29.4587116  66.1896820  84.5206223  29.9177361  66.4240952  85.3272018
  28.7961903  66.8724213  84.4149933  40.0665169  25.4558792  86.2178574
  40.0100327  25.8946991  85.3690491  39.9705696  24.5256939  86.0134506
  28.0719948  57.3026505  38.8173561  28.1145325  58.1045456  38.2964096
  28.0062542  57.6080322  39.7221489  83.1526566  39.3777580  18.6477165
  82.4230804  39.7496185  18.1520615  83.2327576  39.9427452  19.4162254
  83.9780045  10.7377949  18.2230263  83.1644669  11.1066856  18.5669899
  84.2413101  10.0887012  18.8753910  74.8317719  38.1410599   6.7706909
  75.5653076  38.7382965   6.6242051  74.0622635  38.7095833   6.8003111
  57.4500084  14.8991566  63.8598137  56.6879425  14.3756256  63.6120148
  57.0804100  15.6795692  64.2728348  55.9267311  35.7887459  41.6619148
  55.3116570  35.9380646  42.3799820  55.4670410  36.1033020  40.8834763
  79.6465073  54.6525230  74.6684875  79.0476685  54.5097198  73.9355240
  80.0249405  53.7902184  74.8400955  72.5209503   0.6545269  23.5019550
  72.4524536   0.2645425  22.6304893  71.6830444   0.4557433  23.9198437
  73.5683899  45.6038170  40.5140228  74.4830399  45.4737625  40.2635612
  73.1864700  46.0890808  39.7826653  31.2058945   1.3723797  11.7947340
  30.9860954   0.7603188  12.4970884  32.0082817   1.8008311  12.0927906
   3.1860290  53.2801743  88.2406311   2.4475105  53.4661903  88.8204727
   3.1245599  52.3406105  88.0683746  37.9117584  20.9601803  17.3398914
  37.7668533  21.4845181  16.5522957  38.2197495  20.1153316  17.0118618
  28.6380997  61.3507080  16.2553120  28.9121017  60.4376907  16.1683941
  29.0737152  61.8014107  15.5318909  54.6710472  52.9176521  54.0153847
  54.2742157  52.8096313  54.8797264  55.5756531  52.6260872  54.1290169
  31.8662281  61.2308044  19.4375973  31.8415432  60.2788429  19.5345097
  32.6193237  61.3943062  18.8698387   4.1501660  30.5712261  70.9159317
   4.1919475  30.7201157  69.9713058   3.6769865  29.7441959  71.0073471
  29.1247234  66.1381149  29.9296150  29.3402653  67.0706940  29.9381714
  28.2460537  66.0988235  29.5519543  54.4716911  13.5120640  44.6889877
  54.0786514  13.0607920  45.4360504  53.9336319  13.2512989  43.9415092
  27.5773945   2.0372257  33.1901970  28.4593220   1.6651862  33.1950760
  27.6443939   2.8194544  33.7377930  55.9263382  37.3258743  18.2802963
  56.3822098  36.5119629  18.0659180  56.3755264  37.6539612  19.0592823
   1.1201574  28.8900089  69.0530472   0.2897880  28.4146309  69.0259399
   0.9148114  29.7048340  69.5114365  35.3791275  14.3980818  16.5211391
  35.6507492  15.2022705  16.9635563  34.7361221  14.6865311  15.8733940
  71.7495193  61.9136925  32.5772552  70.7952271  61.9879112  32.5698471
  72.0574722  62.7493782  32.2265053  73.2713776  28.5285873  65.8551712
  72.4238205  28.8035202  66.2048569  73.2894974  27.5809002  65.9885559
  30.7892380  62.2264977  84.9997559  30.9675484  62.8331413  84.2811279
  29.8945618  62.4324379  85.2706375  72.2880859   6.5616617  48.1334381
  72.5898132   6.0330391  48.8721886  72.1667938   5.9324341  47.4223900
  17.8097458  55.9093933  35.6778946  18.3330421  56.5778122  35.2356224
  17.2954330  55.5062637  34.9784698  80.9255066  54.6669044  85.7096786
  81.3553848  53.8117218  85.7198563  80.0903091  54.5099144  85.2691956
  57.7439384  53.0992165  76.1558304  58.1084290  52.4003067  76.6988754
  57.8748512  52.7971535  75.2570267  60.9730301   9.2365417  27.1015072
  60.5792923   9.9894266  26.6606369  60.2780037   8.8996277  27.6668930
  48.7073936  69.9862442  79.8852615  48.6796112  70.4446945  79.0454483
  48.3100243  69.1340408  79.7061768   0.9265348  52.9578362  18.9036655
   1.4278510  53.4008102  18.2190571   1.5445510  52.3369064  19.2893238
   6.1273394  67.7671051   8.6944513   5.5766134  67.8673553   9.4709063
   5.8697958  68.4906158   8.1231041  28.4750729  23.9128513  13.0025215
  28.3164806  24.8306446  13.2232828  28.0424061  23.7915878  12.1573429
  72.8369522  65.6843872   6.1505218  73.7500687  65.9589615   6.2345343
  72.8849106  64.7463150   5.9662514  62.5608940  49.0321312  88.4293976
  62.1917953  49.0449944  89.3124771  62.1303406  48.2925453  88.0006027
  38.8947792  12.3857508  79.6220627  38.8793526  13.2975931  79.9128189
  37.9772720  12.1733952  79.4508514  53.3188477  45.9049835  83.6501541
  53.2692871  46.7821503  84.0300980  52.7564201  45.9468422  82.8767471
  83.4062805  14.2162542  44.6793709  82.6537323  14.5515099  44.1920242
  84.0581436  14.0182447  44.0069885  18.6839237  65.6085510  14.9177952
  19.3504772  65.9927063  15.4873228  17.9071159  66.1496048  15.0594482
  26.4760513   3.5832214  21.6774445  26.4126663   4.4694500  22.0335522
  26.2812424   3.0120440  22.4204369  55.2835541  44.8440933  49.1734428
  55.3282661  44.7512474  48.2218056  56.1314240  44.5275002  49.4850769
  60.2907715  21.2412395  26.9297390  59.8941536  20.3866978  27.0991039
  61.0275726  21.0523815  26.3486347  65.6676178  33.6125870  65.9922333
  65.0627594  32.8811073  65.8684387  65.3595352  34.2838097  65.3833160
  60.7112236  16.2204514  16.3181496  61.6095200  15.9712887  16.5354347
  60.4150352  16.7303066  17.0721741  34.5463104  38.8315544  83.4532700
  34.9761810  39.6710358  83.6167068  35.1378860  38.1816673  83.8326340
  13.3625793  60.8362122   4.1602173  12.4671297  60.9428749   3.8392441
  13.7811174  60.2643127   3.5167987   4.5346665  56.0563164  76.8714218
   4.8725762  56.9513435  76.9026566   4.1919980  55.9605522  75.9828110
  64.8291855  57.1747284  67.6874771  63.9450264  56.8211823  67.5899887
  65.3999481  56.4942055  67.3306198   0.6501756  64.6149902  25.5967274
   1.4093457  64.3450775  25.0799675   0.9519085  64.5755157  26.5042686
  60.7766533  61.3161545  55.3423080  60.7977867  61.2118721  56.2935753
  60.1656456  62.0378952  55.1939964  22.6280212  20.8104362   2.4306653
  22.6111031  20.5934753   1.4985311  23.2727718  21.5144043   2.5010636
  73.2209702  68.4015503  82.7389526  73.2905045  69.1341171  83.3511124
  73.9407806  67.8185883  82.9803009   1.2494576  69.1567993  51.0715027
   0.6602342  68.6573181  51.6368065   0.7385263  69.9229355  50.8103294
  35.1016121  40.2321892  61.3822098  34.5888481  40.6789055  60.7086029
  35.0669136  39.3078537  61.1359787  47.8509293   5.1619444  84.7862167
  47.0951614   5.7491622  84.8010941  48.5674095   5.7021060  84.4528809
  76.2716064  59.3956337  40.7635612  75.6472168  59.4293785  41.4882927
  76.0981445  60.1914368  40.2607269   3.0948138   8.0723858  19.5676155
   2.2243562   8.3068600  19.2458115   3.0364738   8.1808319  20.5168610
  16.1516171  54.8497276  60.9015656  15.6142836  54.6294060  60.1406708
  16.9489765  54.3321114  60.7896690  42.0177650  34.7114105  39.0373001
  41.3468246  35.3890305  38.9542160  41.8356743  34.2961388  39.8802834
  83.9915543   5.9122658   9.4496326  83.4095993   6.0984817  10.1864386
  84.1266708   6.7621078   9.0304146  80.8106003  15.2361202  69.8058701
  80.7126770  14.5963593  69.1006470  81.4357300  14.8339777  70.4089661
  23.6949310  67.4383087  10.1357508  24.1115513  66.7326584  10.6304426
  24.4189415  67.8785095   9.6904774  70.0326614  16.7826614  15.0051918
  70.5746231  16.2469444  15.5844278  70.2212296  16.4518433  14.1269941
  29.7653580  41.1653519  47.5801201  30.0225391  40.2803268  47.8386192
  29.5608826  41.0926781  46.6478462   7.7146502  46.6570587  77.7410812
   8.0685902  47.4259605  78.1880112   8.4308615  46.3533897  77.1833572
   0.9274811  68.1601181  25.4987717   0.0128702  68.4196167  25.6100349
   1.1149549  67.6109924  26.2600517  40.5256233  50.0656891  16.0631218
  39.8216400  50.6278648  16.3865356  40.5052032  49.3011665  16.6387234
  67.1957855  18.6255608   6.7274928  66.9780121  19.5576591   6.7281942
  67.8964615  18.5437870   6.0804996  55.5308113  16.7333145  68.3178482
  56.2573967  17.2606201  68.6498947  54.7472153  17.1599712  68.6645203
  34.1792946  39.1494370  77.5208130  34.0342102  38.2248001  77.7213898
  34.3299255  39.1687317  76.5757370  10.4423628  37.8981972  34.7802582
   9.9595919  37.0875893  34.6187820  10.1266699  38.1993217  35.6322517
  10.8047934   8.2459888  73.1672745  10.3094139   9.0110626  73.4596710
  10.1726980   7.5276041  73.1920013   3.2032967  40.3545418  58.1840477
   2.9426217  40.5265198  59.0888710   3.5448999  41.1917343  57.8699608
  72.5361099  51.5203819  53.9155617  71.6071014  51.3243217  54.0369415
  72.6139221  51.7473145  52.9889145  39.2131729  24.0852776  13.6044436
  39.8228455  24.7939301  13.3986826  38.4331360  24.2822609  13.0858173
   2.4671247  37.3136444  18.6444416   1.9645622  37.1776390  19.4476624
   2.8913233  36.4711342  18.4817715  -0.0771272   8.0261192  55.7223282
   0.0927802   7.0846195  55.7530098   0.6088746   8.3748732  55.1531143
  34.7403297  43.3460655   8.8889256  35.2103310  42.5877953   9.2358522
  34.9989128  43.3874550   7.9682446  77.3840179  29.2122822  51.1310234
  78.1589432  29.4708462  50.6321602  76.6495209  29.5827351  50.6416359
  18.5662861  44.1199608  46.6607323  18.4411030  43.1811676  46.7993813
  17.7678928  44.4049835  46.2162552  49.0263672  35.6867294  60.7435989
  48.3009758  35.0917511  60.9334564  48.7499161  36.1583786  59.9578819
  30.7278328  68.2530060  11.7979965  29.8344402  68.3411102  12.1301432
  30.8941841  67.3104019  11.8052359  68.4086456  68.2842407  29.6607151
  68.4249954  69.1921387  29.3579063  67.5267410  67.9773941  29.4501915
  56.8888855  10.6772776  83.3713608  57.2209969   9.9748907  82.8122711
  56.2489281  11.1350088  82.8262329  80.6266937  24.8985558  80.1338882
  80.7948380  23.9901066  79.8835373  80.9301605  25.4131889  79.3860321
   8.0717125  66.8573227   0.5585747   7.2550759  66.8236084   0.0603772
   8.6578169  67.3909073   0.0219144  74.4539108  61.3787079  33.2666931
  73.5051193  61.2938614  33.1727371  74.7714005  60.4769859  33.3149796
  15.3244085  41.5288162  59.3323631  15.8222628  41.1023483  58.6348686
  15.9554205  41.6399841  60.0434875  41.8114166  35.0166817  80.3597870
  41.8589211  34.1633301  80.7907944  40.9909515  35.3976974  80.6726761
  59.1793022  48.6286736  65.0953979  60.1244049  48.5399094  65.2184296
  59.0802956  49.4166222  64.5610123  68.9035263  18.4671535  27.8029327
  68.9294205  18.2879257  28.7428455  68.5012817  19.3330898  27.7352200
  73.2468796  56.2167816  73.7296219  72.3352432  56.1436501  74.0121155
  73.3548126  55.5172043  73.0852814  73.0560608  70.5446930  69.6397324
  72.4009781  70.5894470  68.9432449  73.7408600  71.1539764  69.3639603
  83.5658798  16.8705750  38.4490623  83.6660690  16.0932026  37.8996201
  83.9679718  17.5757847  37.9418869  77.0739822  18.4894314  82.8957977
  77.4036102  19.2123814  83.4295731  77.6895676  17.7739658  83.0551682
  83.4826279  49.6509209   1.1017776  83.8876877  50.2562027   0.4806578
  82.5449142  49.8311119   1.0349606  63.9599037  15.8650150  87.1045303
  64.1081848  16.7686882  87.3831329  63.8037796  15.3860149  87.9184189
  44.3692131  40.7713318  81.3317032  43.5195808  41.0493050  81.6738892
  44.1711578  40.3989639  80.4724350  64.8877029  33.9941826  49.6372681
  64.9877090  34.8468933  49.2140503  64.4569626  34.1889381  50.4695930
  55.7807884   6.3244147  24.0598450  55.0922737   6.6258774  24.6525478
  55.3162346   6.0713115  23.2621231  72.2243423  34.5089378  72.1993103
  71.7196503  35.2133560  72.6058960  71.7802734  33.7067299  72.4740677
   8.5166359  61.7852249  75.0580292   8.9441538  61.4188690  75.8321381
   7.8047814  62.3206902  75.4084244  69.7557373  11.3677855  12.7709007
  70.6265106  11.0666132  12.5115032  69.7578278  11.3120184  13.7264719
   1.0356356  55.1074219  73.5189438   0.4302858  55.5492706  74.1143875
   1.0284139  55.6454735  72.7273178  52.8710747  32.0047760  49.5892944
  53.4000626  31.5189743  48.9565239  52.0857925  32.2553864  49.1027184
  47.6865120  43.8477936  36.1284866  48.1801682  43.9984436  35.3223572
  46.9055672  44.3936157  36.0366516  61.7705727  17.5858917  32.0395851
  61.0406418  18.0200386  32.4811172  62.2804184  18.3014011  31.6596718
   4.8033853  48.5079575  58.6607094   4.0691156  49.1219482  58.6703911
   4.4107242  47.6687737  58.4202423  13.6437111  31.3068886  52.3736115
  12.9682159  30.7566319  52.7700424  13.3792953  31.3879299  51.4572334
  86.1197128   4.5452318  25.7714081  85.7238693   3.8887010  26.3445663
  86.7976151   4.9548998  26.3088531  44.7417908  12.5410242  70.4859772
  44.0535812  13.0733719  70.8849792  44.4496613  12.4086647  69.5841064
  68.8285217  22.7042694  54.6313095  69.7632751  22.5589828  54.4851494
  68.4534073  21.8247242  54.6751404  57.4604149  52.8737068  66.7005386
  58.1703072  52.9633331  67.3363495  57.6158257  53.5747604  66.0676117
  53.8597527  52.4981422  58.6503906  54.3000069  51.7685432  59.0863838
  52.9797058  52.5062714  59.0268021  68.1386719  10.1904354  65.2170410
  68.3440399   9.4550953  65.7943878  68.2764740   9.8474512  64.3340912
  44.5074654  59.1935425  49.8291855  45.0946770  59.8173561  50.2561150
  43.8303604  59.0164948  50.4821892  26.4557667  26.3405743  87.3072205
  27.2092323  26.0161610  86.8139877  26.8348217  26.7285252  88.0959167
  71.0912476  35.7020149  19.1811848  70.5287857  35.4989967  19.9286156
  71.5165863  36.5260658  19.4183617  74.5706863   6.7839994  19.7825565
  75.3999939   6.4056878  19.4903927  74.5483780   7.6520905  19.3798752
  76.7255249  63.6641502  20.8797874  77.1464310  63.4231567  20.0545654
  77.0415421  64.5494766  21.0602436  17.0849667  33.0401001  81.4013138
  16.4830093  32.5181808  80.8707733  17.8728123  33.1176605  80.8632507
  61.8211403  58.9226379  67.6271896  61.6085548  59.2452164  66.7514114
  62.0532722  58.0035973  67.4941101  32.2920570  21.8830070  71.1358185
  31.7671986  22.5976086  70.7751236  31.6568470  21.1939564  71.3306198
  78.3290405  66.0438385  70.3749542  77.6339874  65.4161987  70.1769714
  79.1321716  65.5231705  70.3640213  72.8035126  42.1954460  40.4119263
  73.6108246  42.6638412  40.1995888  72.9790497  41.2889824  40.1594505
   2.7652941  21.6941204  74.8076630   2.6811831  20.8099842  74.4506454
   2.1159444  22.2087460  74.3283539  60.6608543  47.2212601  58.9714546
  60.6569290  48.1684418  59.1095276  60.0717583  46.8787804  59.6436958
  69.8616028  13.0456152   0.6411061  69.3279800  13.3856726   1.3593301
  70.6186295  12.6489601   1.0721540  69.6182556  42.3999557   8.5403872
  70.0003586  41.7973671   9.1784449  70.2692947  42.4523048   7.8406420
  68.8637543  26.1193771  33.9115791  69.7464828  25.7548237  33.9758568
  68.9995651  27.0639534  33.8369865  80.8042526  62.0975876  65.6255417
  81.5476303  61.9644241  65.0374146  80.6875610  61.2523041  66.0592575
   2.6466460  69.4554062   6.8697519   3.1286993  69.7149734   7.6549153
   3.2546802  69.6218033   6.1494479  73.3670120  66.1445770  69.4453278
  73.5249939  66.9988785  69.8471298  72.5550613  65.8368912  69.8481979
   9.1289101   4.4652705   5.6285539   8.7579136   4.7245407   4.7851248
   8.5754442   4.8998699   6.2774215  51.6067581  19.1391697  79.2276535
  50.8439980  19.1462498  79.8059082  51.3166313  19.6039886  78.4427948
  20.2308540  52.1451187  27.7181339  19.5531330  52.5863609  28.2302208
  20.5699596  52.8237686  27.1344624  22.5233135  68.5719681  14.9826746
  23.3405933  68.2319794  15.3469419  22.6582775  68.5555649  14.0351791
  14.7870026  26.2498837  88.1276932  14.7192297  26.8989239  87.4274139
  13.9195995  25.8468761  88.1655045   1.5512573  62.4934120   8.2704163
   2.0734117  61.8804321   7.7528825   0.7798818  61.9902000   8.5311604
  77.7665100  16.6733723  51.1832085  78.4022751  16.7780304  50.4753380
  76.9157257  16.6854153  50.7447395  52.3593216  63.9916611  38.3556442
  52.8935509  64.7851639  38.3900528  51.8578491  64.0755310  37.5446396
  28.4845333  43.4077835   8.3517361  28.6271954  43.9560242   7.5801725
  29.2865982  42.8912849   8.4301758  41.2675552   5.8487883  86.8432693
  40.9573746   6.6787162  86.4809952  41.2120743   5.9657974  87.7916718
  42.0175476  21.3885422   9.8206882  41.6311302  22.2472019   9.6485920
  42.9226875  21.4685669   9.5197706  22.3842373  58.3336372  62.8822937
  22.1253853  58.3971214  63.8016396  22.8978233  57.5273781  62.8332024
  48.1862335   2.9637265  43.1017990  48.8192101   3.6807857  43.1391983
  48.4955482   2.4082789  42.3862343  38.8565216   8.2607203  16.3249798
  38.2132339   7.7882605  15.7965908  38.3315697   8.7720070  16.9408054
  13.2916956  55.2406197  78.8894348  14.1727095  55.2114067  78.5163498
  13.2590828  54.4923782  79.4855042  41.6502571  37.7460938  12.4453630
  41.1810951  38.1762009  11.7304296  41.5028839  38.3119774  13.2031841
  46.5566864  34.8104324  85.3146744  46.9940529  35.0906754  86.1186676
  46.8932953  33.9289551  85.1536636  69.4685593  23.3749199  23.8617840
  69.4863205  24.3167458  23.6918392  69.5091095  22.9740601  22.9935112
  15.8656540  54.6404533  50.7311096  15.7823124  54.7027359  51.6826401
  16.7527142  54.3098450  50.5895081  76.2753525  45.2347488  12.0183411
  75.4987564  44.6755562  11.9975977  76.9798660  44.6786652  11.6856747
  21.7115097  12.4861021  75.7054062  21.8843765  13.3103447  75.2504578
  21.1986961  12.7391834  76.4729996   0.2705180  11.8471184  39.9991798
  -0.6023425  11.9832249  39.6306381   0.5126701  12.6989994  40.3623505
  75.9979630  39.9143600   3.3638122  76.8563004  39.7665482   3.7608533
  76.0878906  39.5852776   2.4694684  80.5788803  68.1417847  58.6232491
  81.0897293  67.3662567  58.3912506  79.6696472  67.8838425  58.4716415
  57.9936600  69.7203217  65.1181488  58.4848328  69.1877975  65.7437744
  58.5874672  69.8251801  64.3747559  32.8892708  65.5577240   0.8891984
  33.3378525  64.8495026   1.3511759  33.3729591  65.6525574   0.0686596
   9.1268930  41.2826729  38.1596756   9.5198851  40.4955368  37.7825775
   9.4773197  42.0011406  37.6331406  42.4832458  25.4269772   2.6418905
  43.2850990  24.9050522   2.6711335  42.4589806  25.8762932   3.4867325
  25.1636257  56.2730026  30.2028770  26.0311890  56.3301010  30.6032562
  25.3253880  56.3759232  29.2650757  39.2822075  44.4061737  79.2566299
  39.0273743  44.9232521  80.0207825  38.5017853  43.8951225  79.0421677
   9.5843201  65.8631439  66.7361984   9.4642820  66.4362793  67.4933929
  10.5206060  65.6641769  66.7324524   3.8611264  35.8150558  37.4740982
   3.4321067  34.9718246  37.3287163   3.4344289  36.4102974  36.8577766
  10.4926205  52.6511612  23.8781700  10.8842983  52.0086250  24.4697475
   9.7548599  52.1903915  23.4786301  72.3346786  41.3713150  73.0432434
  71.7959366  40.6199799  72.7952728  72.9424744  41.0249977  73.6966095
  18.7506237  17.4937878   8.3026619  17.8634167  17.1471920   8.3973551
  18.7319813  18.3300915   8.7679358  47.7685585  60.7816925  32.9124565
  48.5272293  60.3727837  33.3289185  48.0943146  61.0829315  32.0642967
  20.8976593  42.0664673  65.6241455  21.7147503  41.8953972  65.1558151
  20.2533550  42.2206306  64.9332504  76.6759872  64.0456848  30.0115242
  75.9164810  64.5620651  30.2811966  76.3535919  63.5034943  29.2915802
  32.6939430  61.1458015  13.9482126  32.2897110  60.3722229  13.5552769
  33.3940125  60.7962952  14.4995556  60.2325325  51.0315056  85.5985031
  59.7326317  51.5054283  84.9338837  59.8453445  50.1561928  85.6105194
  64.9709549  64.5865097  78.4017334  65.6982956  64.0747681  78.0477142
  64.1970367  64.2437820  77.9547119  17.1772423  56.7527885  84.5370026
  18.0094128  56.9400024  84.9713669  16.8199425  57.6144676  84.3223419
  12.5686493  15.7492132  70.4008026  13.1683054  16.4952869  70.4049454
  12.3715563  15.5952015  71.3247375  81.7882004  29.4862823  86.5657806
  82.7189102  29.6725655  86.4420471  81.3610992  30.3396244  86.4907761
  18.2470760  17.3924389  85.0337982  19.0386658  17.1438522  84.5564880
  17.6553993  16.6486282  84.9202423  85.9681091  65.1948166  47.6405334
  85.7675705  64.2982712  47.9092751  86.4440460  65.0968704  46.8158379
  49.6781998  47.4568443  33.9405556  48.7584114  47.6754875  33.7908440
  50.1411438  48.2889366  33.8428955  44.6323242  61.2255707  79.9050140
  45.4816055  60.8943367  80.1969681  44.3297958  60.5794983  79.2668152
  76.2684708   4.0009584  21.1332741  75.7220612   3.3966868  21.6357880
  76.2522202   4.8143988  21.6375389   1.3421805  47.9291344  26.8248158
   0.8843198  48.0775948  27.6521950   0.8788707  47.1940842  26.4232254
  56.0356331  38.3378716  28.5649948  56.7964020  38.3051872  29.1449909
  56.1850090  37.6336784  27.9340973  51.3107910  17.2489376  69.5803680
  50.6313896  17.2634621  70.2544937  51.9068108  16.5524940  69.8559723
  68.2397537  60.4033165  13.4939852  67.5666504  59.7309303  13.5991535
  68.8563156  60.0286674  12.8649206  32.6443405  30.7530518   4.8273664
  32.9241982  31.0490189   3.9611607  33.1470451  31.2916222   5.4384785
  10.7028885  23.9160175   5.8610845  11.0069666  24.8129463   5.7221971
  11.3160019  23.3754253   5.3630052  36.6713829  35.7820969  55.5473976
  36.4931831  36.7092896  55.7048340  37.6224174  35.7341309  55.4501305
  71.7973099   6.6642609  37.0290146  70.8483124   6.7796745  36.9809036
  72.0871735   6.6810827  36.1169128  47.6634979  46.8243713  31.6949444
  46.9922066  46.7353172  31.0184288  47.9114799  47.7484398  31.6661243
  65.2478714  60.1797676  11.5175505  64.5716858  60.7074318  11.0926037
  66.0521164  60.3958130  11.0455942   8.2602654   2.5315957  59.0219536
   8.3317871   1.5796415  59.0919495   7.4527216   2.7460928  59.4889603
  82.3537979   8.3709717  29.1936836  81.8009262   9.1460886  29.2924919
  82.7821960   8.2723684  30.0439682  58.6225090  47.2293892  61.0672073
  58.0720787  46.7136536  61.6565094  58.0903282  47.3419342  60.2795868
  27.0313511  51.1731796  40.2124863  27.8113422  50.6306076  40.0964813
  27.3673744  52.0680580  40.2626457  36.0106850  42.5965500  40.3025856
  36.3664970  43.2485619  39.6988373  36.5605507  42.6674004  41.0828819
  78.4516830  40.5970993  75.9171677  77.7814255  41.1398163  76.3324356
  78.6455612  39.9189568  76.5642929  28.3713703  56.9674034  62.0239182
  29.2899914  57.1118431  61.7969704  27.8827686  57.3161964  61.2783699
  44.1928902  44.4648590  76.8236465  44.7549515  43.7363663  77.0875015
  43.3590622  44.0537071  76.5957870  63.9588470  67.9118576  29.6369610
  63.2700996  67.4524307  30.1173649  63.5130234  68.2831192  28.8756218
  55.3038483   5.2081213  58.9506798  54.9578629   5.6936741  58.2018356
  56.2496643   5.3501167  58.9119072  57.0824127  51.6708679   6.9391408
  56.3475571  51.6819305   6.3258729  57.7889328  52.1193619   6.4744735
  21.3343315  47.7650299  70.7158737  21.7052822  46.8828506  70.6961975
  21.3427219  48.0077896  71.6417389  59.6781731  12.1702547  32.9118500
  59.0828247  12.2388144  33.6582375  59.9083061  13.0760708  32.7050476
  70.9151154  28.5079575  85.3457947  71.8285904  28.2938557  85.1561661
  70.5181656  27.6711388  85.5874481  15.4698086  57.6505051  28.6390648
  15.9856920  58.1148529  27.9799175  16.0981960  57.4383850  29.3292580
  14.4020128  41.1769371  52.4642982  15.2736082  41.3090897  52.8372459
  14.0017748  42.0463524  52.4768791  11.3215303  28.5036106  65.6000977
  10.8094511  27.9560127  66.1951981  11.7133818  29.1696777  66.1649399
  80.4905472   6.5256891  28.1853867  79.6147308   6.8844290  28.0422573
  81.0635986   7.2922225  28.2018871  34.9121590  54.1193161  52.9543762
  35.0654869  55.0404778  52.7441788  35.6963882  53.8488770  53.4319534
  27.4095955  38.6804237  66.4932251  27.1472187  39.5663033  66.7434387
  27.2424412  38.6380577  65.5516891  31.6185150  64.8905182  60.4901199
  30.9407234  64.8278427  61.1631012  32.2555046  64.2168961  60.7282600
  60.4664268  31.5029411  63.3357010  60.7088737  32.3363190  62.9320526
  60.4413033  31.6897011  64.2741699  59.8518143  34.3382263  25.6202316
  60.6101685  33.8863182  25.2502136  60.0048294  34.3286858  26.5650749
  26.4032307  22.4621239  73.0080490  26.6149845  22.9831429  73.7826004
  25.7688141  22.9940834  72.5276718  68.8737717  22.3097134  11.1809378
  69.7213211  21.9760933  10.8866596  68.7633514  21.9426880  12.0580521
  86.3023148  54.3093376   3.7201588  86.1637192  55.2049408   4.0282536
  86.5208054  53.8153229   4.5103750  34.4848557  64.6952057  38.1880836
  34.2862282  64.0447464  37.5145302  34.4775620  65.5316849  37.7228088
  64.8123856  53.6546478  67.2887192  64.5874481  53.6928101  68.2183304
  65.5433960  54.2652740  67.1939163  10.9566679  62.4328804  30.0736694
  10.5093565  63.2063446  29.7303066  10.9430132  62.5502548  31.0235462
  12.7924814  27.5938606  63.4502449  12.3686161  27.9905491  64.2113037
  12.0852041  27.1407013  62.9912910  35.2612686  10.1190062  20.3209496
  35.8722572   9.5144587  19.8997040  35.6364288  10.2732697  21.1879501
  86.8861389   8.8114290  39.1774483  86.0185776   9.1965866  39.3008461
  87.2801056   9.3286562  38.4749527  32.3788528  52.9675941  84.4423752
  33.2958603  53.1921310  84.6002121  32.3993301  52.0472412  84.1801453
  26.8176060  31.2738380   3.5427327  26.0261211  30.9092979   3.9388301
  27.5365620  30.8239765   3.9865324  84.5029678  35.8834648  22.0201378
  85.3072662  36.3562393  22.2342014  84.2221909  36.2548866  21.1838131
  77.1046219  34.2625656  45.2404366  77.0933533  35.1703377  45.5438385
  77.7723846  34.2474556  44.5548019  38.3369637  41.5341606  14.2117167
  39.2182655  41.6665916  13.8624334  38.3791618  41.8768196  15.1044855
  64.0555420  12.4111185  63.8760490  63.2216759  12.4961414  63.4138107
  63.9784889  13.0075531  64.6207352  58.5564575  46.7901077  48.4092903
  59.3099670  46.2964478  48.7329483  58.7575417  47.7013092  48.6226273
  37.3669853  13.2819595  75.5661087  36.9612427  13.4203892  74.7102814
  38.2615280  13.6063995  75.4623718   4.2290120  61.8540001  75.3297501
   3.4586372  62.4170113  75.4057465   4.0196571  61.0881615  75.8644409
  18.2177296  57.8461838   7.2079616  18.4551640  57.2917137   6.4647150
  18.4165897  58.7358894   6.9162145  50.2930069   4.0140738  76.7794037
  49.7320595   3.9573684  76.0058746  50.4625549   3.1031480  77.0196075
  10.3989277   2.1337774   5.6152067   9.7939911   2.8673601   5.7253900
  11.2684269   2.5272720   5.6884508  69.1381073  65.9268799   2.8948946
  69.7320862  65.1924820   2.7397337  69.7149506  66.6610413   3.1058357
  75.8821259  64.7063141  69.8432770  75.6423035  63.8098907  70.0780945
  75.0798798  65.2113800  69.9757080  35.5440025  10.8415289  14.1791096
  34.9540482  10.2015591  13.7808371  36.2952576  10.8757553  13.5869284
  35.9745750  23.2672844  84.7157669  35.4459038  23.4425297  83.9372940
  35.3475685  23.2798634  85.4389114  70.1819763  65.0458527  32.0695267
  70.7911530  64.4607620  31.6191883  69.3481216  64.5758896  32.0612297
  79.3993149  38.4184341  20.0126057  78.8513718  37.6390381  20.1049652
  80.1123428  38.2853127  20.6371899  20.2462387  12.7971239  56.9805145
  20.9477215  12.2957649  56.5648270  19.5388832  12.1638184  57.1021843
  61.7333832  15.9142780  21.9125595  61.3284531  15.9458284  22.7793179
  61.3505211  15.1414709  21.4973240   4.2044277  45.3458481  15.4135571
   3.3053384  45.1125946  15.1823368   4.6646829  45.3856773  14.5752192
  45.2645073  58.5377541  40.6196136  44.7785110  59.2926445  40.2876740
  45.2462273  58.6406708  41.5710907  24.0766201  35.7598877  15.0431786
  24.9126015  35.8361702  15.5031214  24.3164158  35.7035789  14.1182146
  66.5891571  58.7249260  57.7270126  66.5636826  59.4754143  57.1334229
  65.6838531  58.6202545  58.0197601  63.2786560   5.0917697  34.6778641
  62.8447227   4.5686393  34.0038681  64.1532059   5.2579069  34.3260155
  75.4478149  16.0074596  61.6713638  74.5086136  15.8244276  61.6463203
  75.6229553  16.2364407  62.5841217   2.7374499  13.4148731  55.9243584
   3.2627950  14.2112608  56.0018883   2.0191152  13.6577244  55.3401909
  15.4200296  43.4071846  84.7601166  15.6118984  42.4934807  84.9712219
  16.2297173  43.7383537  84.3715744  72.9003830  26.7289581   3.5664499
  73.6775970  26.3042946   3.2033637  72.1744690  26.3857670   3.0453920
   0.4793266  53.5036316  37.3016891  -0.0247754  52.6900444  37.3156013
   1.1062832  53.3847542  36.5882263  58.0577431  30.8129158  48.5365829
  58.8949814  30.9694901  48.9733315  58.1305237  29.9232121  48.1910934
  56.8334045  55.1166382  83.5821838  56.7235336  54.1885948  83.3750839
  57.7566643  55.2012520  83.8202133  82.6948395  31.2795582  31.8304024
  83.2505112  30.7635326  31.2463036  82.4610748  32.0530052  31.3172092
  40.9669151  62.6788940  57.3657494  41.6621819  62.3017120  56.8267021
  40.4679871  63.2294693  56.7622833  37.3647728   5.0758686  42.7106361
  36.6366920   5.5785336  43.0759583  37.0172119   4.7062645  41.8989525
  27.8913059   9.6713486   0.3716473  28.0244637  10.3258476   1.0573095
  28.0112057  10.1536779  -0.4464082  25.1202812  18.6541958  11.2975426
  24.2156811  18.3479538  11.3619184  25.2114220  18.9427052  10.3894196
  52.7358971  56.8605042  50.0782928  52.0917282  57.4826126  50.4163132
  52.5276451  56.7821846  49.1473122  55.1751060  39.6374245   7.0386605
  54.6202660  39.5496826   6.2636218  55.9425316  40.1194344   6.7305055
  31.2075596  13.1942720  66.0139923  31.5585423  12.8759718  66.8456955
  31.2606983  14.1476583  66.0807877  71.4496460  40.6209717  19.2840862
  70.6392746  40.4611664  18.8003616  72.1439972  40.4877434  18.6388226
  64.0145950  54.0405655  54.1607018  63.4314117  53.4923096  54.6856194
  63.5511360  54.1577377  53.3314209  14.2854910  71.3083954  72.5267258
  14.6762762  71.9506607  71.9342575  13.4795914  71.0366364  72.0875168
  61.7020569  35.6267509   9.8135834  61.5292892  34.8900604   9.2273512
  60.8925552  35.7296371  10.3139362  58.5015869  28.5255337  51.2243385
  58.9171982  29.3402233  50.9418793  58.0895653  28.1797943  50.4325485
  85.1865234  19.0614891   4.8029795  84.7811661  19.8439808   5.1766462
  86.1274719  19.2163868   4.8858056  27.7347546  71.3260956  73.5239334
  27.1821709  71.3736115  72.7437897  27.1410046  71.5171967  74.2500000
   0.8493569   2.0536766  54.0598984   1.3219523   1.3632213  53.5949707
   1.3929303   2.8334944  53.9474525  84.6108704  50.2834435  63.3849907
  84.7810974  49.3549843  63.5437775  83.7128830  50.4175606  63.6880798
  16.5618916  12.8162155  74.9723206  15.7044802  12.5231924  75.2808838
  16.4160614  13.0638666  74.0592880  66.6306763  23.3869419  50.6710281
  65.9463501  23.9467812  51.0377769  66.4659653  22.5252628  51.0539246
  15.5361118  65.1443481  47.3512535  16.2219391  65.8096695  47.2945747
  16.0068893  64.3293152  47.5253983  44.1489639  18.4256516  55.1804733
  43.4891396  19.0644760  54.9107132  44.9854050  18.8501339  54.9896507
   4.7586675  17.1164303  19.1830902   4.8460021  16.2003708  18.9195728
   5.2631779  17.1815472  19.9939308  30.7710152  69.5030441  67.2728806
  31.2792568  69.5105438  68.0839691  30.4483395  70.3998337  67.1841202
  17.7039375  65.9414520  62.3637085  18.0984135  65.6400070  63.1820946
  18.2308464  66.6987381  62.1085320  80.3436890  40.8259087  84.4277496
  79.8777924  39.9913330  84.3761978  81.1112366  40.7066803  83.8683853
  65.5009232  46.6473923   6.2000232  64.6523056  47.0567398   6.0311942
  65.9858170  47.3005981   6.7044373  30.0874481   3.8580043  17.9728603
  29.4822807   4.5981135  18.0202141  30.5881767   4.0089631  17.1711655
  14.9702377  18.9587326  76.6068726  15.5491238  19.6872883  76.3825378
  15.4765759  18.4322052  77.2254410  41.6894951  21.6189747  56.8149872
  41.6406441  22.5320129  57.0981903  40.8869057  21.2205219  57.1516190
  27.2474098  18.6481285  84.8929672  26.4040394  18.9988537  84.6066971
  27.1115894  18.4180813  85.8121262  67.8041229  45.8204803  83.7632980
  67.8978729  46.1718864  82.8778839  68.6840363  45.8733177  84.1363754
  70.2943497  53.2217712  25.5665264  70.0142517  52.7683372  26.3616219
  71.1554947  52.8524437  25.3709240  62.5782814  25.9971714  71.8281937
  61.8585167  25.9838009  71.1973267  63.3378944  25.6932030  71.3313828
  75.8473969   7.8670859  74.9512253  75.5268784   7.3084731  75.6593552
  75.2496796   7.6974182  74.2230911  26.4879208  41.8176880   4.1653867
  25.8450737  41.6177902   3.4849308  25.9932709  42.2999382   4.8279476
  33.4362030  31.3561611   2.2304277  32.9295311  31.7245884   1.5067028
  34.3490372  31.4671097   1.9646221  14.5708990   4.9462934  11.2936678
  14.6378860   4.0839314  10.8836966  13.8062248   4.8808012  11.8656969
   3.7340877  15.8464184  25.6615505   3.3947363  15.8530378  26.5565529
   4.6850209  15.8146563  25.7661877   7.0698543  14.2391834  18.3037338
   7.8342180  14.4912014  18.8218708   6.9244428  13.3189411  18.5233727
  85.3591690  50.0604744  58.3825340  85.1648636  49.4576263  57.6648598
  85.1570282  49.5627708  59.1747856  40.3247681  56.6541748  67.4855957
  40.0272293  56.7347870  66.5793915  39.6316185  57.0645523  68.0026779
  49.7982788   7.0977569  78.5289764  49.5978432   7.8146825  77.9272461
  49.3829689   6.3308239  78.1345596  18.9982719  39.7281761  58.3088226
  19.7145519  40.0443573  58.8594589  19.3689976  39.6992989  57.4268036
   9.8503675   2.7200296  17.0221539   9.7022867   3.1553113  16.1826115
   9.9114113   3.4353011  17.6553154  24.7483101  32.4469833  83.5890656
  24.2293911  31.7974701  84.0634995  25.5994778  32.4397354  84.0268936
  85.5010223  27.4784279  87.4876862  85.0343857  27.1276455  86.7291107
  84.9601440  28.2104015  87.7841568  60.6584091  19.0081825   4.0624819
  60.1283264  19.4896507   4.6976461  61.1909409  19.6800117   3.6367066
  81.3996506  22.8189850  83.4280624  82.0159760  23.4591961  83.7837448
  81.9446564  22.0696316  83.1879196  13.2749701   9.3303232  22.1942368
  13.8366804   9.8582153  21.6267471  13.8244715   9.1242228  22.9504128
  32.4262962  10.9623938  74.1594086  31.9826832  11.5641365  74.7571869
  32.3603477  10.1083670  74.5866318  86.9935226  19.1763268  74.8785477
  86.0835190  19.1718121  75.1753693  86.9355392  19.0895996  73.9270477
  21.9245472  67.2585373  61.8460770  21.6509209  66.7138138  62.5840683
  21.9317722  68.1495438  62.1957741  43.9739342  16.9752960  63.3436661
  43.9086304  17.9087486  63.1420898  44.2934303  16.9467945  64.2455215
  55.3871498  16.6827888  79.3723450  55.3818779  17.4420624  79.9551926
  54.8286400  16.0406456  79.8104706  38.2381096  18.8507538   7.7238622
  38.8848572  19.5399342   7.8754673  37.4015694  19.3135548   7.6764827
   1.1026671  43.0292053  73.0234528   1.8143350  43.6319084  72.8077850
   1.5089098  42.3708267  73.5871353  24.7295303  60.9945717  60.6795654
  24.7639256  60.1782036  60.1809731  24.2433834  61.5980721  60.1177063
  58.8103218  47.4663544   1.2674402  58.4560966  46.9551430   1.9950501
  59.7536545  47.4898148   1.4280834  58.3254509  59.9018745   3.9994097
  57.8640442  59.0693474   4.1005883  57.9851913  60.4516182   4.7052670
  35.6115265  51.2365189  36.0809097  35.8786621  50.3968811  36.4549103
  36.2036400  51.8749962  36.4783745  58.8651657  19.8921165  17.4089947
  59.7987061  19.6810722  17.4229984  58.8021278  20.6620808  16.8438301
  41.7140198  59.5990944  87.8587036  42.6443443  59.7024422  88.0588226
  41.6570778  59.7269096  86.9117813  77.2768784   2.4326112  69.1891403
  78.0752335   2.4756653  69.7154617  77.5642929   2.6420453  68.3004532
  63.0877991   0.5215060  34.7529602  63.1544800   0.8527989  35.6485214
  63.2850113  -0.4121738  34.8276749   3.9753094  47.8102837  19.6649551
   3.5420766  48.3625793  19.0141754   4.5485568  47.2405434  19.1521053
  51.2253799  46.0979156  23.1039543  52.1797867  46.0349159  23.0668926
  50.9345741  45.2097435  23.3108845   1.1182623  61.2786560  88.9582138
   1.3221623  61.7565269  88.1542892   1.4264840  60.3878098  88.7920227
  20.4207363  40.0648880  55.9038315  21.1691322  39.6113014  56.2916412
  20.7769966  40.4921570  55.1248894  69.9013138  22.9419689  70.6818390
  69.8867950  21.9849548  70.6938553  70.1474152  23.1665211  69.7844849
  10.6073513  63.6515503  71.4671173   9.6629601  63.5004463  71.4280548
  10.8426752  63.4631805  72.3756180  69.8446655  23.7937565  61.9679146
  69.5162659  23.8331966  62.8661499  70.0189362  24.7060242  61.7363358
   0.9164205  58.6880798  77.0204697   1.7780060  58.9151039  76.6706619
   1.0086125  57.7819557  77.3148651  86.3390961  25.2171040  35.9148331
  86.4216843  25.9887676  35.3545227  87.0822220  25.2764320  36.5152359
  86.2181320  15.8978949  39.3381958  86.1032257  16.5364094  40.0419884
  86.1544724  16.4135132  38.5342560  84.4598770  49.5439301  39.4544182
  84.9794846  49.7176361  40.2393188  84.9319839  48.8430099  39.0049133
  27.7756882   4.3632960  83.8291016  27.0135937   4.4210768  84.4053879
  27.7695007   3.4595699  83.5137100  84.5904922  67.2815323  18.5033569
  84.5028458  66.3437576  18.3326740  84.9878311  67.6338120  17.7069588
  35.8080940   7.9565673  10.4497147  35.5875702   7.5135541   9.6303606
  35.4886055   8.8511400  10.3318272  79.5948486  24.7977123  57.1708603
  78.6915054  24.7750702  56.8551254  79.9313812  25.6430340  56.8735237
  37.3804207   1.4554844  79.3784027  37.4015999   0.8106917  80.0855255
  36.4980278   1.3830607  79.0145721  56.8520050  47.9743309  70.3755951
  56.1144524  47.6152840  70.8688812  57.5452881  47.3214493  70.4721985
  75.1630478  65.5609055  34.3290596  75.8072205  65.9690170  33.7505035
  74.5028305  66.2396927  34.4690323  75.0793839  31.9639950   8.1137018
  75.0034103  31.3616581   7.3736691  75.6610947  31.5163841   8.7281046
   9.5063000  48.5013809  59.3295517   9.2960587  49.0910454  60.0536537
   8.7025595  48.4625969  58.8111610  82.0148926  41.2269707  52.4992981
  81.5139771  40.5717735  52.9851303  82.7705765  41.4125023  53.0567513
  70.3634109  41.4088821  69.0737915  70.8247375  42.1933212  69.3705444
  69.9180298  41.6819649  68.2717361  19.5250816  20.6268997   2.2880261
  20.4088306  20.7103100   1.9298909  19.1264706  21.4852276   2.1444571
  40.4928017  53.5018730  49.4709740  40.1340256  52.9677887  50.1796837
  40.4884109  52.9227638  48.7088432  44.4194679  14.4904966  43.9993362
  44.7929688  15.3519869  43.8134193  44.0620880  14.5701780  44.8837357
   1.5523357   7.5121732  74.2126617   1.7327235   7.1400189  75.0759048
   2.4172869   7.6839337  73.8403854  46.9782600  58.2591209  23.3279362
  47.2420578  58.9471893  22.7170334  47.6910095  57.6211853  23.2924747
  62.2615738  52.4558640  71.5130157  61.3289223  52.3144417  71.3505478
  62.6809273  51.6462975  71.2215118  69.6108093  16.6863136  68.9992599
  68.6902008  16.4242973  68.9918060  70.0804749  15.9205141  68.6688080
  54.0526276  27.0767841  57.1457710  53.7554359  26.2262192  56.8225822
  54.9285583  27.1814327  56.7742500  31.5701923  22.8281097  85.3223801
  31.0123863  22.1862450  85.7618103  32.4555168  22.6205387  85.6212845
   5.1547537  30.2877674  87.6177826   5.0997777  29.8025818  88.4410706
   6.0437655  30.1247768  87.3026199  26.4340763  13.7875204  10.7064285
  27.1665268  14.4017372  10.7562809  25.6640434  14.3153753  10.9177341
  78.1958160  10.1932735  11.5065508  77.8591080   9.7549028  12.2880182
  77.5852432  10.9146595  11.3547726  72.2969360  36.0683708  15.0742044
  73.2498474  36.1588020  15.0720119  72.0265350  36.3614120  14.2040091
  55.3012848  38.1595192  33.4166107  55.6871109  37.5807419  34.0741692
  54.9172745  37.5662117  32.7710457  53.3699760  18.8934460  69.7338791
  52.7116585  18.1988525  69.7140884  52.9254532  19.6554031  69.3623276
  29.0883923  40.8003387  84.7153549  29.8468170  40.3597527  84.3320694
  29.4439602  41.2843742  85.4606781  61.8614540  14.0554504  69.7402039
  61.1988411  14.1533699  70.4240112  61.4217224  14.3381252  68.9383545
  51.4372940  14.1093607  27.6699142  50.9813232  13.6229725  26.9830761
  52.3471603  13.8192148  27.6051445  78.8951721  21.9784374   7.5543370
  79.1450806  22.5536289   8.2774782  79.1244125  22.4710236   6.7662749
  21.3925667  22.7247009  11.8376837  20.5626030  22.9542961  12.2556257
  21.6265202  21.8783321  12.2186813  39.2390709  26.9908924   9.2378998
  38.7740784  26.7614193  10.0424833  38.8743782  26.4045868   8.5749702
   4.8635116   4.1712837  74.3379517   5.1622787   3.2701683  74.2156372
   5.4848404   4.6997037  73.8369980   4.1746888  21.8718967  17.8051205
   4.4004974  21.3797798  18.5944633   3.5632153  22.5431252  18.1080780
  83.5451355  70.7797165   3.5559754  83.8899307  71.0122070   2.6938281
  84.1523666  71.1861038   4.1743259  59.6903572  18.6956463  27.0620537
  58.7778053  18.4090137  27.0984344  60.1621437  18.0620747  27.6026440
  57.2776413  36.7339134  51.8687363  57.7044983  37.3026237  52.5095139
  56.7936668  37.3336792  51.3010406  49.3747253  57.5714149   1.4421953
  49.7779732  56.9119530   0.8776294  49.6724625  57.3464928   2.3236682
  23.6425743  70.4403152   9.0920811  23.2717228  70.1980591   9.9406157
  24.3392277  69.8008499   8.9437981  66.1942368  53.1430092  12.7204571
  66.8591309  53.6349678  13.2022486  65.3618927  53.4495544  13.0802698
   0.4731324   3.3723841  13.6321011   0.4756337   2.4942260  14.0129738
   1.3211595   3.4459903  13.1943064   7.2627554  18.0088882  18.0445080
   6.4169030  17.5617561  18.0155487   7.0946765  18.8071518  18.5452633
  55.4478989  26.3045044  42.9117699  55.5539742  25.8487778  43.7468109
  54.5402298  26.1345806  42.6597824  82.5595169  47.9099312  25.3831596
  81.9959946  47.6762123  26.1207542  82.8252640  48.8120956  25.5612373
  31.2909355  25.6846504  19.8379459  30.4568462  26.1539536  19.8211937
  31.9372597  26.3350372  19.5631866  67.5740128  18.5768909   3.1884785
  67.7761002  18.9052753   2.3123751  66.9280243  19.1938496   3.5324049
  86.0196152  31.1087646  55.7216148  85.1340866  30.7601643  55.8243408
  86.5392838  30.3600941  55.4289207  54.3364029  53.0405731  25.5542431
  55.0340843  52.4481659  25.2740211  53.5985031  52.4643288  25.7534256
  79.2722244  19.4029961  38.2223701  78.9314346  19.4268093  39.1165352
  79.7343674  20.2349625  38.1199493  56.5589638   5.4278831  71.8381119
  56.4332581   6.0994740  72.5084839  56.2766228   5.8457570  71.0245438
  53.3455963  28.0605793  67.3039246  53.8287315  27.9468613  68.1223907
  52.9581871  28.9330883  67.3737335  12.1420193  54.6053963  51.4732208
  12.8477545  54.1625595  51.0019875  11.4083080  53.9916916  51.4376297
   2.7049701  52.3458786  35.7539787   3.6113136  52.6164207  35.9008827
   2.6985083  52.0059929  34.8591805  75.7381210  59.9298363   9.4385319
  76.5379715  59.8222618   9.9532137  75.7418518  59.1889687   8.8324499
  66.2399063  48.4814453  58.4892883  66.8738098  47.7805290  58.3372459
  65.3966599  48.0326424  58.5504532  16.4684181  43.0478287  38.0788727
  17.1475220  42.7376099  37.4798622  16.7502308  42.7402496  38.9403877
  84.6251984  24.0400620   3.4112523  84.9647064  23.7422810   2.5672770
  85.2342453  24.7254639   3.6860650  14.9187908   5.2149949  19.5400105
  14.9299154   6.1561732  19.7140541  14.0449066   5.0469351  19.1874275
  51.2913055  65.9388123  67.3394699  51.9891663  66.5094757  67.0176544
  51.3962021  65.9453201  68.2908783  43.2034492  33.9853706  32.9779587
  42.2621651  33.9576607  32.8063545  43.4593163  33.0665550  33.0588379
  56.9642487  51.4044418  33.0881310  57.7394485  51.5360336  32.5422554
  57.0589371  50.5146675  33.4280891  35.1438446  13.1026134   0.0691264
  34.5297737  12.3702669   0.0160531  35.5232391  13.0340490   0.9452490
  31.8475113  65.3137665  48.7035179  31.5110931  65.8712311  49.4051514
  32.5895882  65.8009720  48.3454819  68.4983215  66.1860962  54.6648331
  69.0934601  66.5629654  55.3129158  67.7239685  66.7479401  54.6954498
  20.6864376  62.2488594  76.5109558  20.2175846  63.0728760  76.3790283
  21.3265228  62.2209702  75.7997971  43.2588882  66.2493286  70.5339127
  43.0596504  66.0082932  71.4385834  42.5774727  65.8205414  70.0161819
  62.8602448  58.3494339  13.6249571  62.3735542  59.1452065  13.4102345
  63.3121185  58.1186905  12.8132915  54.7129250  59.8970680  82.9570694
  55.4215355  60.2032547  82.3910751  54.7574959  58.9425201  82.9015503
  31.9393578  50.2157860  84.3370056  31.2044239  49.6466827  84.1084671
  32.5956841  50.0420074  83.6622696  75.3496246  16.9609375  64.4386597
  76.0689697  17.5733929  64.2847977  75.7809525  16.1358299  64.6608887
  30.8649292  20.3816185  79.0452042  31.1962318  20.0813808  78.1988449
  31.3051624  19.8236256  79.6863556  46.0245934  53.1419678  56.4847336
  45.0785561  53.1099167  56.3425369  46.1409302  53.7936211  57.1761398
  72.9025040   0.2834742  54.3059044  73.5599823   0.2366671  54.9999962
  73.1254501  -0.4365145  53.7158661  84.2850418  31.7669334  64.1675797
  83.9767151  31.7248173  63.2623749  84.3365402  30.8525238  64.4458542
   5.8963666  45.8509064   0.3816222   6.6310997  45.9298058  -0.2267967
   5.9445567  46.6414566   0.9191500  82.9429703  33.3352814  13.6655264
  82.6175232  34.1584511  14.0298147  82.4630966  32.6568260  14.1405592
   4.8562331   0.6263578  19.1021175   4.3582997  -0.1784489  18.9586582
   5.7530107   0.4003990  18.8552074  12.5754118  51.9288864  40.1905937
  12.3653908  51.6795006  39.2906342  12.8021746  51.1044655  40.6208725
  47.2368050  51.2526932  54.5371857  47.8840294  50.7273598  55.0076714
  46.9488106  51.9056244  55.1751289  85.0624084  38.6978607  47.2065964
  84.6086197  37.8895912  47.4453735  84.7504044  39.3438683  47.8402824
  54.1783371  16.2427883  44.7306252  53.5403900  16.2276154  45.4440880
  54.4977684  15.3421316  44.6757584  43.7680054   1.4587120  61.7486763
  43.2287712   2.2391734  61.6208496  43.6336174   1.2224357  62.6664734
  22.9053440  33.1981087   9.9789762  22.7086296  34.1026611  10.2225418
  22.0477505  32.7834740   9.8849449  56.2569923  60.2836456  56.8027916
  55.7669106  61.0168114  57.1749725  55.5948105  59.7533646  56.3594589
  53.3067017  56.4694977  31.3249416  53.0294113  56.9816856  32.0845490
  54.2385635  56.3078117  31.4723167   7.6392961  10.1777182  72.9795914
   6.9786620  10.7142010  72.5414352   7.9993086   9.6263342  72.2848969
  54.3302994  37.4677467  47.8001175  53.9147034  36.7314949  48.2489433
  54.0633278  38.2367859  48.3036385  69.8105164   7.1918807  17.0156784
  70.6774902   6.8178406  17.1727829  69.5428467   6.8296418  16.1710682
  86.3795395  33.3038864  82.8104095  86.4594879  34.1002426  82.2853775
  85.8577271  32.7114983  82.2690887  43.6086502  46.0764847  28.7199154
  43.0605240  45.5984268  29.3422108  43.5668564  45.5580025  27.9163837
  58.5471764  12.5967407  16.7041340  58.2473259  12.4316568  17.5980396
  58.0924568  11.9420214  16.1742229  13.1892939  63.0412331  15.7869825
  12.8219910  63.3470001  14.9576283  12.7441435  62.2105217  15.9542971
  40.5947266  33.4463730  44.9524765  40.2106400  32.9781990  44.2111778
  40.5173988  34.3711281  44.7177696  66.8896255  37.3242378  26.0415154
  67.3439560  38.0235138  25.5715904  66.4488831  37.7691956  26.7653866
  17.1819878   8.8347130  81.1610641  17.2807560   9.7841558  81.2320175
  17.2483311   8.5189962  82.0622635  59.1207390  39.6330757  27.2114124
  58.9404945  39.7835426  26.2834568  59.6811905  40.3652763  27.4683361
  20.6546421  51.5870247  84.7661743  21.5010204  51.4018784  85.1731110
  20.4249992  52.4621735  85.0785980  37.3898506  62.8526268  31.7547493
  36.5887451  63.0449257  32.2420654  37.1467209  62.9735947  30.8368778
  25.8733788  45.8240814  77.6064529  26.0626659  45.0542946  77.0699615
  26.6453190  46.3812180  77.5067444  25.8340759   1.3763317  81.1097412
  25.6778927   1.5383959  80.1793823  25.0319481   0.9541402  81.4172745
   1.5998700   1.3469944  84.6468658   2.2195764   1.6488441  83.9827271
   1.8209124   0.4251357  84.7793350  78.7122574   6.6154928  80.4358521
  78.7789154   6.8844337  81.3520737  77.8582306   6.9415669  80.1520462
  33.8788033  67.5510254  70.3717422  33.1512070  66.9644012  70.5784302
  33.5178680  68.1637726  69.7310486   4.4647832  31.4865837  20.2124710
   4.5012932  32.4167786  19.9896774   4.6042833  31.4613762  21.1591167
  58.3229904  13.7551041  76.5659790  57.6795235  14.4607306  76.6313477
  58.6028252  13.7701750  75.6507187  46.1900291  28.1959114  29.4991035
  47.0651016  28.1536217  29.8847027  46.2815475  28.8011761  28.7632294
  73.3516464  15.8784361   1.8548735  74.2371063  15.5244331   1.9378418
  72.9329987  15.6749239   2.6912611  82.7217255  61.2813797  86.6371460
  82.4205933  60.4362831  86.9708633  82.5526886  61.8951607  87.3519440
  80.8755875  22.4933529  76.7328033  81.6121674  22.6545410  76.1431351
  81.2779312  22.3849754  77.5945511  57.4916801   3.0495083   1.9693308
  57.0634537   3.7669005   1.5022094  57.4015083   3.2784345   2.8943679
  65.8131485  32.9748573  33.2918625  65.4958649  32.3233681  32.6664619
  65.5816422  32.6168289  34.1488647  18.0073090  53.9900513  64.2162552
  17.0551720  54.0360146  64.1293411  18.3272324  54.7690506  63.7612381
  83.0131149  63.6720009  22.9993382  82.6892014  64.1974030  22.2677193
  83.9552307  63.8403931  23.0165157  28.8937206  22.3137627  71.7691040
  27.9678345  22.1918888  71.9791260  29.0121841  21.8584099  70.9355240
  28.5721397  61.7819366  71.9350433  28.1088352  61.0933151  71.4581985
  28.8537655  61.3624306  72.7480240  52.4239655  58.6899338  27.0789433
  52.7023659  59.5989609  27.1902790  52.0576324  58.4458237  27.9289093
  35.8441734  30.7601204  10.2877045  36.5984116  31.2400246  10.6298265
  35.9502106  29.8722458  10.6292696  77.9060287  52.9214859  11.4525757
  78.6052856  52.5927124  10.8876162  78.3632584  53.3070068  12.1999388
  25.4909115   7.8655038  70.6787643  24.6782780   8.2590342  70.3609695
  25.5700665   8.1750345  71.5810699  29.1236935   0.0084990  70.5899887
  29.4910927  -0.1022511  71.4669113  29.3355503   0.9115967  70.3538513
  24.7252769  13.6527472   4.6723795  24.1369781  13.7790899   3.9279509
  24.4012699  12.8611450   5.1020513  53.7902565  12.0531120  83.2723007
  53.9823418  11.1524181  83.0113678  52.9065132  12.0132732  83.6378708
  69.8945694  55.8195610  26.2009735  69.5228348  56.1799622  25.3958950
  69.9061584  54.8733482  26.0568104  57.2225685  61.3987083  71.5503769
  57.8768082  62.0965729  71.5159302  56.8944664  61.3335152  70.6535263
  62.9974747  51.9785652  47.4126244  63.3039246  51.6854057  48.2707481
  62.9713326  51.1819115  46.8826370   4.0486989  63.6471710  40.9746132
   3.5612240  63.6912270  41.7972069   4.6154933  64.4183578  40.9904938
  79.0798416   0.7521574   7.0235238  78.9033813   0.2830148   6.2080483
  80.0295181   0.8717009   7.0303917   4.7236562  53.3892288  78.7616272
   4.4431148  53.8117485  77.9498367   4.0855708  53.6771965  79.4144287
  28.9712505  34.7544174  10.6489353  28.1744843  34.8763161  11.1652050
  29.5975552  35.3726311  11.0254784  83.2059708  12.8207150  69.3131561
  82.7470703  12.0323114  69.6030884  83.8093872  13.0231886  70.0280914
  13.2447586  14.6084604  18.5393677  12.5478468  15.2048359  18.8130131
  13.2896719  13.9558716  19.2381840  80.6031418  10.6139994  29.2820644
  80.4016953  11.2140322  30.0001240  80.3165665  11.0774641  28.4951038
  21.2729130  71.1768723  44.8734856  22.1201439  70.8531952  44.5674362
  20.9166660  70.4584579  45.3961792  21.0006485  23.7749138   9.4634161
  20.8821812  23.3399906  10.3078327  21.5841446  23.1944027   8.9747772
   1.4561601  46.9920883  16.1812363   1.5562425  46.3543968  15.4744377
   0.7951726  46.6088181  16.7578030  33.2927856  55.5866966  66.4428406
  33.7224121  56.3051186  65.9785995  33.2912331  54.8633842  65.8159103
  32.4125824  42.7906113  32.6979065  32.6774101  41.9170570  32.4098091
  31.5192661  42.6753998  33.0218620  48.6759720   9.8240452  88.5604630
  48.1686821   9.0757389  88.8749924  48.1274147  10.2169237  87.8815231
  59.5353355  64.6025238  25.1649265  59.9260941  65.1042633  25.8803253
  60.2777481  64.1724014  24.7406101  16.3746891  52.6042824  23.3090820
  17.2236729  52.3260307  23.6526432  15.7978525  52.6113243  24.0729179
  42.9317474  40.4771996  77.0890884  42.1797295  40.9335670  77.4664917
  42.6151352  40.1491203  76.2474518  56.0735512  28.5311413   4.3771715
  56.7132988  28.3920879   5.0754685  55.3150482  28.0097389   4.6399355
  61.8181953  25.1023808  88.0379791  62.3444519  24.5612659  88.6266022
  61.1758537  25.5230694  88.6095047  22.7835960   1.3751733  18.4890175
  23.0355091   2.2397804  18.8134041  22.2402458   1.0069315  19.1857243
  38.6540184  34.2992096  21.2991791  37.7883759  34.2412643  20.8947849
  38.4754028  34.3961945  22.2345505  68.7141342  23.0654659   6.9720078
  68.3194580  22.7672195   7.7914648  68.4980850  23.9968853   6.9271741
  56.6247826  12.4345579   2.2965221  56.8447533  11.5774679   2.6615429
  56.8731956  13.0569038   2.9800482  80.4934769  40.4945831  40.4371910
  80.8467331  41.3270073  40.7510605  81.2590866  40.0115356  40.1261711
  81.8939972  25.5086327  49.9616051  82.3028717  24.8956127  49.3506584
  81.8627701  26.3376503  49.4841309  76.8506241  60.5512543  52.7334747
  76.8562546  61.0927238  53.5227852  75.9234619  60.3837242  52.5645485
  14.2646160  23.1788540   0.5914687  13.7870026  23.8672104   1.0543768
  14.4592361  23.5573940  -0.2658890  59.9725151  30.6938534  58.9866562
  60.6912079  30.3599110  58.4498177  59.5703201  29.9107342  59.3624191
  67.6547012  48.9616508  24.7440681  67.4121017  48.0360603  24.7698669
  67.2473755  49.2938042  23.9440746  12.5688086   9.4376669  16.3384552
  11.7590027   9.8709393  16.6081238  12.4185534   8.5110855  16.5258102
  35.9282036  52.8826752  87.0045700  35.0045090  53.0977707  86.8751450
  36.0283432  52.8183441  87.9543381   8.3890619  68.8435287  61.4800453
   8.5778742  69.4567337  62.1903725   7.9080558  68.1307220  61.9004936
  85.0493088   0.3419401  57.5355606  84.5916214   0.3744926  58.3756142
  85.9630432   0.1752679  57.7669411  58.4827118  54.0862198  64.4633026
  59.1044426  53.4408379  64.7997055  58.9138527  54.9293976  64.6026001
  76.7756653  57.6050720  83.8712082  77.0696564  56.8324432  83.3886642
  75.8467407  57.6839027  83.6541367   7.8338261  50.9804726  33.5505676
   7.1106043  51.5749969  33.3512611   8.0846405  50.6154823  32.7019806
  80.2966919  14.8814440  36.0493736  79.5390396  14.4010458  35.7155914
  79.9341278  15.4712095  36.7103958  32.3955612  58.6270027  82.1503983
  31.8754539  57.9365273  81.7393417  31.9395466  58.8140373  82.9709549
  57.2151909  21.0198250  55.3108330  57.4791603  21.0548668  56.2302513
  57.9243317  21.4588547  54.8411484  47.9133949  25.7324257  36.5414314
  48.4423981  25.7863083  37.3373528  47.0915298  25.3331642  36.8266640
  69.7079086  22.5297108  40.4004326  68.8939743  22.7357235  39.9407616
  69.5785446  22.8759079  41.2834091   9.3035460  61.5152817  52.7630768
   9.6689186  60.9984131  53.4811172   9.6485767  61.1027298  51.9712524
   3.7529831  65.0550156  11.9193716   3.9527237  65.0061798  10.9845181
   2.8492410  64.7470779  11.9876003  42.1256561  37.0967445  20.0186653
  42.0421906  37.2134705  20.9650478  42.5543251  36.2467117  19.9190655
  51.6051941  45.3911591   2.3593266  51.5478592  44.4357109   2.3512793
  50.7980537  45.6759338   2.7878859  64.6053543  58.0092888   0.9713582
  64.8371277  58.8599243   1.3440951  63.6969261  57.8700409   1.2389450
   8.8370724  69.3746643   5.3508410   8.7452679  70.2917480   5.0924535
   8.4728804  68.8811646   4.6159573  62.7445450  43.6576881  81.5906754
  62.3640404  44.5345230  81.5395737  63.6892319  43.8031807  81.5393753
  61.3052216  65.2606735  59.3829269  61.0124664  64.5671692  58.7916718
  62.1568184  65.5271225  59.0364876  26.6323166  37.5523224   7.6106906
  26.8911896  36.6330147   7.5467086  27.1237431  37.9885330   6.9146633
  82.2483902  21.0177460  38.6478806  82.4030533  21.3682880  39.5250511
  83.0499802  21.2186985  38.1648712  77.9333878  26.9269295  37.3782196
  78.2802048  27.2392464  36.5425110  78.0277710  27.6729317  37.9705086
  48.0028419  36.3107033  63.8015137  48.2120895  37.2428360  63.8613434
  47.8169060  36.1660423  62.8737564  75.9265289   4.7464170  83.4826889
  75.1981277   4.2078795  83.7919617  76.6210251   4.6018491  84.1253433
  48.5508690  50.8815460  75.2177658  47.6629295  50.8799095  75.5752487
  48.7627716  51.8084030  75.1070328  78.5913391  47.4103394  22.7949638
  79.4915314  47.5936089  22.5260868  78.5991440  46.4860802  23.0437832
  62.2828789  30.2254066   8.0264549  62.6559639  31.1050014   8.0843372
  61.7456741  30.2447414   7.2344513   6.8298163  41.2060242  47.0130730
   6.2725158  41.1785393  47.7908211   7.1311131  40.3042526  46.9023285
  37.4897728  54.8818054  46.0213966  38.1024323  55.5403519  46.3488083
  36.9784775  54.6274261  46.7895775  84.5169601  25.8832951  53.3525200
  84.1636200  25.2707291  52.7074280  85.3332138  25.4781761  53.6455154
   1.2928481  11.0281935  50.7172852   0.3481908  10.9174871  50.6095886
   1.6669106  10.2001753  50.4161301  30.7974567  70.0057220  85.8870010
  30.7810192  69.8075027  86.8233109  31.6023426  70.5086670  85.7627487
  72.5941238  15.1101561  12.0561762  72.7896118  14.1732330  12.0423088
  73.4321060  15.5267153  12.2574310  36.0392418  36.0173492  27.4818859
  36.6254349  35.7333946  26.7804718  36.5601349  35.9285355  28.2800198
  20.7095089  48.7550621  73.4107208  21.4661026  48.6687279  73.9906693
  20.5079746  49.6907806  73.4176254  63.2534409  41.5150681  33.5645027
  63.7680626  41.7582932  32.7949333  63.6357155  42.0244980  34.2790489
  17.7170162  62.9632797  16.9513779  18.6686592  62.8787308  16.8925591
  17.5600281  63.9075165  16.9519005  30.8825684   1.1187016  15.9496889
  31.3335648   1.0518887  16.7913361  30.7212982   2.0555944  15.8380842
  17.7589512  60.8373756  87.3033829  18.5636787  61.1395493  86.8822708
  17.2435150  61.6333084  87.4339523  81.3626022  11.8534727  15.2572432
  81.0741272  11.1945658  14.6256924  81.0362930  12.6816406  14.9052639
  45.7532730  12.6878462   6.2213025  45.3559608  13.5199089   5.9643078
  46.0150642  12.8188019   7.1326456  29.5418644  54.8057861  50.3997688
  29.1134834  53.9505882  50.4366646  28.9572334  55.3436813  49.8658142
  51.5490036  33.4780197  53.6243362  52.4358635  33.4791718  53.2641830
  51.0996704  34.1820374  53.1566925  83.3587799  24.2967167  63.1375427
  82.5125351  24.4397144  63.5613937  83.9569244  24.8912334  63.5903130
  15.7015791  54.6626854  53.4058876  15.2560768  55.5092278  53.3723869
  14.9957247  54.0183105  53.3531036  23.3426876  45.0724716   9.5378952
  23.0459137  45.3245544  10.4123154  23.0603409  44.1628914   9.4420996
  82.5337906   2.1640279  68.4906998  82.8885803   1.5407412  67.8567657
  82.1771774   1.6170200  69.1905823  61.2922020  14.4139833   1.6481153
  61.0640144  14.3228941   2.5732450  61.1580658  15.3426065   1.4586476
  44.6982460  64.0614929   3.4366105  45.3557167  63.9233894   4.1184402
  44.6322098  63.2159805   2.9927878  48.9026871  32.0313950  19.7520103
  49.3299332  32.6295815  19.1389294  48.6935806  32.5755806  20.5112000
  53.5760002  47.1004944  17.4952869  53.9883575  46.5072289  16.8674107
  53.4909897  47.9283562  17.0223675  41.1122742  54.3417816  56.0477333
  41.3057213  53.7334213  55.3344955  40.9413948  55.1762543  55.6110573
  66.7706833  45.8117142  55.4455223  66.0155258  46.3886948  55.5598450
  66.8623047  45.7222443  54.4969292  62.7095375   3.0042541  84.6298523
  61.9625206   2.4826605  84.3363571  62.4304695   3.3715112  85.4685898
  19.2553577  54.3132248  24.4118233  20.0779457  53.9221039  24.1175365
  18.6006374  53.9868927  23.7945099  71.0584412   7.6631522   5.3353257
  70.4943771   7.9462433   4.6156564  71.2944183   6.7621603   5.1145148
  72.2546158  37.3242836  64.5648727  71.4439011  37.7556114  64.2948227
  72.9344559  37.7371559  64.0323410  55.5658989  42.1657066  82.5021362
  55.3130341  41.6551285  83.2712936  56.0418625  41.5460548  81.9492111
  37.2168274  14.0416498   5.9434657  37.6131516  14.8958693   6.1151247
  36.2750740  14.1947756   6.0202179  68.7345810   6.2242002  39.6657524
  69.2774353   6.4422436  40.4233818  67.8379211   6.2429061  40.0002327
  63.6421928  65.3535538  12.5656109  62.6922531  65.4707947  12.5758085
  63.7810402  64.4894180  12.9532022  68.1973877  71.5058136  88.1682281
  68.5142212  70.7155075  87.7308807  67.4204178  71.2188873  88.6480560
  20.7294235  29.0666466  26.9487553  21.6380596  29.3582211  26.8739376
  20.5461140  29.0925884  27.8878803   8.7269220  45.8390045  64.0060654
   8.7386141  46.7610054  64.2629929   8.9064484  45.8500557  63.0659180
  63.8620338  12.1391516  72.1182404  63.7497292  11.2428837  71.8015060
  64.4368210  12.5509348  71.4730453  10.0413141  49.4425201  50.1115036
  10.0609484  49.5575371  51.0615654  10.9330683  49.6433182  49.8274498
  48.9001007  47.5844994  24.2165833  49.0011063  47.7596397  25.1521873
  49.5195732  46.8772087  24.0370693  41.1772079  41.5635757  13.2571039
  41.5547867  42.4293861  13.4121599  41.4020462  41.3634567  12.3484612
  66.9129944  67.1989365  60.0901451  66.0730972  67.3642426  60.5184860
  66.9785004  67.8798294  59.4205742  70.9548187  48.3883934  70.9612427
  71.2492065  48.4161606  71.8716278  70.6820831  49.2858124  70.7702332
  78.9535294  37.1911278   3.7323475  78.5682755  38.0664406   3.6917558
  78.8303604  36.9171486   4.6411910  80.3606262  64.4221268  15.7802277
  79.9993439  63.6015015  15.4451370  79.6261902  65.0354462  15.7542353
  57.9510841   2.5175271  44.5410957  57.0016861   2.5880365  44.4416046
  58.2136421   1.8734213  43.8835068  14.7070026  70.0850983  57.0298653
  14.7115993  71.0314331  57.1736336  14.2503586  69.9716949  56.1962929
  64.1947174   7.4965739  19.4210930  64.7348251   8.2455044  19.1688652
  63.3518448   7.6551719  18.9960728  57.9556274  12.3876286  35.4328041
  57.2621231  12.3136091  36.0883980  58.7620354  12.2067089  35.9157181
  50.6422844  51.2841835   1.2090406  50.2504616  52.1554222   1.1486501
  50.9389801  51.0928001   0.3193342  52.0930061  33.3970833  77.0427170
  52.9813843  33.1539116  76.7821732  51.9898682  34.2964211  76.7316132
  66.1918030  35.8435707   6.9452567  65.3934631  35.8042221   7.4718847
  65.9672928  35.3854561   6.1353436  84.6092911  26.9599514  64.0692062
  84.6665268  27.6824379  64.6944809  84.2539673  27.3583794  63.2747040
  11.2680855  51.2939415  89.0345840  11.2946434  51.5067139  88.1017075
  11.6350670  50.4115944  89.0895386  69.8882523  40.9694061  76.9585648
  69.8367233  40.1121216  77.3812256  69.2790298  41.5173874  77.4533386
  69.1468506  51.9850349  13.6035347  68.5720825  51.9388962  14.3675661
  68.6963806  51.4708214  12.9335375  66.1334686  20.8645000  57.5082932
  65.9527969  20.4726067  56.6538849  66.5094528  20.1512947  58.0242462
  34.9785347   8.6639051  16.7454777  35.1719818   7.7266431  16.7641678
  35.5304146   9.0361366  17.4333019  70.7069855  13.6055870  58.3417892
  69.9809799  12.9821081  58.3622513  71.3203125  13.2382278  57.7053070
  63.3156090  45.4927864  25.2498512  63.0017204  46.3824348  25.0878925
  63.3794098  45.0991821  24.3796577  26.6918907  41.6410522  28.5234356
  26.8632622  41.5532379  27.5858040  27.3888931  42.2148056  28.8416004
   1.0672245  60.5521088  12.1809378   0.1996993  60.9448395  12.0840139
   1.1160836  59.9030647  11.4790926  54.9549675   3.7182865  66.6707458
  54.2619209   3.1533508  66.3290329  55.2534599   3.2769349  67.4659424
  57.1697769  42.0465851  10.5825348  57.0732002  42.4936867   9.7417002
  56.5782661  41.2962914  10.5241766   9.7532120  27.2361450  67.3919296
   9.6791334  27.1803989  68.3446350   9.0113916  26.7279053  67.0638657
  54.3429871   4.1956105  78.6880493  53.9360847   4.2968550  79.5485229
  53.7358322   4.6233087  78.0841751  57.3452606  67.2304001  27.2235928
  57.1157608  67.7627792  26.4619293  58.2931404  67.3319092  27.3099365
  52.7951469  69.0418243  12.0214672  52.9812546  68.8091278  11.1118250
  53.6561394  69.1962280  12.4101572  75.2519760  29.4502983  68.5405502
  75.8551941  29.9152260  69.1203842  74.9341736  30.1219997  67.9371872
  79.2808838  13.3451195   1.9139612  79.1957245  14.2856636   1.7578968
  79.0783768  12.9428778   1.0693181  83.6454315  58.8637772  55.5876083
  83.7508163  58.7162132  54.6477394  83.3629303  59.7757301  55.6566734
  61.7511253  39.7422104  22.1252537  62.1725502  40.3868332  21.5568409
  62.2383308  38.9327011  21.9717655  73.1192780  52.9070663  69.1720047
  73.9008560  53.1133842  68.6593628  72.6685715  52.2344818  68.6613846
  20.2516956  40.8265266  21.5509529  20.6805458  40.2604675  22.1927471
  20.9634304  41.3445702  21.1750622  62.6912918   8.9539938  72.9584351
  62.4972687   9.0732574  72.0287247  63.0114746   8.0542307  73.0227814
  55.8542519  70.5624008  44.2668686  56.6145401  69.9877167  44.3559227
  55.8070717  71.0282898  45.1017036  18.3356113   3.0918291   4.9355607
  17.3897305   3.0992732   5.0821443  18.6438103   2.3135569   5.3998203
  28.3907242  15.3698874  14.1257000  29.1117554  15.9024477  14.4614449
  27.8648758  15.9785032  13.6067553  80.6136627  42.6396599  19.0469894
  81.1292496  42.5829964  19.8514729  80.5534744  41.7360687  18.7369404
  11.3231831  65.8556061  24.1513767  11.3976641  64.9482651  23.8557091
  11.2737684  66.3673325  23.3439579  25.0376167  41.1672668  24.2039204
  25.5828857  41.4596519  23.4735603  24.4691257  40.4968414  23.8250046
   7.6745420  56.6533508  28.8043385   8.5428753  56.3555374  29.0755157
   7.8419409  57.2386360  28.0656586  58.3073883  63.8657875  41.0673370
  57.7135849  63.2168503  41.4448395  58.1961975  64.6409912  41.6177216
  46.0604858  51.9438477  70.9063416  45.6031265  52.5758629  71.4609680
  46.8043480  52.4307251  70.5515823  14.8599892   7.3055415  62.0198021
  14.5502634   8.1047106  62.4459839  14.4409008   6.5963097  62.5072327
  39.3968849  64.2666321  19.4118557  40.3401947  64.3062134  19.5694485
  39.0430069  63.8279190  20.1855068  44.5391884  33.6282310  75.2116776
  44.3754272  32.6983643  75.0543213  43.7172775  34.0592041  74.9772491
  60.6657753  71.6347885   9.7035179  60.3536224  70.7299347   9.7090492
  60.2957420  72.0109253   8.9048748  68.8569641  66.2697220  78.3332291
  68.7222519  65.6227722  79.0257187  69.6097107  66.7824860  78.6276398
  57.6576195  58.8618736  72.5678635  58.5305061  58.7289009  72.9374847
  57.5504608  59.8127251  72.5427322  38.8373795  43.5917511  88.9340668
  38.6052742  44.2972107  88.3301697  38.5904427  42.7903862  88.4724731
  78.7969360  33.1104736   3.7143834  79.3928223  33.4668007   3.0554583
  79.2720871  32.3701096   4.0916424  71.3474350  28.0497704  32.8092079
  71.6035843  27.2443142  33.2584953  70.6028824  28.3786049  33.3129349
   6.8895302  61.8359718  80.3250885   7.7544284  62.1045532  80.0151749
   6.9484458  60.8838615  80.4041290  50.8794708  49.7562752   7.1276073
  50.5914154  49.1615982   6.4350634  51.2248802  50.5175171   6.6613126
  67.1268921  48.2740173  29.4825077  67.4744568  48.3100967  28.5913696
  67.5816650  47.5353661  29.8872395  80.0553665  39.7153015  27.1044788
  79.5938187  39.1126404  26.5213757  79.5865173  40.5446320  27.0116119
  69.3720398  20.4901657  81.2305450  69.6454086  19.6614571  81.6239166
  68.4280472  20.3951988  81.1036911  59.6229172  61.9374886  36.5231018
  59.9746475  61.4084511  37.2390862  59.2856255  62.7248383  36.9503632
  79.5828629  33.0408707  84.1159973  79.5561066  32.0927658  84.2449112
  79.2946625  33.4046402  84.9531631  62.0576591   3.7783868  44.0908203
  61.8750801   4.1076713  44.9708595  61.8553581   4.5142164  43.5130119
   7.7608309  42.8692131  87.5730515   7.5085688  42.6684570  88.4743195
   8.1330519  42.0522919  87.2408905  59.5517006  62.1148567  86.2169876
  59.9404831  61.7623291  87.0174942  58.7412949  61.6178627  86.1053238
  74.6462479  60.8040962  82.1474380  75.2147903  60.8753929  82.9141922
  74.2600632  59.9309387  82.2159805  17.0923748  25.8310642  14.6401138
  17.9933414  25.7049923  14.3424625  17.1592083  25.8751869  15.5939579
  49.4649849  14.0354996  19.4569607  48.6253929  13.7031708  19.7745667
  49.2368469  14.8091536  18.9415531  15.1829691  66.5965500  24.2162132
  14.6831713  65.8618546  24.5721016  16.0312538  66.2189255  23.9837475
  78.7207031  59.1725349  81.9606094  79.0196838  59.8135185  82.6055756
  77.8749237  58.8734627  82.2944336  72.3349075  11.5010033  30.1024380
  71.3856125  11.5404873  30.2186413  72.4919434  11.9362297  29.2644958
  51.6324272   3.3060386  46.6941261  51.6800079   2.8359141  47.5265617
  50.7190628   3.5847332  46.6283188  48.5185127  20.0100269  45.3068123
  49.3643417  19.5748386  45.1999855  48.7291298  20.8422661  45.7301903
  65.9468689  24.2546787  88.1073685  66.6866302  24.8397179  88.2707977
  66.3454971  23.4539909  87.7664490  39.5538902  33.7796555  69.0018997
  39.2580032  34.6074371  69.3806534  38.9655266  33.6310959  68.2616348
  53.4734573  53.3045082  37.9535637  52.8997231  54.0665779  37.8741226
  53.7506180  53.1188087  37.0563850  37.3393936  61.4638367  68.3553314
  36.4462357  61.3740959  68.6876602  37.2359161  61.5340729  67.4063339
   8.1317329  62.7866020  39.0636139   8.2216101  62.5657806  38.1365814
   9.0305271  62.9111366  39.3683968  58.2684555  70.3038712  14.9499140
  58.5268211  69.9566727  14.0961390  59.0908203  70.3906403  15.4320154
  66.6635742  41.9778709  37.3384857  66.1282578  41.1864281  37.2811394
  66.2703094  42.4819183  38.0508881  75.3047638  12.3740511  26.9040623
  75.7874832  13.1899176  26.7714920  74.4626923  12.5212936  26.4734020
  70.3090363  18.8824596  17.0297699  70.0225296  18.3119450  16.3165684
  70.4814148  18.2864990  17.7587051   4.6285305  62.0830002   0.5254583
   3.9505041  61.4180107   0.6450398   5.1061711  62.0899162   1.3549422
  70.6787949  36.0839043  44.1721764  70.0701065  36.5898285  43.6338730
  71.3677597  35.8137207  43.5650902  86.7179031  49.9684219   3.5511458
  86.8817749  49.8793716   2.6122913  86.3913422  49.1096878   3.8197887
  79.1917572  32.0296364   8.8584223  79.8099670  32.2239113   9.5629110
  78.8743973  32.8870773   8.5750332  38.4202805  39.1542587  30.7439861
  37.5891914  38.6815987  30.7900124  38.4010468  39.7463303  31.4958572
  12.3559198  52.4969406  68.5004120  12.8880844  52.1802063  69.2302856
  12.9656534  52.5491524  67.7643890  53.6435356  21.4978561  58.2545586
  54.1227989  21.7903824  57.4793358  52.9586639  22.1556225  58.3750916
   8.0290136  64.8712692  42.0414696   8.3811874  65.3557968  42.7880859
   8.6987257  64.2167206  41.8432808  47.7286491  56.9485550  72.6342850
  48.3639030  57.5252419  73.0586853  47.9295959  56.0776062  72.9767685
  67.1860123  26.8466816  54.3080597  67.4762344  27.7436180  54.4738998
  67.7361526  26.3079300  54.8766708  18.8548164  54.6804619  15.4629116
  18.3752594  55.1568794  14.7852087  18.1900520  54.1434059  15.8940620
  28.5428028  48.3287315  17.1894417  28.3475552  48.1457901  18.1084862
  28.4228020  49.2744102  17.1027355  46.3265762  38.9950790  50.5113411
  47.1087608  39.0075684  51.0629425  45.8437920  38.2197990  50.7978668
  55.4320984  49.1922112  57.0303726  56.1119881  49.0105171  57.6791954
  55.8867760  49.1510925  56.1890602  31.4986038  13.2058868  78.3030624
  32.2882195  12.9259844  77.8400421  30.9003334  12.4625397  78.2273026
  33.4753075  43.7804794  40.7931976  33.2198219  44.1000137  41.6585617
  34.4137955  43.6080666  40.8690033  63.4529610  50.4922523  86.2758636
  62.6106453  50.8860817  86.0486298  63.3288155  50.1569061  87.1637650
  41.8304787  62.0873528   6.9123325  42.2561188  61.6517105   6.1739058
  41.7198296  61.3971329   7.5662308  41.5070267  12.8915548  82.1464996
  42.3632927  12.7572250  82.5527039  41.2002144  12.0093660  81.9371185
   7.9876032  23.5123940  73.3552551   8.7627430  23.3265915  73.8852234
   7.3952079  23.9720402  73.9502563  41.8375168  32.9088478   8.6882343
  42.1720963  33.2286301   7.8503623  40.9277077  33.2053795   8.7117252
  45.4536476  31.8411007  87.4774704  46.2620468  31.7367096  86.9756470
  45.2555122  30.9612579  87.7981720  15.8817434  53.2914810  13.4011450
  15.9113150  53.0497169  14.3268385  16.0172882  52.4671555  12.9338636
  54.3525352  50.4468193  46.2856827  53.7946014  50.5012817  45.5098114
  55.0387039  49.8247070  46.0440750  86.4886475  33.6423950  38.1989174
  86.3436508  34.3050308  37.5235481  87.0118332  32.9685097  37.7648773
  22.1966591  32.7141647  71.0824814  23.1405716  32.5585098  71.0503311
  21.8181686  31.9967995  70.5741882  67.5986938   6.7521663  31.4539986
  68.2115021   7.4682231  31.6212044  66.9751740   7.1128087  30.8236046
  13.6649704  68.9910889  79.1762543  13.1303310  68.6014862  79.8680649
  14.2502708  69.5929108  79.6361160  72.3164978  41.8961525  77.1513367
  72.7780838  41.1076927  77.4368210  71.3968506  41.6338120  77.1106796
  84.8568268  59.6996803  81.9815979  85.2754364  59.8887253  81.1417999
  84.2610168  60.4353371  82.1232071  24.4208851  61.0907097  27.1669598
  25.2794914  61.4868698  27.0183601  24.3774815  60.3702431  26.5382481
  65.6726303  25.9434395   5.0573397  65.2610397  25.3316669   4.4469647
  65.3742905  26.8061790   4.7694082  66.5235062  49.2687225   3.3135812
  66.1370392  49.0867119   2.4569886  67.4323273  48.9793587   3.2326808
  46.4536705  30.5034142  39.6736450  46.2354889  29.9647980  40.4342499
  46.6236305  31.3726921  40.0365486   0.6055277  38.5718765   1.5249451
  -0.0122003  37.9047928   1.2255388   0.3216974  38.7787285   2.4153860
  55.2633820   8.3191023  47.0372505  54.6017838   7.6398354  46.9064064
  55.1633034   8.5776119  47.9534302   2.0722108  31.8491459  43.3595848
   2.4735970  31.5343304  44.1695328   2.2418768  31.1550465  42.7226601
  40.2342873  67.0622253  74.3683472  40.7151566  67.7192917  73.8650970
  39.7931328  67.5621796  75.0551224  72.1751480  62.8300514  18.3786869
  72.8095779  62.7734985  19.0931969  71.3226929  62.8201180  18.8139572
  40.1482773  28.8803139  64.0641708  40.6144142  29.6798038  63.8197098
  40.8304214  28.2981682  64.3988571  52.9572411  17.0724831  59.6256485
  53.5833778  17.7932339  59.5570602  52.1063538  17.5019722  59.7137375
  63.0505295  39.0025253  29.1896763  63.3952446  39.8954163  29.2016792
  63.7832756  38.4669609  28.8855667  24.1772652  57.2409935  56.4847488
  24.4149475  58.1627693  56.3844032  23.9183006  57.1589699  57.4025955
  22.4192753  67.5722275  44.6004906  22.9310665  66.9082184  44.1385384
  22.9275112  68.3774109  44.5024796  48.9601364  32.0200348  74.9703598
  49.6659660  32.3371620  74.4069138  48.8441696  31.1043930  74.7166290
  63.4642639  55.4246254   6.8816242  63.5298805  55.2925453   7.8273940
  62.5353699  55.3010368   6.6864028  27.3681393  69.1832581  41.2908401
  26.7167225  69.1579208  41.9917297  28.1046448  69.6662292  41.6657143
  32.0018349  67.7238617  45.7654533  32.5252991  68.2072754  45.1262894
  32.6127281  67.5270462  46.4755974  13.7563725  69.1767197   4.1519041
  13.4390974  69.6646957   4.9118071  13.8517752  68.2779770   4.4671669
  42.3712692  47.8405037  41.1354332  41.9506035  47.9769363  40.2865181
  43.3019981  47.9887581  40.9681129  85.1068420   3.6024072  28.1298809
  85.1147537   3.6112757  29.0870075  84.4784164   4.2831397  27.8892365
  29.5942039  67.0314026  43.1364479  29.6017189  67.9576874  42.8952522
  30.3803120  66.6707382  42.7263451  83.5765915  55.5941315  47.0794563
  82.9747238  56.1418457  46.5754814  83.1710739  54.7270813  47.0763550
  20.4870739   2.3344085  45.5592842  20.7958622   1.4487848  45.3680954
  21.1906757   2.9052496  45.2505455  25.5672970  26.6259537  15.2978554
  24.9665241  25.9347248  15.0194550  26.2043552  26.6904964  14.5863609
  28.5000515  50.0667610  10.4550791  28.6364861  50.3497162  11.3592663
  29.1198807  50.5880394   9.9448700  58.2697678  48.9423447  40.3067741
  57.7899971  48.6417313  41.0785751  59.0885048  49.2945480  40.6558571
  63.8031273  39.4913368  81.6647873  63.3685074  38.6941833  81.3616638
  63.0868683  40.0973625  81.8543625  26.2218380   6.8465424  19.7581615
  25.8602791   7.7119813  19.9492702  25.8281593   6.2721429  20.4149075
  14.8809462  59.3348122  26.2116261  15.1709595  60.2324753  26.0493622
  13.9717178  59.4247551  26.4970169  40.1129913  42.7888298  46.8784142
  40.1766434  41.8863716  46.5657692  40.8927536  42.9101906  47.4201469
   2.4707398  18.0364952  17.8825436   2.4754488  18.2080193  16.9408493
   3.3937619  18.0602036  18.1349335  20.8086109  59.3359184  87.2031250
  21.6861820  59.2481461  87.5751419  20.8305206  60.1686630  86.7316513
  81.5067062  11.4345608  19.8654690  80.7764130  11.8623018  19.4183178
  81.0919800  10.7904224  20.4393349  16.3606853  14.7939234   7.2486763
  15.5102148  15.1075554   7.5561967  16.2778187  13.8403196   7.2465444
  69.2215881  35.4577446  15.8131905  69.6323395  34.6009216  15.9288483
  69.9314194  36.0249519  15.5121059  10.7724600  48.0980110   5.8985286
  11.3204708  48.8684502   5.7490630  10.0932417  48.1531601   5.2263284
  74.6615219  19.6458912  65.7024231  73.8627472  19.1359711  65.5675888
  75.0214767  19.3141270  66.5249786  24.3508587  68.2581635  -0.2491874
  24.6064949  67.8244019   0.5648986  24.6254005  69.1676788  -0.1324100
   3.0929646  14.1744747   5.3521376   3.6458483  14.3255434   4.5855026
   2.3583510  13.6586342   5.0197463  52.9698410  19.5215759  15.4187832
  52.6653214  19.0034199  16.1637764  53.5753212  18.9425411  14.9558105
  39.7686577  65.3152313  85.6452332  39.4789772  65.7286224  86.4585114
  39.5390434  64.3919983  85.7508392  73.2493057   6.2867484  80.7649460
  72.5115280   5.6934414  80.9059906  72.8837433   7.1605573  80.9029770
  45.8689842  17.6135502  80.6036301  45.4076805  17.8488216  81.4086609
  45.8125381  18.3975468  80.0573807  26.3954411  16.7626858   7.1925192
  25.7086830  16.0989475   7.2561436  26.6889210  16.7172070   6.2825565
  58.1396027   8.7639885  71.1091385  58.0830154   8.1886396  70.3462448
  57.2550583   9.1155815  71.2100983  15.9727869  37.2526970   5.7257938
  16.5149040  36.4669380   5.7959466  16.5014286  37.9446716   6.1232119
   7.8562651  67.4966507  64.2315063   7.7954030  66.5753098  64.4838257
   8.0583057  67.9554520  65.0469208   5.1691546  70.7372055  63.4067497
   4.3056664  71.1300507  63.5343781   5.7650795  71.3045807  63.8958168
  32.2327652  10.2259521  10.6271420  31.8833351  10.8829927  11.2291613
  31.9218311  10.5017185   9.7648754  86.6033173   6.0970931  82.1652374
  85.9479523   5.4331284  81.9510345  87.4051208   5.7866898  81.7445374
  28.9550381  36.8877487  85.7079926  28.5346622  36.3263741  86.3594360
  29.1290798  37.7058830  86.1733932  73.9376526  46.4471893  70.1067657
  73.2858963  45.7461815  70.1019897  73.4696884  47.2069626  70.4531555
  58.1520767   5.4264994  78.2935486  57.8408775   4.7214885  78.8613052
  57.3557701   5.7955446  77.9115372  63.4495773  36.3863373  86.7180176
  63.1243095  36.5758820  87.5980835  64.3449249  36.0768318  86.8550949
  49.9086380   7.3067169  71.2044678  49.5797119   8.0918255  71.6422424
  50.2107811   6.7438312  71.9172821  13.0528412  58.0436859  63.3833885
  12.7076559  57.8587646  64.2568207  12.4726963  58.7206306  63.0349541
  68.4826813  43.1843567  61.2422333  69.4226608  43.0044365  61.2594681
  68.2242126  43.0213661  60.3351173  53.3406067  62.7937469  30.0995274
  53.2990608  63.6253471  29.6273537  52.4296112  62.5958557  30.3167000
  69.0766830   0.8477672  71.3583145  69.3656616   1.7079328  71.6630020
  68.8635941   0.9800385  70.4345551  66.2487640  19.3988266  43.7307816
  66.3869019  19.3944645  44.6779518  66.7508774  18.6488094  43.4120483
   7.9907694  15.7990322  82.3560867   8.3469524  15.0950947  81.8140259
   7.3492742  16.2331676  81.7937393  60.9902344   1.2108721  17.9230633
  60.9760170   2.1201828  17.6244278  60.6393967   1.2455254  18.8129749
  32.6339455  67.5282364  17.0775681  32.3687935  68.4466629  17.0283337
  32.0881348  67.1582336  17.7714100  59.3462257  51.5172615  81.0502625
  59.9308586  51.6612854  80.3061523  58.6773758  50.9190521  80.7170715
  67.5008774  43.2518692  80.0246887  66.9899445  44.0579300  79.9509201
  66.9933395  42.7002144  80.6199341  15.0815077  43.9801331  67.2234573
  15.1036673  44.4416466  68.0617599  14.2457504  44.2343102  66.8321304
  80.4712296  17.0815067  53.7582130  80.6661530  18.0069904  53.6108551
  79.5172119  17.0259933  53.7033615  73.1126480  51.6101685  18.5403042
  73.2921143  51.1615524  17.7140083  72.6331863  52.3985100  18.2856121
  61.8991394  38.0006828  72.8353271  61.2809067  37.2798195  72.7154312
  61.9036064  38.4550133  71.9928284  48.1220093  35.5943260  12.9004669
  48.7866707  36.2354240  12.6485786  48.2295609  35.4969521  13.8466082
  62.1142082  29.4374409  74.6579056  61.1629143  29.3414745  74.6124802
  62.4020348  29.4051495  73.7455750  42.9263992  45.0895386  54.0019150
  42.0579033  45.3149567  53.6685600  43.3047104  44.5286674  53.3247604
  70.3019943  69.8674698  14.2446823  69.9341202  68.9904404  14.1364059
  69.6434021  70.3425598  14.7514181   6.6624632  18.0422573  10.2562962
   6.4399447  17.8204460  11.1604624   7.5561023  18.3816357  10.3059196
  18.4782009  23.2242374  77.5336990  19.1038208  23.3720188  78.2429199
  18.7076149  22.3617115  77.1877975  52.1635551  21.2534828  18.9591522
  51.5578842  21.9845428  19.0813942  52.1862907  20.8163757  19.8104191
  56.6969414  22.2871265  80.0870819  55.8441429  22.7182369  80.0312958
  56.5062752  21.4264221  80.4599991  35.2811775  41.0154076  79.1098175
  34.9856262  40.3117142  78.5321579  34.5740166  41.6599617  79.0833206
  70.9656296  69.3738022  26.3559036  70.6728287  70.0239563  25.7173214
  70.4531479  68.5911942  26.1531124  73.9788513  47.3095894  18.6983452
  74.0323181  47.4414291  19.6449146  73.7330399  48.1668549  18.3506279
  60.4553719  46.0351410  75.9959106  60.5097160  45.2139549  76.4847260
  60.8540726  45.8364067  75.1486969  25.4228573  68.9743881  62.8470650
  25.6961708  69.6869583  63.4248047  25.1144848  69.4135742  62.0544434
  35.1567268  71.6990891  30.4573059  34.4315720  71.1718063  30.1221066
  35.8832092  71.5128937  29.8625088  19.3364391  53.6261635  57.5641594
  19.0378189  52.7611504  57.8448906  19.3393021  53.5799294  56.6080818
   5.0542688  41.4976311  34.1578789   5.3385806  40.8871651  34.8381233
   5.3061485  42.3596306  34.4891548  69.4907455  47.1046410   8.9762487
  70.3117752  47.4681358   9.3079309  69.3357620  46.3303452   9.5172453
  81.1980972   3.3111761  76.1435242  81.2391434   4.2672620  76.1646729
  80.2670288   3.1093040  76.2362213  41.5679321  30.1661530   4.6183147
  40.6400604  30.2592506   4.8342233  41.9309998  31.0436478   4.7383943
  53.1479950   4.5079827   1.6958256  53.2263756   4.4861732   2.6495616
  53.6341896   5.2896209   1.4333611  36.0484428  44.3552208  86.7317123
  36.9682465  44.5317917  86.5341873  35.5916443  45.1590118  86.4837570
  85.6916122  67.7734070  59.1727257  86.6385727  67.6576462  59.2507973
  85.5087433  68.5813904  59.6522636  81.9885101  21.9316597  19.2156696
  81.3473358  21.3045940  19.5502033  82.4885712  22.1976185  19.9873123
  69.1323242  15.7099447  55.0410843  69.7002869  16.0897083  55.7114830
  69.0264053  14.7963572  55.3063622  79.1699982  49.1791115  73.0130386
  78.6241913  49.9177170  72.7432556  79.9764786  49.5821342  73.3345947
  49.1008530  25.4934120  31.7767620  48.9586601  26.4235935  31.9521961
  48.9055138  25.0603580  32.6077461  53.0725555  61.2169914  53.5172653
  52.9349518  61.6827164  54.3421288  53.9627419  60.8713379  53.5829849
  43.1787300  30.1809750  16.0130100  44.0586357  29.9769440  16.3298225
  43.3048744  30.9149971  15.4117365  39.8819275  37.1533203   9.9958897
  39.1616478  37.3390007  10.5983458  40.0058403  37.9697685   9.5118551
  86.1053696  41.2277985  42.9851151  86.4970856  41.8072739  43.6385689
  85.7689590  40.4884872  43.4915504  17.1007328  43.2707100  78.2781754
  16.7250805  42.5138245  77.8284683  17.2226753  43.9229736  77.5883102
  79.7877579   5.0228944  49.7347031  79.7648239   5.8525143  49.2577972
  80.6543655   5.0039101  50.1407356  72.4248734   7.5856438  85.1790619
  72.5005493   6.6444592  85.0219650  73.3094711   7.9236460  85.0395126
  51.1622887   6.9656754  29.5989761  50.5374298   6.7986727  30.3045921
  50.9342194   7.8383751  29.2786465  72.0981522  15.3413124   4.1098418
  71.3991776  15.9950743   4.0937595  71.6539612  14.5209913   4.3243074
  13.5261183  38.6225967  52.2956047  13.8237343  39.5148048  52.4734192
  12.5721331  38.6913605  52.2579842  39.0629730  59.7985764  82.4328995
  38.9421082  60.3581467  83.2000427  39.7162170  59.1546974  82.7066269
  19.3528023  64.5279312  85.1617432  19.7577381  64.6360779  84.3011780
  18.5592499  65.0617065  85.1218185  53.0176620  55.7877083   3.0934312
  53.6200447  56.5241737   2.9886012  53.3286781  55.3334808   3.8764887
  65.9307098  61.8369560  47.7777939  66.3990173  61.7531967  46.9471893
  65.3255081  61.0954208  47.7873611  52.9426727  32.8387985  36.9500313
  53.0636520  32.2069435  37.6588020  53.7631340  33.3312149  36.9255066
  13.5012827  21.9520969  79.7025528  14.3403702  22.3637981  79.9091110
  13.4586277  21.9619179  78.7463531  15.9090309  38.6481972  60.8217621
  16.4039345  37.8542976  60.6192207  16.4662666  39.1280136  61.4345398
  55.8283539  71.7817230  14.9426622  55.1033936  71.2751236  14.5765848
  56.5399055  71.1483612  15.0363035  64.6464920  23.9948959  11.2500334
  63.9743004  24.6603584  11.1032257  65.3367233  24.2091389  10.6224127
  77.0937576  23.5161247  11.7275372  76.4214783  23.4932289  12.4085274
  77.4629288  24.3974037  11.7849550  82.8500366  18.9252338  66.3098373
  83.4312897  19.2561741  65.6251144  82.1265945  19.5515862  66.3332672
  53.8218842  33.0927925  41.8084946  54.4528160  33.0995178  42.5282974
  53.9610901  33.9269791  41.3601799  17.3022251  23.2758942  75.0539093
  17.8951664  23.8569317  74.5774078  17.6976738  23.1890774  75.9212646
  53.7224884  35.0652199  39.8706245  52.8058052  34.9245796  39.6336823
  54.2134590  34.4999275  39.2742844  29.7972908  41.5521202  87.2652969
  28.8840103  41.7589531  87.4637146  30.3016109  42.2054749  87.7500916
  35.0500221   0.4972541  73.6485672  34.9543381  -0.3860934  73.2925110
  34.1748924   0.7250953  73.9623718  61.0711975   4.6257319  78.8269119
  60.3806000   4.0690250  78.4672089  60.9362144   5.4757094  78.4079208
  33.2172050  68.0709152   2.2565770  33.1181908  67.5867538   1.4368130
  32.6278534  68.8196182   2.1652360  17.5394516  45.9276657  87.3263092
  17.1481304  46.4688263  88.0120544  18.3947334  46.3262520  87.1655121
   6.8307405  19.6110744  20.1410751   7.4449797  20.2406673  20.5186386
   6.9893546  18.8012829  20.6261635  46.9869270  61.4197845  64.5377502
  46.7518311  61.0925751  63.6694832  47.2808571  62.3176422  64.3838501
  41.0750656  46.9950790   8.0486393  40.5074883  47.4482307   7.4251480
  41.9034004  47.4731865   8.0097818  20.9974480  16.8765106  84.1077423
  21.6828442  16.2558479  84.3552094  21.4502182  17.7166653  84.0344543
  18.7975807  68.6339951  62.4875298  18.9560490  69.0807114  61.6559258
  18.1944828  69.2097931  62.9575920  37.8082542  62.5987625  73.8706207
  37.2198143  61.8869705  73.6189880  38.0498543  62.4012222  74.7755127
  64.1805878  36.0100708   9.0165176  63.2948799  35.6727829   9.1506290
  64.6908875  35.6351700   9.7343464  17.7173061   6.4420390  61.8237495
  16.9806557   6.6399417  61.2454681  17.3815269   6.6077962  62.7046623
  12.1836319  15.7160711  85.5938950  12.1866207  16.5607243  85.1435776
  11.5232058  15.8127623  86.2799835  56.0459976  57.5005150  77.9337463
  56.1518288  56.8110428  77.2782593  55.1148376  57.7200203  77.9022675
  73.6335831   2.5663664  48.3754959  72.8752213   2.9459717  47.9316254
  73.7699356   1.7251481  47.9396172  22.9436512  61.8822327  65.7003098
  22.9721813  61.6059265  64.7843018  23.6186256  62.5575638  65.7679062
  72.2902679  18.1335945  65.5197830  71.4310837  18.0292568  65.9286118
  72.8834305  17.6296806  66.0769730   3.4714084  27.0970936  68.1281815
   2.8755593  27.7543793  68.4875793   3.9301455  26.7466545  68.8917160
  42.6779671   3.9310827  25.4975414  43.4128227   4.1501336  26.0704613
  42.5882607   2.9812965  25.5755825  42.8251648  12.1802368  18.4957752
  42.0505600  12.3730297  19.0240250  42.7730980  12.7926035  17.7619305
  66.9435806  23.1001930  37.6971283  67.4722977  23.5037251  37.0087547
  66.8648911  23.7788353  38.3675613  52.0869713  62.1766357  69.5161819
  51.4524078  62.2652092  68.8050461  52.2577591  61.2362785  69.5690460
  23.8884296  63.9448471   4.4586077  23.3355331  64.6849518   4.7091660
  23.4753971  63.1866341   4.8718238  85.7630081  13.7010517   1.8840333
  85.8728790  14.5992107   2.1962373  85.7253036  13.7816925   0.9309817
  39.8180923  48.0215073  73.5235291  39.1282845  48.5227776  73.0886383
  40.2276573  48.6466331  74.1216125  37.5725708  58.4598351  64.6841888
  37.2906456  58.2521133  65.5750351  38.4596863  58.1052246  64.6249008
   4.5536952  63.8468437  78.0867157   4.3588037  63.4867477  78.9519196
   4.8444281  64.7422333  78.2598877  52.1996307  60.1798973  39.2523346
  52.9284019  60.7145615  38.9372787  52.5258331  59.7821426  40.0595627
   2.9601784  46.7881050  40.0247688   3.3495028  47.5980110  40.3544769
   3.4297464  46.6111450  39.2096481  15.0811310  69.1594620  34.9685898
  14.4758768  69.5824966  34.3595428  15.8066998  69.7779694  35.0535774
   3.0696294  29.2205830  27.5170383   3.6220357  28.8993778  26.8043652
   3.6642430  29.7248745  28.0723381  53.8490639  65.7052231  54.6501427
  53.7130127  64.9919815  54.0264435  53.0773239  66.2623596  54.5489426
  18.6622601  48.9373512  41.5887680  19.4315281  49.4926567  41.4619179
  18.5370960  48.5049248  40.7440338  22.2491474  21.8993149  84.0427246
  22.3764744  21.0263500  84.4141464  23.1313553  22.1949768  83.8179474
  57.4932365  18.3027058  30.9607639  56.7779808  18.6984425  30.4627323
  57.1355362  17.4723129  31.2749786   9.6739483  36.1668777  19.5683479
   9.4173765  36.4965858  18.7071304  10.6269999  36.0911064  19.5216141
  74.5475311  22.3671532  64.9893112  73.7214661  22.5601883  64.5459290
  74.5329437  21.4191437  65.1208191  81.1704636   4.9257984  66.2132339
  80.7153168   5.7598896  66.0976181  80.7631454   4.3402004  65.5749512
  30.3256931  70.9780960  40.4388657  31.0286045  71.1796494  39.8211861
  29.6068974  71.5548859  40.1802597  30.9056511  47.2250137  86.7200089
  31.2333221  46.6969070  85.9920120  31.6643963  47.3417320  87.2917709
   4.1338739  11.6874685  18.0275211   4.7627397  11.4191113  18.6974049
   4.0957832  12.6409273  18.1029987   3.3720727   5.1325278   2.1027064
   2.8595352   5.4977555   1.3814950   2.7382264   5.0113144   2.8096561
   7.3779197  21.4162064  23.3334312   7.7324295  20.6165791  23.7222137
   8.0239162  22.0909233  23.5424156  39.0408249  21.1258907  72.0739899
  38.1666298  20.8620377  72.3610306  38.9680519  22.0677147  71.9193878
  56.3100586  37.5199242  10.8460503  55.7789688  38.2285538  10.4827061
  56.2057419  37.6041756  11.7938118  62.8100014  48.5320091  26.9513988
  62.3765869  48.0428162  26.2520638  63.3514023  49.1752014  26.4937706
  29.1963539  62.1995811  46.6270218  29.8874836  62.5287399  47.2016754
  28.4150066  62.6866035  46.8888206  39.5064049  44.6003304  55.1107330
  39.6884842  43.6687660  55.2342873  39.8463173  44.7970963  54.2378235
  50.9076881  42.7890472   2.2259088  50.7166519  42.4343529   3.0941997
  51.6130562  42.2354507   1.8909209  82.9337387  10.6261663  33.6795845
  83.3934250  11.0438118  34.4079361  82.1867905  11.1994724  33.5074997
   0.3568043  45.9526138   0.9899746   0.0355848  46.4316978   0.2260845
   1.2310582  46.3096161   1.1463698  40.0771484  52.3525391  21.6870613
  39.8541336  51.9713211  20.8378448  40.8245926  52.9221268  21.5050488
  45.2891273  56.3637581  16.9322891  45.0274658  57.2618484  17.1352673
  45.2181396  56.3031044  15.9796534  53.1675453  10.8120031  40.7381134
  53.7222328  11.5397282  40.4570999  52.7098351  10.5388298  39.9430618
  71.6486816  66.9940567  20.8145771  71.9406128  67.8744049  20.5779476
  72.2488785  66.4100037  20.3510265  22.4672775  65.5743027  72.1106567
  22.3987331  65.6936035  71.1633987  22.4701824  64.6249542  72.2329178
  52.5637016  56.5967712  43.3849449  52.7727203  56.1565475  42.5610886
  53.0021095  56.0720787  44.0548172  44.6225967  13.2893648  10.8484793
  44.0971680  14.0879030  10.7985506  44.6240616  13.0613546  11.7781248
  49.6543884  39.7440071   6.5612741  50.4468079  39.7129288   7.0973158
  49.0291710  39.1874352   7.0255580  85.5095444  56.7330360   8.3535700
  84.6501312  56.8732834   8.7510166  85.7320404  55.8292046   8.5767765
  25.5026531  66.1130676  58.1717224  24.9909782  66.3050919  57.3858833
  24.9387245  66.3828888  58.8965759  60.2178192  37.0240479  65.2808304
  60.4953651  37.0445938  66.1966782  60.4927216  37.8704033  64.9282074
  23.4540634  27.3185005  12.7321043  22.7606888  27.9436874  12.9433069
  24.2615986  27.8297672  12.7843132  21.3372993  51.7798004  35.4403381
  21.1538677  50.8982162  35.7649803  20.6167946  52.3132858  35.7757454
   2.4402695  45.6242905  32.8991928   2.4066725  44.7274055  33.2319145
   1.5928833  45.7536316  32.4732399  46.5250359  32.3280487  83.9071274
  45.6178017  32.0734787  84.0755234  47.0235672  31.9204388  84.6153336
  74.6242828  32.3435555  25.2406025  74.8004684  31.4081726  25.3418503
  74.6157227  32.6838760  26.1352196   5.6922083  30.6144505  17.7487793
   5.4357653  30.8131866  18.6493206   5.2249618  31.2601147  17.2186546
  75.1234436  62.9032860  27.4299507  75.9416733  63.2268295  27.0530586
  74.5112152  62.8861084  26.6943493   9.4763985  34.9933357  44.6957588
   9.9897738  34.2160950  44.9161453   8.7122345  34.9464798  45.2702942
  46.4781685  36.5439987  23.6349754  46.1325912  36.5564117  22.7424202
  45.8774185  35.9752731  24.1165199  37.3375320  17.4787674   3.8324680
  36.8110580  16.8021488   3.4067435  38.1342888  17.5298691   3.3044531
  65.8570938  69.7302856  69.7147293  66.0325928  68.9077148  69.2577744
  65.9868393  69.5226212  70.6400833   2.4841206  26.4136333  53.9835358
   2.8635862  25.8848972  53.2816277   3.1714149  26.4580307  54.6482811
  68.8361588   4.6972332  86.8841400  68.3706055   4.8534794  86.0625076
  68.2238998   4.1854391  87.4127655  60.4590988  15.8991079  56.0539474
  61.2061577  15.8227463  55.4603920  59.6938858  15.8833685  55.4791145
  62.5560074  23.5773926   5.9756708  62.4023552  23.7972927   5.0568309
  62.4945641  22.6226807   6.0069723  55.7534103  46.2568817   1.4284699
  55.8430634  45.3050804   1.3808469  54.9659424  46.4490509   0.9193584
  72.9446106   9.0621824  59.7118416  73.3663864   8.4875336  59.0729980
  73.6370468   9.2730436  60.3381882  33.5508766  66.6027298  56.1800613
  33.9102211  66.2335434  56.9867859  33.0036316  65.9047012  55.8201942
   5.3610158  43.2956238  66.4369659   4.4461861  43.2695160  66.1565399
   5.5385232  42.4114189  66.7577438  51.3337669  37.2457657  51.1230164
  51.9242630  36.9921303  51.8323936  51.9120522  37.5844078  50.4395409
  21.0155640   2.6252117  53.7536430  20.2848682   2.0581713  53.5070992
  21.0520611   2.5673766  54.7083969  75.4665985  65.5484314   6.7300081
  76.3727493  65.8333893   6.8480062  75.5144730  64.8709488   6.0555015
  21.9856396  54.3856087  26.2020817  22.8584137  54.6945763  26.4450550
  21.9289722  54.5446129  25.2598820   8.1452036  52.5752335  29.6728001
   7.3924494  52.8738632  29.1624908   7.8738275  51.7282906  30.0267410
  36.2219391  53.9444122  39.1322670  35.4111290  54.1094284  38.6510315
  36.8262558  53.6026535  38.4733009  64.5601501  32.0153160  10.4225092
  64.5241852  32.0445824  11.3785858  65.4829025  31.8583469  10.2222290
  61.2445641  28.3336163  21.9328442  61.0401726  29.2515850  21.7545414
  60.7334671  28.1217918  22.7139606  86.2032166  12.4139528  74.6055374
  86.9223480  11.8063936  74.7785873  86.6181335  13.2762794  74.5839767
  85.2927780  49.8771477  32.8439941  85.4661713  50.7760582  33.1235046
  86.0528946  49.6407814  32.3124046  73.5558090  24.0706310  78.8249512
  74.3564987  24.3663940  78.3917770  73.7702103  24.0812550  79.7577667
  76.9473877   4.5309606  34.3628502  77.5111923   4.9707875  34.9991722
  76.1708908   4.2807388  34.8635216  35.0159302  42.1001625  74.3133163
  34.7989922  42.3820190  73.4246521  35.8411331  42.5433578  74.5104218
  51.8916550   4.7754745  19.0839024  51.4756737   5.2827272  19.7809563
  51.1844177   4.5941472  18.4648972  61.4723701  32.9862976  28.4062424
  61.7362480  33.0016937  29.3262234  60.6291046  33.4389648  28.3913383
  77.4496231  15.7484598   7.5799370  77.9752197  16.1261959   8.2851295
  76.6447678  16.2665634   7.5771894  84.6400070  41.4557076   5.9691839
  84.9513321  42.1587601   5.3990722  84.2796478  41.9078064   6.7320576
  16.3425426  49.6846085  79.2751923  16.8050747  49.3973007  80.0624390
  16.9845486  49.5886154  78.5717392   4.5415926  43.5214882   0.0089352
   4.4238348  43.3794212   0.9481804   5.1896100  44.2236977  -0.0476950
   5.5906577  18.1599998  69.3858185   6.2889886  17.7205067  68.9006271
   5.8337288  19.0856819  69.3696899   3.5388741  40.4393044   0.6680338
   3.6662378  40.8029099  -0.2082080   3.5719383  41.1988182   1.2496505
  11.8910027  32.3031654  80.4166946  12.4926128  32.5364494  79.7096710
  11.1114082  31.9743462  79.9690933  53.4857941  49.1599464  30.4172859
  53.9536247  49.8842392  30.8329353  53.4310150  49.4083519  29.4945049
  40.8483658  65.8106689  48.1373405  40.6037712  66.7105560  48.3532372
  40.9529076  65.3806839  48.9861107  72.1554260  52.1398811  28.2311993
  72.3078537  53.0768280  28.1081924  72.6135254  51.9274254  29.0443687
  34.2699051  28.8917866  76.2855453  34.1585464  29.4213428  75.4959869
  33.9318504  28.0291710  76.0450287  16.1830921  68.2715302  29.2592678
  17.0115089  67.8181000  29.4153366  15.5206451  67.7009964  29.6490002
   4.5409141  53.9123688  25.5730076   5.4870076  54.0571976  25.5857944
   4.3423023  53.7074814  24.6593304  41.5119324  12.6766500  64.2837296
  41.0215988  12.9929781  65.0425110  42.1335068  12.0454922  64.6463776
  50.6298103  61.4544449  55.4030838  49.9617081  61.4303322  56.0881310
  50.9124794  60.5444717  55.3120689  64.7043762   3.8893557  60.3063774
  64.5881653   4.0154166  61.2480965  64.0570297   4.4693456  59.9054031
  81.1645584   5.6584511   3.3388765  81.2946854   6.0883493   4.1841497
  80.2410126   5.8057389   3.1349149  76.9670944  46.6686325  58.5867615
  77.7071228  47.2677612  58.4885712  76.7819214  46.3688393  57.6967773
  82.4919357  23.7471199  24.4884739  83.2501221  23.1759338  24.3654404
  82.8376846  24.5063457  24.9577980  26.1738129  59.9496040  67.9652786
  26.8240261  60.6304665  67.7924118  25.3321648  60.3750153  67.8013153
  85.9114838   1.9045964  88.1525650  86.5461960   1.2008098  88.2869415
  86.0341415   2.1667595  87.2401733  85.4598618   8.2671814  26.2633171
  85.7875748   8.1555910  27.1557236  86.1572876   7.9203682  25.7069416
  82.5569305   5.6448002  59.0646820  82.1941681   6.4914880  59.3249817
  83.2858505   5.8646841  58.4845428  83.3266830  58.4201279  50.0721016
  82.6492004  58.5086555  49.4017258  83.7150955  59.2925873  50.1367798
  69.3493805  25.7300320  58.6240768  70.0384369  25.1034946  58.8451691
  69.2915344  26.3023167  59.3891792  70.2127533  66.7625122  87.3801346
  69.8031540  66.1961670  86.7261276  70.4367981  66.1733856  88.1005249
  61.3227768  44.3967361  61.7032700  61.5103264  44.2699623  60.7732239
  61.2998009  43.5111656  62.0658531  72.4018021  51.3069611  61.5466156
  73.0866852  50.6383209  61.5556068  72.6527481  51.8973236  60.8361702
  44.0961075  54.4181480  29.3153439  43.3847084  55.0479507  29.1991768
  44.8339424  54.9443817  29.6234169  77.8838501  59.6526871  63.4768944
  77.0829620  59.1560440  63.3090935  78.1861877  59.3388062  64.3291321
  19.5145130  27.9445362  75.5331116  19.6164703  28.8872585  75.4022980
  18.6505165  27.7447910  75.1727676  81.6496964  28.4512100  79.6267624
  81.0673981  28.3302917  78.8767395  81.2268982  27.9702702  80.3382187
  74.2814102  56.2300911  77.5219040  74.3418045  55.5873108  78.2285995
  74.6362381  55.7783127  76.7562561  39.4365807  24.2615585   8.1426849
  40.2116585  24.5056915   7.6368332  38.6998100  24.5762348   7.6188731
  74.8978958  25.5949860  41.9309196  74.1547699  25.1077213  42.2866783
  74.8831558  26.4297676  42.3990593  72.0390167  50.1907272  89.1225357
  72.4736557  51.0357742  89.2374878  72.5649033  49.7387009  88.4627304
  14.0365696  37.4312744  62.7350197  14.7060871  37.7084579  62.1096001
  13.2227793  37.8036690  62.3954620   5.6855283   9.3540421  40.2631226
   6.0269184  10.0788584  39.7393608   4.9035921   9.0657806  39.7922554
   7.1557975  56.8391953  68.1529541   6.2359152  56.8654175  67.8895874
   7.1374173  56.5227432  69.0561447  74.1382523  22.3812027   7.5200219
  74.2519226  22.9956455   6.7949204  73.3340454  21.9071712   7.3084421
  49.2767868   0.1771367  22.8054047  49.5896149  -0.7274964  22.8024330
  49.6389008   0.5584173  22.0055752  35.1084938  64.6052322  52.4691620
  34.4371948  65.2848969  52.4088402  35.9366493  65.0851517  52.4610443
  51.5656662  53.1628494  60.2531471  51.2069321  53.0742340  61.1361465
  50.8132248  53.0364876  59.6751366  61.9378433   2.4894183  64.8029099
  62.3078957   1.8641129  65.4260330  61.0013199   2.4987917  65.0005646
  10.2843962  54.3921509  20.6515732  11.0180330  53.8088150  20.4573307
  10.6401463  55.0247765  21.2756386  61.8804932  38.6797791  40.8151131
  62.8043137  38.4297028  40.8309441  61.7231979  38.9583588  39.9129562
  35.7013969  19.6420403  10.3742008  36.5139732  19.2397118  10.6809311
  35.0879974  18.9116344  10.2937050  62.2711792  58.7883415  71.5195923
  63.1585007  59.1151123  71.3708954  62.2396584  57.9569550  71.0462646
  52.0552597  35.9746056  15.4072971  52.3953438  35.1225319  15.1342745
  52.8307190  36.5317688  15.4741030  62.9479179  28.0286999  32.6713448
  63.2802773  28.1567822  33.5598068  62.5676422  27.1503468  32.6821823
  29.5876961  52.1887665  62.6771431  29.5019302  53.0762711  63.0252914
  28.6901245  51.9211540  62.4797096  32.3706245  71.3088226  77.5046616
  32.1239014  71.7974472  76.7194214  32.0515976  70.4207230  77.3442383
  70.6616592  29.9006824   6.0559435  71.3558044  30.5333118   5.8710756
  70.9607239  29.0898781   5.6443734  30.4232426  59.3118668   8.4210997
  30.9322987  58.7472878   9.0027714  29.5240593  58.9949341   8.5062675
  74.3658371  56.8156013  25.3041553  73.5704575  57.0026131  24.8055267
  74.4346848  55.8609161  25.2960587  80.6797638  17.8472691  74.9496918
  80.3386002  18.7405090  74.9053574  80.2143250  17.4493580  75.6854019
  62.7209358  70.8426361   0.7973993  62.2667274  70.1924133   0.2615419
  63.3428993  70.3328857   1.3165814  40.9706497  58.5787811  49.3862762
  41.1698952  57.6457214  49.3092308  41.5599022  58.8937187  50.0717125
  44.4011879  32.1134224  81.7442551  45.3444519  32.2419205  81.8441467
  44.1356087  31.6578159  82.5430832  41.8871155  35.3497009   3.1028311
  41.4452782  34.5415154   3.3633056  42.1567383  35.1942291   2.1976442
   3.5444770  59.0697823  12.2295818   3.2002156  58.6231384  11.4561329
   3.0648508  59.8975372  12.2614727  17.1319256  46.9920845  14.1940336
  17.5649128  46.7610168  13.3722296  16.3861446  46.3944893  14.2480965
  77.1207581  18.4212494  80.0985489  76.8273926  18.3415375  81.0061951
  77.2571793  17.5185814  79.8107834  37.9577370  54.7257423  68.8406830
  37.8479156  55.4961281  69.3980637  37.1472931  54.6796074  68.3334503
  39.5788689  71.2520523   4.7792025  40.1324120  71.8470917   4.2734871
  38.6901436  71.5828934   4.6490450   6.0560207  27.2541618   2.7463350
   5.9768529  26.5605392   2.0914664   5.2384176  27.2099247   3.2421181
  49.7900200  61.2947922  88.7691193  50.3853455  61.8066635  88.2215729
  50.3490067  60.9315567  89.4560165  79.4755859  37.9039688  38.8234138
  79.9941101  37.3663864  39.4220581  79.6590881  38.8046913  39.0903549
  52.8932152  64.5399551  57.2233849  52.7602158  65.2228012  57.8808556
  53.3501129  64.9821243  56.5078735  52.8342056  54.1811523  76.5554733
  52.7809639  54.7448616  75.7836990  53.7673912  53.9892235  76.6479645
  69.1692734  39.8536110  20.7878799  69.0043869  39.0750237  20.2560425
  70.1208649  39.9561081  20.7738762  56.7980919  43.6042328  71.3687210
  56.9478302  43.3400421  70.4609680  57.5135765  43.1976776  71.8576279
  75.3749008  51.1012573  38.3795319  75.7784958  51.9591026  38.2474403
  75.5751343  50.8798409  39.2889900  50.4723358  50.7289810  13.6864986
  50.1638680  51.4940605  13.2009764  50.3280983  49.9934044  13.0912218
  59.9924660  64.7804565  50.8201752  59.8364792  63.9897270  51.3365593
  60.0402145  65.4838104  51.4676590  56.1106796  57.6899261  23.6926613
  55.6595039  56.9426460  23.2999229  55.6732063  57.8185349  24.5342731
   4.4923067  49.3767090   4.4858561   5.0725136  49.1443214   5.2108307
   4.2983532  50.3040962   4.6221166  71.9796448  31.2201481  20.1552639
  72.2487564  30.5148926  20.7438412  72.6879654  31.2805729  19.5142822
  14.5697756  52.9176140   9.3400145  14.1758804  53.1271324   8.4931488
  14.8875990  52.0201759   9.2408743  65.8982086  30.4845066  41.5211029
  66.1145325  30.4576664  42.4531517  65.2580109  29.7826900  41.4035034
  52.2996368  57.5473862  65.4152985  51.4930916  57.2687263  64.9816284
  52.0045662  57.9644356  66.2247620  38.9365616  58.4548950   6.3791013
  38.9609604  59.4038734   6.5018935  38.0114708  58.2557411   6.2349696
  33.0098152  33.9819603  21.1005745  32.3848343  33.4521027  21.5954323
  33.1601830  34.7508698  21.6504822  55.2362595   4.7217460  11.8972855
  55.1693840   4.0374842  12.5632772  55.0963593   4.2637839  11.0684729
  78.4823532  62.1346474   0.6598709  79.1299438  62.7814751   0.9399928
  78.2481155  62.3998871  -0.2295183  68.3587112  18.8052006  10.9815722
  69.1326675  18.3757725  11.3460178  68.6868134  19.2849751  10.2210484
  39.6604805  10.0089045  80.9522781  39.0494614   9.5333652  80.3894730
  39.7015610  10.8868790  80.5731888  55.9076118  51.0008392  81.5865479
  55.8198853  50.4513435  82.3653870  56.1185722  51.8695030  81.9288177
  47.5413971  65.1324692  23.7912560  48.3033905  64.9722595  23.2345448
  47.3623161  66.0671844  23.6889534  66.6368942  10.0541458  24.9831696
  66.5586700   9.7877426  24.0671234  66.3994522  10.9814281  24.9840469
  15.1543570  30.7828598  58.0084267  15.8768978  31.4037189  58.1017036
  14.9070015  30.5664005  58.9074211  86.0336838  33.7592545  49.3979797
  85.7916718  33.7338448  50.3237305  86.5656204  32.9741821  49.2678413
  14.5709543  61.7638359   0.8879914  13.7550554  61.6756935   1.3807094
  14.5557928  61.0353432   0.2672650  44.7433929  62.8329544  70.7911682
  43.9602623  63.0961914  70.3078003  44.4165726  62.2535400  71.4794312
  44.3482895  21.8734722  74.8802185  43.4734192  22.1835766  74.6464081
  44.6066322  22.4216518  75.6211624  19.5556412   6.8021913   5.2719021
  19.4351311   6.1573238   4.5748692  20.1414204   6.3736792   5.8959785
  12.6355972  44.0694466  29.9248276  12.9503393  44.4226456  30.7569427
  13.4308176  43.9075928  29.4172249  42.3435783  54.7920151  14.8922977
  42.5261383  55.0582657  15.7934170  42.2686119  53.8386993  14.9347382
   3.1438222  52.7777481  15.2147589   2.5944242  53.5615616  15.2094450
   3.6754575  52.8525200  14.4222908  24.2454567  25.7232838  23.2325859
  23.8909969  26.3679714  22.6202393  25.1730957  25.6613483  23.0048084
  38.4568481  54.5244789  84.2798691  39.3673210  54.2301102  84.2550659
  38.3260078  54.8227882  85.1799316  64.1245956  44.2693100  45.0796127
  64.6105652  45.0641937  44.8600121  64.6903381  43.8055611  45.6969490
  69.3482513  68.4197311  47.6927757  70.0663452  68.0859146  48.2304878
  68.5572281  68.0836716  48.1141777  75.4748383  61.1949577   5.4052782
  74.6521225  61.6828156   5.4421878  75.8102264  61.3573227   4.5235829
  12.2459869  69.3415070  52.2419319  11.4235592  69.2730560  51.7570000
  12.7909775  68.6378098  51.8897514  22.9503212  55.0844536  78.6423416
  23.8838882  55.0755501  78.8535385  22.5981770  54.3098488  79.0807724
  22.4280128  55.8145523  52.6124458  22.4472275  56.7640953  52.4931641
  22.2766857  55.6939316  53.5498810  76.7235641  49.3761520  16.7322159
  76.3798904  49.5656967  15.8591795  77.5993805  49.0239944  16.5735893
  45.3060608  13.5669460  19.2705631  45.2880211  13.3030548  20.1904907
  44.5837059  14.1892242  19.1856880  56.6039772  68.0714340  74.5572510
  56.2407684  67.5847473  75.2971420  57.4187431  68.4450455  74.8931122
   6.2974558  40.6886902  66.4908829   5.6723557  40.0020905  66.2583694
   6.8853202  40.7425537  65.7373886  35.4969978   4.8215303  83.7161331
  36.1951637   5.3592534  83.3424301  35.6203804   3.9592259  83.3193436
   0.1855195  44.2679291  51.2488289  -0.2581756  44.9444351  50.7372551
   0.8539144  44.7417183  51.7438049  61.1894531  41.8132133  40.2446251
  60.7556953  40.9995499  40.5016098  60.5462341  42.2654686  39.6987648
  83.5843048  46.9822884  70.1774445  83.5360718  46.1188469  70.5877762
  83.9423370  46.8136177  69.3058929  55.0416832  17.3581390  33.7489662
  54.7633362  18.1512299  34.2069702  55.8545227  17.1025047  34.1850586
  21.8076763  70.0769196   7.2163553  21.9037495  70.6829453   6.4816928
  22.4539261  70.3731766   7.8573132  40.6902580   2.1256256  66.7106400
  40.2153244   2.0886872  67.5408783  41.0900002   1.2601503  66.6246643
  72.6097565  11.1587687   8.6587734  71.9921570  10.4398308   8.5248537
  73.3821869  10.7427998   9.0415983  18.2787857  40.8737717  25.9644127
  18.2244358  40.6296425  26.8883591  19.1612549  41.2302399  25.8623772
  22.2456913  52.7589645  47.0404930  22.9449825  53.3115082  47.3896599
  21.8856945  52.3146019  47.8080711  61.9105377  24.0664291  60.8769226
  61.9908218  23.4585457  60.1418953  61.7682419  23.5040989  61.6383476
  53.3059998   4.2128868  14.3527727  53.6734047   5.0422587  14.0471783
  52.3593903   4.3548574  14.3502159   8.5528994  56.6280708  12.1947689
   9.2701540  56.6731377  11.5625143   8.2083988  57.5204239  12.2301731
  61.5465050  70.0446701  87.3287888  62.2042809  69.8167419  86.6718140
  61.1104813  69.2163010  87.5285873  59.3879395  35.6876640  76.6233292
  59.7585068  36.5210648  76.3328857  58.9512062  35.8947029  77.4495392
  60.6020317  29.4491215  88.2968521  61.1375275  30.0976009  87.8397446
  59.7226639  29.8271236  88.3044815   4.9726696  21.7942677  81.1143112
   5.1263046  21.1404400  81.7963181   4.0833969  22.1077824  81.2790375
  52.9073563   0.1958067  76.7887650  53.5368881   0.1663301  77.5092163
  53.1474113   0.9785175  76.2928085  61.3235474  32.7481537  57.7390175
  61.0977592  32.6616974  56.8128548  60.7532425  32.1213455  58.1840973
  53.8975410  20.7302971  23.2767086  53.0590477  20.7178993  22.8151779
  54.5128975  20.3239727  22.6664047  57.7245178  55.5903091  13.5046940
  58.1784859  54.9649658  14.0695772  56.8005791  55.3505211  13.5759077
  17.1957817  41.7650490  87.3457031  17.0488605  40.8355331  87.5207596
  16.7161522  42.2181129  88.0391846  83.2931519   3.7646124  22.7201385
  84.1402740   4.2028146  22.6389465  83.3395004   3.3074112  23.5598106
  49.5620270  20.6338215  66.0024643  49.4144211  19.9907055  65.3090286
  48.9751892  21.3583889  65.7860031  23.5478077  60.4331589  77.0789185
  23.5670948  60.0031776  76.2239456  24.3388367  60.9719353  77.0939560
  75.7234955  44.8394241  15.3216648  75.9356003  44.0225143  14.8701134
  75.8277893  45.5166130  14.6532564  10.9565277  46.7377472   8.4476204
  10.8481941  45.8333855   8.1532946  10.6249886  47.2670403   7.7222495
  71.2356873  58.9311295  50.5147743  71.3099518  58.0841980  50.0749702
  71.8583679  58.8798561  51.2399406   3.6790245  39.7128639   4.0249171
   3.1527259  39.4360962   4.7750115   3.5881526  39.0000877   3.3925185
  83.5578232  58.8398514  70.6067429  84.3911209  58.7722359  71.0728760
  83.3832397  59.7799988  70.5633774  30.1829395  58.2749939  36.8829498
  30.8159199  58.2785492  36.1649284  29.5110989  57.6515732  36.6068916
  55.1542549  33.5323105  26.1811543  54.9483948  33.0792313  26.9988174
  56.0926476  33.3893585  26.0578117  51.4336128  60.3924255  15.5651827
  51.6836815  60.2707634  16.4810944  50.5029488  60.1700897  15.5394373
  55.8460274  62.0788383  47.6436768  56.2888832  61.2466393  47.4776917
  56.5323563  62.6511421  47.9866829  68.4184952  37.5716629  17.5720978
  68.3665161  36.8057289  17.0003643  68.1422501  37.2493362  18.4300175
  30.5552502  42.7818527  18.7889118  30.5862637  42.1378479  18.0814323
  30.9285755  43.5759583  18.4064713  68.9518814  61.5067368  59.4366760
  68.0171356  61.3706512  59.2819023  69.3664093  60.7041092  59.1201477
  15.6187572  45.7990608  28.7331505  15.5681992  44.9393387  29.1509476
  16.4337578  46.1778755  29.0625477  42.6011162  30.5048733  72.0939255
  41.9346123  31.1697102  71.9207230  43.3186455  30.7245560  71.4996796
  23.8244991  52.5386963  35.8436546  22.9021854  52.2860069  35.8022346
  24.2883244  51.7224388  36.0302544  74.2640610  34.7419243  68.9150772
  73.5833664  35.1738930  69.4311218  73.8180389  34.4641609  68.1149902
  66.6486282  46.7307739   9.0783968  67.5266266  47.0245476   8.8354168
  66.7018509  45.7752495   9.0589895  59.4169006  12.2258739  28.8286209
  59.9480972  11.5061588  29.1693153  59.2965889  12.0170984  27.9022465
  46.4662361  55.5945358  33.7451973  46.0647087  56.4619484  33.7961922
  47.1207314  55.5921402  34.4436684  68.9712677  24.5354939  52.4922333
  68.8979492  23.9121494  53.2149353  68.2737808  24.2836151  51.8870010
  61.2983437  49.0158768   2.0433838  60.7687950  49.7756271   2.2854383
  61.4343491  48.5466614   2.8665321  60.4669991   3.7636142  49.1013947
  60.1433640   3.6967025  48.2030563  61.2310410   3.1874640  49.1242599
  58.5130920  39.6088943  78.5719833  58.8221970  39.8742104  79.4381790
  59.1790161  39.9387016  77.9686584  69.6540298  21.8762302  85.0969925
  69.3249588  21.2496510  84.4525223  70.4248352  21.4508629  85.4727097
  57.9020767  24.7818508  25.8757095  57.5020943  23.9202137  25.7581120
  58.8126183  24.5941429  26.1035652  70.8336182  67.9679413  72.5577927
  70.8871689  67.2978821  71.8763275  71.0437927  68.7856216  72.1067352
  80.2964630  64.3556213  71.2968140  79.6527252  63.6473083  71.2856598
  80.5725708  64.4139481  72.2114716  76.3717728  18.5145206   2.4405801
  75.6725922  19.1630344   2.5230837  76.7766113  18.4871826   3.3075221
  52.2891655  56.1069794  18.5622234  51.6712723  55.6336479  18.0050907
  51.9074478  56.0580368  19.4386520  74.6176300  14.5500154  52.7917290
  75.2068939  14.5584564  53.5460052  73.9946289  13.8487511  52.9823380
   2.7535779  54.7670746  17.9588814   2.9622271  54.2095451  17.2093105
   3.6018012  55.0967560  18.2556324  81.8649597  56.3502769  45.1965599
  82.3977509  57.0851746  44.8927650  81.8284302  55.7552223  44.4476891
  21.5183659  62.3815002  11.9226389  21.0630302  61.8076782  11.3064957
  22.2230701  61.8400345  12.2782192  59.2393112  49.6837502  55.1629791
  59.0962639  48.7448502  55.0436745  59.8516159  49.9230461  54.4672432
  60.7810326  18.2219067  73.0665054  59.9110641  18.6195450  73.0308228
  61.2715683  18.6559219  72.3684769  70.2474594   2.3296795  15.6599045
  70.3716812   3.1018717  15.1080713  69.6509399   2.6214178  16.3493118
  78.6084747  54.3644066  84.4410706  78.3955231  54.9625549  83.7247543
  78.3819809  53.4974289  84.1044998  70.5416565  25.1403866  72.0353165
  71.3289032  25.3149776  71.5195694  70.1778336  24.3413448  71.6539993
  82.6215744  23.2360401   5.0379510  83.2071152  22.6422615   5.5078506
  83.1773911  23.6455231   4.3749051  55.0115662  23.9693775  14.8161497
  54.8876495  23.5236034  15.6541023  54.4020195  24.7068520  14.8447380
  49.7428894  20.0030060  71.4155426  49.8325195  19.5548248  70.5745087
  49.6583443  20.9284172  71.1859818   2.9721279  10.0469580   0.7644820
   3.6516526   9.4291706   0.4946357   2.2723022   9.9288416   0.1222015
  18.8923016  49.9864883  70.9152374  18.0453205  49.5406036  70.9088974
  19.3424969  49.6345634  71.6831665  23.5036812  51.6564522  16.5135822
  22.7944489  51.4597206  17.1255646  23.0724754  52.0953484  15.7803259
  46.0408707  32.1450157  63.9614296  46.7667160  32.4271584  63.4048576
  45.4355507  31.7080059  63.3623962  77.0054169  70.3701248  53.5853653
  77.0998154  71.3136520  53.7160606  77.3146973  70.2199402  52.6920433
  50.4021492  29.5565872  58.3780403  50.4775734  29.6199780  57.4259262
  50.1277275  28.6534443  58.5369606  48.0471458  27.2558136   9.0281019
  47.3667603  27.3329334   8.3592548  48.8627014  27.1809978   8.5326185
  12.1438513  66.6902771   3.3103402  11.9675646  67.6272888   3.2257080
  11.3503962  66.2667389   2.9828057  40.5165291   2.9705756  15.0884361
  41.0771675   3.4055278  15.7308788  40.9769821   2.1576688  14.8801174
  17.7974033  21.3076725  59.3119087  17.7027969  22.0734978  58.7455215
  17.8485622  21.6690655  60.1967888  43.6409187  50.8266792  48.8196487
  44.0991173  51.0665398  48.0141983  42.7191238  50.7799606  48.5659866
  77.4285660  30.3962650  40.5576134  76.7191086  30.9307938  40.9142494
  77.4979630  29.6566887  41.1613007  74.0959244   4.2394719  30.1589756
  73.5712357   4.8021245  29.5894527  74.8165817   4.7983513  30.4497395
  81.6051025  35.7946014  66.8497620  81.0405655  35.9818649  67.5997391
  81.6133270  34.8393822  66.7887802  23.6407719  50.6968155  59.9648476
  23.8679562  49.9453545  59.4171906  23.1316090  51.2674751  59.3892326
  63.8649483  63.5698891  44.5529137  64.2923737  62.9366684  43.9762192
  63.3309174  64.1056366  43.9663849  27.7163696  49.3480339  85.4700775
  28.0309200  49.6952477  86.3047791  27.2427292  50.0775528  85.0704422
  34.8102913  60.0558472  41.4123840  34.4554024  59.5619583  40.6732254
  35.1799812  59.3887520  41.9907875  86.5202103  47.9870338  67.7272415
  85.8059387  47.3794022  67.9191895  87.2629013  47.4230957  67.5113373
  64.6951218  47.2574348  13.6853371  64.7320786  46.9972115  14.6057444
  63.7641525  47.2266464  13.4649286  56.3325348   6.6018496  40.3184433
  57.0416107   6.9294133  39.7651367  56.5661163   6.8879681  41.2015114
  28.2831726  63.8762131  34.4680023  28.5622425  62.9934349  34.2249908
  27.4099026  63.9649506  34.0862160  15.0623493  68.0888138  13.2190533
  15.7846060  68.2026596  12.6013021  15.0963440  68.8682938  13.7735720
  77.9760895   5.3681440  54.9228210  78.1630783   4.9453812  54.0846443
  78.8381729   5.5495629  55.2971573  63.5447426  44.7331924  48.5955582
  63.1282272  45.3225441  49.2243767  64.1937485  44.2535934  49.1103477
  22.7593193  62.2793541  74.6180801  22.4046860  62.4530754  73.7461319
  23.1138191  61.3921165  74.5600586  26.3189983  58.4086075  64.5341034
  25.3825760  58.2194786  64.5939102  26.7187214  57.5694275  64.3055725
  82.7334137  69.4127731  25.8925533  82.4675064  70.2953186  26.1506977
  83.6608124  69.3645554  26.1245937  48.4104385   0.1704683  25.3126431
  48.5781517   0.1199896  24.3716030  49.2770882   0.2761504  25.7050533
  72.3793182  61.0601845   3.8444970  72.8115845  61.7907486   3.4021709
  72.1357040  61.4095306   4.7017264  38.5107193   8.4291191   6.1952167
  39.0123291   8.9439249   5.5630813  39.1676598   7.9017763   6.6497197
  76.9295502  47.7403412  12.6409702  77.7392197  47.5638771  13.1200552
  76.5907135  46.8738708  12.4159193  75.2006454  70.4951248  61.7587166
  74.6623077  70.6028748  62.5428200  75.1938400  69.5527267  61.5911636
   1.1274674  20.0286198   1.5628204   1.2762296  20.8051319   1.0232552
   1.9059668  19.9689960   2.1165493   3.4176698   0.4459276  73.9811707
   2.9697912  -0.3467230  73.6856308   3.8077755   0.8108748  73.1868973
  34.2316666  47.8777237  30.4772015  33.7563057  47.5088234  31.2216320
  35.1543121  47.8002167  30.7199898  29.0321617  32.2106400  74.6943741
  29.9384537  32.2086754  75.0023651  29.0945492  31.9900112  73.7650375
  49.3495445  54.5127678  36.0674171  48.5252266  54.3406906  36.5225182
  49.1685791  55.2814865  35.5265350  64.3907318  21.2084866  47.7136726
  63.4971542  20.8945236  47.5751953  64.4273071  22.0417423  47.2440186
  86.7488785  50.9896927  85.9873810  87.2681046  50.4845238  86.6130295
  86.0243683  51.3403969  86.5053787  11.0020742  38.7466507  52.2787323
  10.5101948  39.2945595  52.8903503  10.3787832  38.0734558  52.0056953
  71.9779358  62.3824730  88.4374466  72.1648178  62.1970787  87.5171509
  71.4468460  61.6410522  88.7280731  56.5570259  43.7769737  25.3995895
  57.4886932  43.5651283  25.3417263  56.4709320  44.6080971  24.9326324
  26.2041225  61.9115906  33.8414078  27.1371403  61.7657547  33.9977417
  25.8869457  62.3186417  34.6475983  40.0921021  45.0713539  15.4566927
  40.1634064  44.7384453  16.3512993  40.0346260  46.0213852  15.5585384
  49.1774521  53.1160927  83.0970154  49.0430603  53.3464088  82.1777039
  50.1265335  53.0290184  83.1858368  51.4856186  68.5036011  45.8925972
  51.7648430  68.6020508  44.9823380  50.8788643  67.7634125  45.8782768
  32.9421730  54.1312790  64.2067261  32.0600166  54.2007408  63.8417473
  33.1747627  53.2092476  64.0972290  64.6145935  66.6826172  61.2539558
  64.8599167  66.1447296  62.0067673  63.9839287  67.3116531  61.6043892
  64.4262009  14.9537430  56.1583900  63.7714920  14.8477440  56.8485718
  65.2072067  14.5185461  56.5002441  69.0315475  52.1738777  34.3294106
  69.1228409  52.1556892  35.2820740  69.3683777  51.3258286  34.0402946
  35.7274704  48.2311745  83.3692780  36.6543846  48.0127182  83.4658890
  35.6414909  49.0945816  83.7734604   9.1464176  56.9037895  71.1355362
   9.2995062  56.4678955  71.9738617   9.9074841  56.6727638  70.6029587
  12.0913897  30.6055946  67.1285400  11.1657181  30.6703606  67.3634186
  12.3618956  31.5098457  66.9692001  78.5808716  10.1955709  48.4851379
  77.9833832   9.5179405  48.8014565  78.8528061  10.6628551  49.2750320
  20.8660336  63.3025475  63.5025024  21.6682949  62.7885017  63.5939827
  20.6463184  63.2402077  62.5729485  14.2587042  68.6755905   9.4082565
  14.4788885  67.7576828   9.2495327  14.0977736  69.0374451   8.5368214
  37.3326607  23.0461140  15.8182726  38.0095367  23.5264111  15.3414249
  36.8516884  23.7214813  16.2965813  36.3139114  34.5737648   5.9939446
  36.3640518  33.7636871   5.4865079  37.1949577  34.6881523   6.3501883
  36.0245132  31.9989223   1.2902728  36.1113930  31.6243496   0.4137000
  36.9206810  32.2142830   1.5486097  55.7841568  36.9345436  87.2742538
  55.0869141  37.2355614  86.6916122  55.9056435  36.0128822  87.0461884
  15.9099913  49.7096977  15.0332479  16.4439411  48.9208832  15.1275911
  16.2072067  50.1034126  14.2129536   3.1861730  68.0363541  83.5059509
   3.8957593  67.4614944  83.2191391   2.7821968  67.5710449  84.2384338
  56.6299820  46.1743164  80.0430450  55.8961754  45.5847855  80.2168579
  56.2418976  47.0492554  80.0531998  80.0220871  70.9303131  11.8079529
  79.2362900  70.5177155  11.4494743  79.7346344  71.3133469  12.6367407
  61.8287773  20.3719883  63.7950974  62.5072327  20.7061291  63.2083435
  61.9429207  19.4217968  63.7766991  75.2616119  11.2675915  17.0473690
  75.5069427  12.1605825  16.8052654  75.8928146  10.7131052  16.5887184
  69.8371735  12.6838284  40.3262672  70.3659973  13.1225948  40.9926453
  70.4768219  12.2648563  39.7504730  16.8344803  38.1851883  69.1066971
  16.2853603  38.2328606  69.8892746  17.6754379  37.8559265  69.4238892
  14.5312099  50.6305771  51.6938133  14.0297813  51.4154243  51.9147568
  15.1748915  50.5515175  52.3978386  42.6319542  48.6501694  69.6257477
  41.9659042  49.3075104  69.4244843  42.7713242  48.7315025  70.5692520
  51.3305016  10.9665718  86.2609100  51.9984970  11.4322472  86.7640533
  51.6774979  10.0796013  86.1654816  31.7352524  39.5189629  59.8794098
  30.7945690  39.6764717  59.9602776  32.1364899  40.3704224  60.0533562
  72.6574936  15.4388590  40.3977852  73.4582672  14.9632721  40.1768303
  72.3396301  15.0152721  41.1951332   9.3179159  68.8141479  88.3754730
   8.7648621  69.5423508  88.0924835  10.1785145  69.0086823  88.0043182
  16.5289822  52.4311676  46.6276169  17.3302784  52.9477119  46.5419579
  16.1075077  52.4990730  45.7708893  80.8109131  58.0692520  33.0770988
  81.2504578  58.1678848  33.9216766  80.8850937  58.9306984  32.6664429
  13.9035797  31.0853939  23.6600571  14.0072031  31.2853661  22.7297325
  14.6678629  31.4831047  24.0771046  81.5285263  32.6241722   0.8824957
  81.7232895  33.2817955   1.5502002  82.2982025  32.6253929   0.3134324
   0.5717326   3.0498092  63.2656822  -0.2978246   2.6904798  63.0896606
   0.4897058   3.9828947  63.0685654  68.4959793  61.9006577  49.3463478
  68.0353470  61.1984711  48.8870163  69.1591492  62.1992111  48.7240105
  58.8083267  45.4927673   8.5862055  58.2671585  44.7173309   8.4376678
  59.2780266  45.3049660   9.3988218  64.6054153  55.2454643  41.3894119
  65.1060867  55.4822044  40.6086998  64.3936005  54.3201065  41.2666321
  52.4774246  28.6175499  34.4156952  52.9627647  28.0661488  33.8019905
  52.8893013  29.4784126  34.3415222  68.9246979  14.6276608  79.8035507
  68.1632843  14.1930313  80.1877060  69.3425217  15.0740919  80.5400009
  82.3108826   7.3923750  52.3531837  82.8621597   7.2725925  53.1264725
  82.7884369   8.0227327  51.8139038  57.6379585  46.5523033  74.8093567
  58.0509338  47.2943459  75.2510071  58.1024666  45.7853775  75.1444550
  81.4480515  69.8089142  23.0123119  81.2304306  70.6273804  23.4583874
  82.4013062  69.7483597  23.0745258   1.2516067   5.9461646  22.7372360
   2.0035605   5.4208021  23.0107174   1.0047604   5.5858555  21.8854885
  20.9810028  46.2651787  15.0299196  21.0960560  45.3317261  14.8519917
  21.7227802  46.6852074  14.5945158  74.4801102  41.7907486  10.4354916
  74.3392868  42.0723000  11.3394442  74.4642715  42.6014900   9.9268847
  80.3407745  52.1386833  75.0032730  81.2442169  51.8759575  74.8272018
  79.9138565  51.3383598  75.3089752  82.9904556  64.0426178  55.7857742
  83.4410934  63.9019089  56.6184578  82.3494415  64.7283249  55.9732323
   1.7834313  33.3936310  29.8961544   2.5953901  32.9039192  30.0270653
   1.1992502  32.7757072  29.4566803  76.7231979  55.0652962  43.3497009
  77.1971207  55.8943939  43.4147148  76.4954681  54.8480682  44.2536812
  25.9533558  33.6532173  61.3122139  26.5721207  32.9696922  61.0550117
  25.9932022  33.6648521  62.2685127  78.2030182  17.2536755  26.4521961
  77.4553833  16.6693859  26.5782127  77.9777756  17.7669163  25.6762581
  86.3109055  58.7869492  22.4287663  87.1739883  58.4762611  22.7022362
  85.8758926  59.0345612  23.2446613  17.5467854  31.7332172  85.8383560
  18.1820221  32.2638893  86.3190765  16.9902077  31.3522015  86.5175323
  47.4800072  44.4436989   4.8683786  47.5738182  43.6976013   5.4606328
  47.8295288  44.1321945   4.0334945  40.1451569  20.9415131  77.4662552
  40.9552803  21.3651352  77.7499466  40.2058411  20.9238949  76.5111465
  74.2043152  19.1972847  26.8527088  74.9046555  19.5014172  27.4299908
  73.8106461  19.9998131  26.5103588  33.2853813  22.1739502   7.8665643
  34.0826569  22.2078381   7.3379493  33.0808334  21.2411518   7.9319606
  69.7460022  21.0940189  78.2511139  69.4071655  21.0972843  79.1463318
  70.1996307  21.9323540  78.1636581  25.4285412   9.5455580  19.4649372
  24.5027294   9.7868509  19.4946651  25.7500153   9.9293890  18.6491203
  19.6330376  43.6088524  61.3952293  19.4232502  44.3061180  60.7739067
  20.4782524  43.2707367  61.0993881  13.8186636   4.7098384  15.4454470
  14.6158819   4.1801629  15.4563551  14.0084362   5.4155684  14.8272543
  45.8175049  34.0355721  19.9721870  45.0929375  34.3829651  20.4923325
  46.2228661  33.3768158  20.5360622  70.4022598  32.7306595  73.1064682
  70.5265656  31.8710670  73.5088120  70.2450027  33.3199348  73.8442001
  78.6798019  46.2022629  51.4286842  77.8829269  45.9087448  51.8703537
  78.7911072  45.5885735  50.7025795  62.5464478  37.3409538  18.9197197
  61.9170609  37.9920158  18.6095181  62.9090347  37.7206764  19.7200794
  50.2136040  55.9533844  68.4676971  50.5534515  56.6911278  67.9612656
  49.7363472  55.4239311  67.8288345  29.1077957  30.2539806  76.5487289
  28.9651718  31.1183453  76.1630325  28.2350178  29.9622841  76.8121719
  41.0590096  40.1193466  73.2440567  41.7919731  40.7301674  73.1672668
  40.4347267  40.4095230  72.5790024   8.1563206  13.9023638  76.4592209
   8.3385725  14.7714663  76.1018982   7.2475014  13.7284250  76.2142181
  59.0766678  55.4131432  76.1150513  59.3301735  55.6207047  75.2156677
  58.7340088  54.5206490  76.0673981  66.5786896  16.8124180   0.2746452
  65.7828445  17.3214855   0.4286335  66.5286636  16.0933418   0.9044550
  51.1382065  67.4592056  13.8633957  51.5209656  68.0677948  13.2314634
  51.6449661  67.5950851  14.6639967  13.6658154  46.2362480  81.2838287
  13.7629833  46.1117058  80.3397522  13.4996338  45.3576736  81.6254654
  41.6942024  11.2694607  70.6748581  42.4367180  10.6669111  70.7177124
  41.1473122  10.9257727  69.9684448  84.6718292  50.8644562  19.7511463
  83.7674026  51.1761169  19.7179031  85.0045776  50.9998398  18.8639145
  14.8872833  16.7085056  73.8748169  15.0306664  15.9231129  73.3467712
  15.7525797  17.1118793  73.9439850  29.0726414  61.3349113   5.7280097
  28.7288742  60.6263542   6.2720737  29.0893707  62.0959511   6.3083277
  27.9756317  43.9613228  72.9381104  27.7261353  43.1260338  72.5428009
  28.9131680  43.8742294  73.1103745  19.9459553  69.3509979  14.6445503
  20.8936501  69.2785873  14.7579651  19.7317028  68.6868362  13.9893980
  35.1606293  17.6498299  80.6651535  35.0225258  17.0096493  79.9670639
  35.0632515  17.1470985  81.4738617  24.8017731   0.9632190  66.7701416
  25.4559898   0.5622991  67.3424149  25.1071434   0.7685954  65.8840790
  63.9558487  69.0504456  27.1643562  64.8429260  69.0157471  26.8064079
  63.4083214  68.6545715  26.4863186  57.7040977  52.5421295  46.8491135
  58.5896683  52.9029350  46.8918190  57.3780098  52.6007805  47.7471428
  29.2368546  64.5739365  48.3015633  29.0451889  64.9415588  47.4388046
  30.1888275  64.6339798  48.3813934   4.0137725  40.0663605  64.8053513
   3.6949818  39.5707092  64.0510788   3.3760109  40.7716103  64.9154129
   9.2034779  34.2020683  72.8713303   8.2569265  34.2884369  72.9845123
   9.3385973  34.2673683  71.9259644  46.6713905  47.1849632  44.6143036
  46.2648277  47.7792664  45.2449722  46.5159988  47.5955391  43.7637100
  30.1002769   0.8718052   1.0355284  30.5983162   1.6448880   1.3011081
  29.2569180   0.9664692   1.4782641   5.9711370  67.3400574  82.7043991
   6.1320024  66.5927124  83.2804413   6.8082824  67.8031540  82.6734390
   2.0572493  64.3099670  27.6800766   2.9308431  64.6352310  27.8974953
   1.7785221  63.8317299  28.4609928  46.8824463  68.3377380   0.5038185
  45.9940567  68.3774185   0.1496707  47.0335083  67.4068909   0.6679357
  10.9919672  47.9538231  15.5052080  11.2564144  47.7693253  16.4064636
  11.5733347  48.6607170  15.2249537  21.1872139  23.3981285  79.5674667
  21.4933643  24.3041687  79.6073837  21.7168827  22.9964600  78.8787384
  27.8212299   3.8647904   8.9771166  28.1571007   4.7550812   9.0810652
  28.6004601   3.3097289   9.0077591  67.4766769  45.5298119  86.5024033
  68.1891937  46.0753708  86.8354340  67.3387375  45.8367538  85.6063004
  79.4873276  57.1880722  39.5019035  80.0813522  57.4108620  40.2186584
  80.0189209  57.2839317  38.7116814  70.8148651  52.9031982  73.7668533
  70.0981979  52.9624557  73.1351089  71.0558395  51.9768295  73.7694931
  34.1412277  59.3757782  47.0720825  34.7728729  58.7374268  47.4033928
  33.5115395  59.4819336  47.7851448  78.8940811  51.2353516  67.2092667
  78.5015564  50.3751335  67.0603409  79.6668091  51.0564995  67.7451172
  25.0041847  51.9112549  83.9715805  24.3829041  51.5925522  84.6263046
  25.3561993  52.7178345  84.3480759   4.4981256  21.5436306   3.0530272
   3.6641965  21.0908852   2.9272621   4.5120187  22.2141399   2.3700523
  68.1387863  33.9211731  57.6328392  68.5729980  33.4224396  58.3249092
  68.2176361  34.8339920  57.9099121  80.0810852  60.0458069  75.3111649
  79.9660797  59.9101257  74.3706360  79.6051865  60.8554115  75.4963226
  75.9056091  57.2599030  59.6139793  75.3746643  57.0279007  58.8520775
  75.5189285  56.7637177  60.3354416  66.1622925  70.4526978  48.5866585
  66.3741913  70.9691391  49.3642349  66.6568832  70.8688354  47.8806534
  73.3663177  60.5169830  62.8124504  73.7859497  59.9290962  63.4405670
  74.0466385  60.7003098  62.1645355  15.3638039  36.1243248  18.1303082
  15.2740774  35.9377403  17.1957664  15.2711601  37.0748482  18.1947479
  75.2644958  13.9377012  37.1827583  74.6074066  14.4654541  36.7289467
  75.3780518  14.3717537  38.0282974   8.3570585  68.2618179  74.3940201
   7.7285686  68.4172134  73.6889801   9.2006397  68.5231247  74.0247955
  54.7214622  13.0960264  24.7795200  55.1634941  13.8312340  24.3548946
  53.7933769  13.2320042  24.5887337  78.0492325  57.6330299  42.6988869
  78.9925461  57.5186386  42.5835342  77.7702026  58.1188545  41.9227753
  76.1583023  31.0611610  19.0944061  75.5146255  31.7596302  18.9758854
  76.2945175  31.0190678  20.0409298  30.3320084  66.5219345  18.8230820
  30.0696640  66.4567413  19.7413177  29.7967491  67.2330933  18.4709721
   9.0377493  54.9595566  73.5213470   9.9152498  54.8211670  73.1648788
   9.1857615  55.4025688  74.3568497  25.4016514   3.5797696   7.7174363
  25.2667847   2.6321616   7.7264881  26.1862411   3.7151163   8.2487850
  48.5645294  59.8305511  15.4235697  47.6955452  59.8902779  15.0266666
  48.9884720  59.1058121  14.9639444  24.7725697  31.3031807  69.2970047
  25.0480499  31.0504017  70.1781693  24.5969219  30.4732323  68.8536530
   3.5479009  36.4369812   6.6390786   4.2153306  36.8884811   6.1224399
   2.7178359  36.7910576   6.3199320  81.8127518   2.4616737  84.4286423
  82.5012589   2.0565703  83.9013138  82.2132797   2.5888667  85.2886581
  51.2422638   1.2064266   3.6765389  52.0143051   0.8022574   3.2805207
  51.4887886   2.1229730   3.8006408  63.0959625  51.3913422  14.3270426
  63.1932068  51.8340836  13.4839792  62.5886612  52.0023918  14.8613615
  30.3159466  64.4119263  58.0995674  30.8582802  64.5449295  58.8770065
  29.4794617  64.8228455  58.3178940  49.3975372  59.9382324  12.5529871
  48.5040894  60.2702141  12.4648266  49.3846169  59.0934219  12.1031418
  65.3579178  54.1459312  84.9375305  65.3728867  53.9446526  85.8732071
  64.9565277  53.3766289  84.5334396  37.5511665  38.9702530  43.3914490
  37.8262367  38.0994835  43.6783829  38.2617378  39.2714195  42.8252182
  23.5239868   3.5269492  34.5320015  24.2371750   3.6379189  35.1607132
  22.7370052   3.7775261  35.0158424   1.4016221  23.6733875  30.6453209
   1.4386408  24.0541325  29.7678852   0.5428463  23.9296494  30.9815731
  37.4637527  50.5229111  42.3657303  36.7850914  51.1716423  42.1791992
  38.2841110  51.0136948  42.3169632  52.2245369   2.0739973  65.3444519
  51.6730270   2.8400671  65.1856918  51.7962646   1.3665221  64.8624878
  24.8976097  36.5116501   3.6220953  24.9827862  37.4346733   3.3833368
  25.7878895  36.2383347   3.8432970  75.5303345  52.9216309  23.3119850
  75.7861404  53.8118057  23.0703564  75.0563354  52.5929451  22.5480938
  49.9352379  57.2258224  87.4937668  49.1014671  57.6701355  87.6475449
  50.5947838  57.8287430  87.8368607  70.4415436  32.5821304  40.4334831
  69.7960968  32.9170723  41.0559311  70.7307281  31.7517967  40.8118362
  77.4302826  66.6865387  35.9986954  76.6266556  66.5063705  36.4864960
  77.8438034  65.8297043  35.8934937  50.9367332   4.3792372  28.3779850
  50.0643044   4.2979774  28.7633324  51.0361786   5.3155241  28.2056198
  37.7370224  55.8215256  19.3869991  38.1081505  56.4785118  19.9759521
  37.8838577  56.1758194  18.5099869  17.6090412   7.3828464  72.1666565
  18.5060501   7.7008133  72.2691422  17.0908909   7.9347587  72.7524414
  47.8013496  31.4964790  81.2983093  47.3731232  31.9139805  82.0456696
  48.7351074  31.5343418  81.5054321  42.6078339  32.4236794   4.4583516
  43.0425606  32.8470116   3.7180576  42.7904625  32.9967422   5.2029858
   2.9043982  70.3717575  69.7341156   2.1687613  70.8964310  70.0500031
   3.6646078  70.9463654  69.8243179  70.0451508  31.3305111  80.7800827
  70.8635864  31.8267899  80.7696609  69.3627853  31.9913998  80.6624451
  69.4016724  30.4213848  26.9883690  69.4298706  31.3763580  27.0472202
  70.1608353  30.1919270  26.4524117  49.9974899  64.2830811   0.1800846
  50.2093010  65.1044159   0.6236926  49.4005547  64.5378799  -0.5234610
  12.5206480  10.0175600  75.3187027  11.6902895   9.9547920  74.8466949
  13.1691370   9.6623144  74.7108459   5.2491136  37.5407448  27.1195240
   6.0288186  37.7706184  27.6249428   5.5099750  37.6650047  26.2069759
  31.5723896  61.0710297  37.8325768  32.5289230  61.0383797  37.8179855
  31.3036079  60.5593414  37.0695801   2.2164724  55.5079727  14.9821796
   2.4853239  55.9014511  14.1520433   2.8476391  55.8404884  15.6203747
  81.9628601  55.6644363  88.2785034  82.7737198  56.0975838  88.0118103
  81.9459076  54.8537216  87.7698898  58.3102875  36.3332481  22.5430984
  57.4177246  36.0642548  22.3258266  58.2638893  36.5972786  23.4619923
  66.6521530  68.8675461  11.4214258  66.9570999  68.2690430  12.1033583
  67.1741867  68.6399841  10.6520624  75.6142731  24.2527142  39.4680862
  76.4339752  24.4068909  38.9984627  75.5678329  24.9627666  40.1083183
  55.6773186  34.5513458  70.5417480  55.7338753  35.2847099  69.9292068
  54.8316460  34.1452026  70.3516998  85.8474503  32.6103821  72.4570770
  86.7858276  32.4871559  72.3138962  85.7808456  33.4621391  72.8887100
  43.5403709  20.0865021  77.1415634  43.5926476  19.1379871  77.2591171
  43.4612617  20.2065620  76.1952286  19.3801460  53.2638969  36.2363167
  18.5914001  52.7330971  36.3475037  19.0537891  54.1286163  35.9873505
   8.3869019  45.7210922  31.5754910   8.6174955  46.4631615  31.0165672
   8.7655716  44.9613419  31.1332016  49.2212639  67.2504272  70.1056595
  49.6398277  67.4486237  70.9433670  49.2566452  66.2961349  70.0400848
  80.3047562  18.6407642  72.3650131  80.3144455  17.9875584  73.0646286
  79.3786697  18.7430115  72.1456070  51.1244011  34.5290451  19.1533947
  51.3230019  33.9279404  18.4354382  50.1682167  34.5661316  19.1771679
  55.5959892   8.3401117   8.2050781  55.5200615   8.5577049   7.2760358
  56.1091385   9.0570278   8.5778236  21.5674191   6.0932126  11.0184288
  21.1234608   5.2466431  10.9688959  20.8589401   6.7301283  11.1113195
  54.8930244  51.3368454   4.9240460  54.8840866  51.4777222   3.9773121
  54.0658035  51.7092400   5.2294283  75.4798203   7.4781933  32.5859337
  75.8951340   6.6955309  32.9481277  75.4536819   7.3205013  31.6421719
  48.7512321  36.0477028   7.3438511  47.8749008  35.6966324   7.5020471
  49.3350792  35.4587440   7.8218455   8.5035419  30.1953354  46.4831963
   8.5248814  30.7160549  47.2860832   9.0412207  30.6884518  45.8635445
  11.3442202  26.1479874  13.6614799  10.7930651  26.9004040  13.4462395
  12.1322412  26.5308304  14.0470781  32.3225174   2.6563570   2.2761080
  33.2574539   2.6021183   2.0781536  32.0641899   3.5276229   1.9754515
  49.5381546  61.9726028  50.7987823  49.1484718  61.5199776  50.0507774
  50.4278755  61.6237450  50.8528633  83.4604111   5.5214686   6.1477857
  83.4597397   5.3434949   7.0882945  82.6442337   5.9971428   5.9934511
  32.5028801  62.6916695  45.2893867  33.1100349  62.9621239  45.9781876
  32.0794487  63.5037079  45.0109444  64.6489105  37.0734406  37.6927147
  64.6306686  36.1199455  37.7748222  64.6538315  37.2325096  36.7488365
   5.2487869  42.6699638  31.8055210   5.0888081  42.2694359  32.6600494
   5.6362653  43.5212975  32.0088005  60.2615089  12.4258928  39.5918388
  61.1912346  12.6522875  39.6160431  59.8110542  13.2384691  39.8221512
  84.2994461  19.7450790  63.6733627  83.8149719  20.4409237  63.2291603
  83.9349518  18.9346771  63.3175278  77.5485153  15.8837881  59.8719711
  78.2621918  15.3487940  60.2193565  76.9244537  15.9491854  60.5948143
  59.7906570  36.8253670  38.8598785  60.6843834  37.0914421  39.0759697
  59.6662598  37.1154747  37.9562225  58.7692757  60.1339188  62.5563927
  58.0792351  59.4985542  62.3656464  59.0436707  59.9284401  63.4500999
   4.0051799  51.9985428   4.9442348   4.5951667  52.5516167   4.4321251
   3.4648216  52.6164055   5.4366684   2.1756911  50.0316887  42.9944267
   2.7106724  49.7548485  42.2505264   2.0710251  49.2398987  43.5220070
  74.3224182  37.9063530  85.5427780  74.5692902  37.6406784  86.4286118
  73.6934357  37.2424736  85.2601471   1.7725329  17.1140480   9.9871740
   2.5082943  17.6853962   9.7670660   1.1791251  17.6710510  10.4910049
  42.0490417  21.4310837   2.4457543  42.3139000  20.5180016   2.3345664
  41.1066208  21.4292030   2.2782032  10.1841946  41.0545692  76.2227249
  10.5429258  41.4849777  76.9987946  10.1139488  40.1327972  76.4709930
  50.5815086  14.2528505  84.7874908  49.8098183  14.7784863  84.9982758
  51.3037872  14.7002935  85.2283401   7.5279603  36.7862358  30.7099972
   8.3156395  36.5302849  31.1898746   7.5759311  37.7410660  30.6627769
  82.8500748  38.4958649  26.3771114  82.4112778  39.2396698  26.7899590
  83.3122406  38.8751831  25.6296120  61.5392036  45.1773872  42.3498993
  62.1535950  45.8180542  42.7080841  60.8800583  45.7042694  41.8980637
  30.3906975  34.4811058  56.8181305  30.5287743  35.2927284  56.3298340
  30.1452484  33.8394089  56.1516342  72.3939209  67.1345901  12.3128700
  71.6761093  66.8030319  11.7733803  72.5042114  66.4741974  12.9969358
  62.5576439  17.9883766  18.6037540  62.8916512  18.7207661  19.1217079
  62.8502235  17.2084446  19.0752773  26.5550041  49.0401726  49.9910393
  26.4058056  49.0836868  49.0465393  27.4771633  48.7983665  50.0769615
  83.0849075  54.7848816   1.6359056  83.9395370  55.1910477   1.7803952
  82.8139114  55.0976830   0.7728014  50.2862930   7.8310618  36.8871536
  51.2428551   7.8628950  36.9015923  50.0340309   8.4987297  36.2493362
  55.7485962   0.6490465  87.2553329  54.9296761   0.5899025  87.7473679
  55.5945091   1.3451113  86.6166000  24.3491077  46.9086876  25.9397583
  23.5184975  46.5452957  26.2467842  24.8496571  47.0710220  26.7393398
   7.4101086  63.9925041  61.7377625   7.9274802  63.6468124  62.4651260
   7.1455078  63.2173767  61.2423859  79.6724014  24.7542057  25.6940861
  79.8113174  23.9841042  25.1428356  80.1999588  25.4400558  25.2847843
   5.1305690  46.0868111  85.0780106   5.9786816  46.4379311  84.8066254
   4.4939451  46.5523758  84.5356216  63.7714195   1.9194752  37.0197182
  64.5654449   2.2282236  36.5833397  63.6109810   2.5638800  37.7090912
  69.7108307  56.7826233   0.5743625  69.1764679  57.1656265   1.2700592
  69.5683441  57.3548203  -0.1796382  84.2545090  22.0845432  37.0996857
  85.2035065  21.9984684  37.0090027  83.9894867  22.6166019  36.3494148
  34.6722450   0.2786807  40.2252159  35.3512497   0.0864751  40.8719330
  35.0442734   0.9781181  39.6879883  66.2221985  35.7936249  23.1275673
  66.8460159  35.5151901  23.7980537  65.4755630  35.2044792  23.2356415
  67.5376587  30.5646324  89.1287308  67.2778091  30.3043728  88.2450027
  68.1980972  31.2442245  88.9938202  84.1889725  35.3116875  11.1998119
  84.7339325  34.7851143  11.7845917  83.9254532  34.7054939  10.5074816
   2.0748529  39.6456718  32.8420029   1.5168126  38.8679695  32.8443298
   1.8337646  40.1110611  32.0410500   5.4097013  64.5818558  58.4960136
   4.7111225  64.8680573  59.0844955   5.1547880  64.9220428  57.6383858
  69.0038300  18.3159885  64.3931885  69.4970016  17.5492096  64.1015320
  69.3961716  18.5470695  65.2351456  11.4097223   9.1336613   1.1868420
  10.8776398   9.9265604   1.2534170  12.1910477   9.4090948   0.7073644
  84.3553696  28.3765373  61.8291397  84.6369553  29.2814465  61.6946640
  83.4066620  28.3998089  61.7040482  58.2127647  56.8658485  70.2905731
  57.8134689  57.2540474  71.0690918  58.6488342  57.5980110  69.8546600
  75.9094467  11.1845579  69.5693054  76.1656265  10.2677078  69.6692581
  76.6669159  11.6801796  69.8804855  44.7153549   0.3273763  45.1433716
  45.4499588   0.9290918  45.2639008  44.9916496  -0.2480749  44.4301071
  12.2698946  67.8397293  14.3518753  13.1373920  67.8190308  13.9478302
  11.7134523  68.2698288  13.7025537  55.0778809  29.2802277  41.1868019
  55.5340881  29.8425064  40.5607414  55.3935890  28.3981037  40.9907951
  27.2776737  14.7636681  68.8224335  26.9007797  15.5281372  68.3868103
  28.0890999  15.0869417  69.2139893  43.0846710  66.8909912  46.9340820
  43.4818916  66.6382370  47.7674866  42.1724091  66.6109543  47.0088692
  25.0474567  33.4098587  56.4879723  25.3241024  32.9964714  55.6701660
  25.0241032  32.6935616  57.1224861  84.2705002  55.8121262  35.9117851
  83.5369339  55.3498840  36.3172989  83.9171829  56.1451149  35.0868530
  70.0730133  15.9076595  30.3410301  69.4811325  15.3283882  29.8610744
  69.5419006  16.6775818  30.5444260  60.5197906  61.9224701  77.1045837
  60.1491776  61.4059830  77.8202057  60.9940071  62.6303749  77.5407257
  60.7895355  36.4629555  52.5415382  60.9723320  37.3539734  52.8397064
  61.0231094  36.4683609  51.6132889  59.8706055  47.3269157  34.5412750
  60.7491684  47.3862534  34.9165611  59.4568367  46.6042633  35.0132980
  17.1574039  39.5038338   7.0881004  16.4014282  40.0595551   7.2775998
  17.7311287  39.6131516   7.8464689  52.9502373  69.2238083  24.7212753
  53.5445557  69.9267502  24.9837475  53.1742592  69.0495987  23.8071117
   8.0067453  34.9089546  28.5948181   7.5373130  35.5544548  29.1232052
   8.1180668  35.3317642  27.7433071  51.8589516  51.8813362  25.8335552
  51.4146996  51.5323296  25.0608540  51.3322678  52.6378899  26.0913506
  75.9023438  32.2118111  56.8281441  75.7903137  32.1617050  57.7774467
  76.3642426  31.4054718  56.5985870  43.2440071  42.5839767   8.1815815
  42.8959656  42.1395073   8.9545918  42.5679550  42.4680290   7.5139437
  77.7217865  57.8469162  27.7819824  77.5898666  57.2635269  27.0346603
  78.6609421  58.0318489  27.7786140  26.3891926  63.2405319  47.5461960
  26.3260250  64.1643753  47.7885933  25.5351753  63.0335617  47.1666603
  67.8871460  20.3618870  19.8552761  67.6021957  19.7038021  19.2212715
  67.1502228  20.9696217  19.9172668  11.0914993   4.7644300   7.4910359
  11.1500397   5.6221256   7.9119439  10.7158136   4.9455762   6.6294799
  11.6599483  39.4778595  45.8067360  11.5166817  39.9567146  46.6230736
  10.8317738  39.0256920  45.6457901  71.4146423  31.0931244  54.8087921
  71.6787186  31.2756233  53.9070206  72.1367493  31.4258232  55.3418121
  22.0887718  65.7701416   8.4515142  21.4539909  66.2743225   7.9425082
  22.4922562  66.4126434   9.0351477  45.2247734  44.2581329  31.6625004
  45.7448578  43.4873619  31.4352112  45.1431236  44.7427101  30.8410683
  50.3277855   6.9272470  46.8980408  49.9335556   7.0640464  47.7594948
  50.0080643   7.6584349  46.3694801  35.7134743  35.5171356  15.8995333
  36.4760437  35.9714775  16.2577152  35.6768227  34.6922874  16.3838005
  53.5308113  42.3433723  58.9590225  53.9682770  42.9958725  59.5059204
  52.7952385  42.8138733  58.5668602  77.3990860  19.0529690  24.3392849
  77.6469803  18.3108482  23.7878914  76.9417343  19.6494694  23.7466221
  -0.0201851  68.3586655  40.4633255   0.0960374  68.9441376  39.7150307
   0.3558558  67.5263367  40.1768837  82.3057861  56.5645294  54.6132774
  82.9313126  56.6197014  53.8908424  82.5324326  57.2995720  55.1829948
   7.8082209  58.1678200  33.0494003   8.3731041  58.0866814  32.2809219
   6.9672003  58.4608154  32.6985855   5.6731448  44.6790085   5.3630638
   5.0752683  43.9332848   5.4147382   5.6223454  45.0870667   6.2274365
  32.7788086  30.1876831  10.4513922  32.3717728  29.9323711  11.2792625
  33.6944351  30.3535137  10.6757889  29.5369339  29.7589931   9.3985806
  30.2461014  29.4640560   8.8273325  29.5977707  30.7141209   9.3823032
  14.4261436  52.7747345  25.4795227  13.5541058  52.3810005  25.4520264
  14.3690777  53.4351768  26.1700249  58.7430763  60.3042984  47.7462311
  59.2245483  60.5430489  48.5383263  58.4808922  59.3950386  47.8902283
  62.1786385  23.8029728  67.2970734  62.9606209  23.6141262  67.8157959
  62.2365837  23.2065811  66.5506210  48.9086342   5.8942909  19.3373241
  48.4444237   5.1569152  18.9410706  49.1819000   5.5716848  20.1960926
  15.9868822  62.9640312  77.9388275  15.5238886  63.7206688  77.5791473
  15.7937231  62.9883461  78.8760147  22.7535744   9.6632605  18.6232452
  22.0471478  10.3038855  18.5408306  22.4188404   9.0161390  19.2440662
   8.2107830  46.8225479  84.0047836   7.9389410  46.2439575  83.2923431
   9.1664057  46.7676468  84.0065308   6.6063218  14.4458694  12.4104729
   6.7003970  14.7796621  13.3026419   5.8185072  13.9029827  12.4396877
  50.6265945   1.0537096  51.4328308  50.3554153   1.0096060  50.5159073
  49.8340225   0.8450028  51.9273033  70.9079285  56.0904007  84.2836533
  70.4482651  55.2750740  84.4841156  71.8189316  55.8263321  84.1549072
  50.1601906  68.2560730  83.3896866  50.9047089  68.4908218  83.9435959
  50.3850250  68.6032410  82.5264587  40.9114685  64.2204895  35.0903397
  40.3366966  64.3917542  34.3443260  40.6742783  64.8883438  35.7337189
  36.1156693   3.3466043  12.2945013  35.5361290   3.7102621  12.9639177
  36.2101898   2.4248393  12.5345993  30.5829258  37.1967163  64.5543289
  29.7140312  36.8253822  64.4014740  30.8228130  37.5968475  63.7185173
  30.0395947  18.8800297  10.2244959  29.4168472  18.3994141   9.6791277
  30.8251362  18.3331051  10.2298651  28.0856094  65.9186401  58.8359299
  27.9959621  66.3104172  59.7046661  27.1854992  65.7993622  58.5329361
  64.6783905   2.8755989  45.0438652  65.2104416   3.5469093  44.6166763
  63.8186569   2.9521530  44.6300621  47.8559875  64.7881165  19.5780182
  48.5966072  64.6121674  20.1583233  48.2573586  65.0068588  18.7370186
  12.6593752  12.5709696   6.2031360  12.0287237  11.8803635   5.9992404
  13.4794216  12.1054945   6.3677192  53.6073761   3.7083731  37.9924545
  54.3435326   3.2499776  38.3976479  53.4092522   3.1969142  37.2079887
   5.1782136  32.6574936  22.9766693   4.4553790  32.3263016  23.5096359
   5.7848682  31.9200058  22.9109993  43.1057854  66.3230972   6.0420022
  42.3131981  65.9577560   5.6488671  42.8376045  67.1825027   6.3671823
  54.6582756  61.4728508  25.5225334  55.3765144  61.7671013  24.9623699
  54.5847778  62.1511726  26.1938839  12.8512239  23.8409576  83.0419693
  13.0701790  24.4146576  83.7762451  13.5342636  24.0109119  82.3932800
  50.3674011  36.7750511  80.5477142  50.9165115  36.0312691  80.7957077
  50.0340462  36.5477676  79.6797028  68.6160660  49.8314934  61.3002052
  68.8948212  49.2317276  61.9921646  69.2431183  49.6875000  60.5914688
  52.2750244   4.3308263  80.8438187  52.1071243   3.4014649  80.6878433
  52.8767166   4.3438869  81.5881500  17.1981754  41.5942192  52.8158684
  17.3745708  41.9080620  51.9289551  17.2805805  40.6425819  52.7540054
  55.9525261  70.6161880  39.2329369  56.3159409  70.2655869  40.0461006
  55.5931625  71.4685364  39.4790993  15.7652235  70.3657074  22.7790661
  16.3458309  69.6076126  22.8455334  15.9615917  70.7433472  21.9217091
   3.6004214   7.5430369  83.4681168   4.2582545   6.8491602  83.5130920
   3.0737050   7.4253273  84.2586517  18.5662174  54.7671852  87.6810837
  18.8152943  54.9778900  88.5809708  18.0867767  53.9417801  87.7522812
  23.2035122  64.9474487  23.7348499  22.2982445  64.8702393  23.4335804
  23.6498718  65.4213562  23.0331364  22.8397846  47.4048805  76.4902191
  22.9613514  46.7318268  75.8205490  22.6001644  46.9177971  77.2786102
  10.7228470  67.5959778  21.9631271  11.1167803  67.3470154  21.1270275
   9.7834826  67.6344604  21.7832851  60.5987091  59.4958916  40.8572350
  61.4539223  59.5562325  41.2829094  59.9791031  59.3878937  41.5788002
  22.0612373  59.4335823  81.0841904  21.5405083  58.8120041  80.5755539
  21.7299213  60.2930412  80.8238220   0.6907088  68.3941574   1.8278027
   1.0070971  67.5166321   1.6131611   0.0345579  68.5829391   1.1569368
  81.7818451  13.9507704  86.6985321  82.1663589  14.8018589  86.4887085
  82.1867142  13.7034378  87.5298767   0.1150583  46.4149590  20.6016102
   0.7495645  46.6120186  21.2906685   0.6318040  45.9975319  19.9124374
  57.3404732  18.1455326  23.7154064  56.8785820  18.3463707  22.9014339
  58.1980553  18.5580006  23.6121941  50.8351669  21.7514210  88.5010834
  51.2226753  20.9512310  88.8557205  51.0272598  22.4216251  89.1569519
  30.2137966  61.1551170  87.8569489  30.7436829  61.6135902  87.2048340
  30.1821194  61.7534409  88.6034317  78.0556412  69.7376099  57.8946686
  77.4236755  70.4145203  57.6524811  78.2699127  69.3035202  57.0689087
  72.8164062  51.2389946  80.8369827  72.2809143  51.6311417  80.1472702
  72.2717209  50.5370979  81.1931992  21.5810833  60.3786621  42.9615173
  22.2047367  60.5525093  43.6665497  22.0479622  59.7899246  42.3685226
  82.1953125   3.3010476  56.2499084  81.5603638   2.6030400  56.0890923
  82.9699097   3.0395877  55.7520447  43.7493057  29.5495758  80.4530182
  43.6132202  30.3266964  80.9950485  44.4805031  29.7818394  79.8806229
  34.5125237   6.0204296  76.4691620  33.8136826   5.9364896  75.8204651
  35.0069885   6.7910800  76.1901779  29.7740726  32.5113182   9.3996487
  30.6546154  32.8526497   9.2435350  29.3248386  33.2136459   9.8699217
  86.3181686  14.8512278   7.7872777  86.7978745  15.6182871   7.4746542
  86.0418243  14.4000578   6.9895859   1.6431326  30.3903732  78.4653091
   0.9368132  31.0113087  78.2870331   2.4307518  30.9318790  78.5168610
  80.8486786  37.9582596  71.0888977  80.9175491  38.7707787  70.5876007
  80.7243881  37.2781868  70.4268723  24.6373425  39.9647026  54.2413597
  25.5449333  39.6636162  54.2844582  24.7047215  40.9094009  54.1026802
  76.0607910  46.9159546  33.4015274  76.7026215  47.3583298  33.9570351
  75.7816620  46.1578865  33.9150047  74.4217758   7.9105954  70.2274857
  75.3483810   8.0488071  70.0311813  74.1262436   7.2887144  69.5625381
  86.4780197  25.0241642  70.9623642  86.9036942  24.9745827  71.8182755
  85.8280334  24.3216457  70.9770737  79.3233948  62.4424248  68.5023270
  79.0795670  62.2777748  69.4131927  79.5001984  61.5738678  68.1409607
  34.8546906  19.2995701  67.5280151  34.5050354  20.0097942  68.0661240
  34.1737823  18.6270866  67.5471039  39.7242050  68.1317291   9.4250412
  38.9587555  68.3029175   8.8763885  40.3524437  68.8104095   9.1781664
   5.9149308  58.8810616  81.5779724   6.4804292  58.1225777  81.4325638
   5.2293797  58.7993088  80.9149780  57.4189110  34.6384506  72.8144913
  57.3745155  34.0343628  73.5556641  56.5717163  34.5455933  72.3787460
  49.9496651   6.5846338  83.6755981  50.1783028   6.5858107  82.7461090
  49.5878754   7.4564919  83.8343658  20.9189510   5.3922243   7.1046267
  20.2592506   5.3334246   7.7956905  21.7509727   5.4604483   7.5729418
  48.6019669  35.0386047  15.6931524  49.0913582  35.8610268  15.7119198
  48.1877518  34.9866714  16.5545216  18.6706505  60.1457024   5.5995798
  18.2870693  60.8763695   5.1145821  19.3585587  59.8111382   5.0241847
  80.6236267  44.1366196  16.3433876  80.0118179  44.8090744  16.6429253
  80.8559875  43.6537895  17.1365547  85.4514008   6.7013655  52.6666145
  86.3390121   7.0078731  52.8521500  85.0561523   6.5757761  53.5293083
  50.0454979  32.1060219  65.6208725  49.2268181  31.6441135  65.4402237
  49.8650169  33.0153847  65.3827209  58.5728340  62.7965279   5.6192107
  58.1633759  63.0622559   6.4425950  59.2003746  63.4935417   5.4278970
  21.6382465  57.5478020   1.1538796  21.6106815  58.4952164   1.0201868
  22.5573597  57.3593063   1.3434359  50.5331573  57.5509567  21.1757298
  50.3988533  57.9490433  20.3156586  49.8042259  56.9381523  21.2724800
  73.6271820  40.1108513  42.9878616  74.4215164  39.6493797  43.2567635
  73.8397064  40.4719925  42.1272545  44.4185600   2.2727830  32.2303505
  44.2648277   1.5588938  32.8491859  44.0769730   3.0502977  32.6719589
  66.0669632   8.5322914  35.4621544  65.5088348   8.4008284  34.6957054
  66.9223709   8.7617149  35.0990143  48.2176819   6.5918040  66.7311935
  47.3945656   6.8687344  66.3286819  48.3376503   5.6896105  66.4347382
   2.9908655   8.9207258  71.5819550   3.2026267   9.5446415  70.8876038
   2.7787659   8.1101608  71.1191025  79.6118546  55.9235649  10.7332182
  79.3029327  55.7910728   9.8369799  79.9119644  55.0588875  11.0134001
  42.1055450  54.2836418  77.7851562  41.3863564  54.3220978  77.1546707
  42.3217812  55.1999359  77.9580154  81.6623688  20.9643974   8.3436394
  81.6248627  21.2413712   7.4281569  80.9686279  21.4643536   8.7737513
  60.4113274  67.2964172  52.3795586  60.7391930  66.8814087  53.1773682
  61.0921211  67.9249573  52.1393700   5.4408703  67.9550858  14.8356190
   5.5929375  67.1091309  15.2568903   5.8458200  68.5920334  15.4242954
  71.5340881  53.0968399  76.3502045  71.2743301  53.3013382  75.4519043
  72.3573761  52.6172981  76.2581863  43.2843094  55.6231613  25.5375614
  43.3117447  54.7651443  25.1141376  44.0518608  55.6327019  26.1094055
  72.0390320   7.4202361  76.0000992  72.5242844   8.1264133  75.5733948
  71.2315216   7.8343787  76.3044586  18.6836185  30.5754547  81.7072678
  19.5477467  30.2376366  81.9426270  18.3198318  29.9137325  81.1190338
  82.9015427  28.0947018   6.2784019  83.7396317  28.3999405   5.9310236
  82.6719971  28.7375507   6.9494343  52.8083153  36.1742020  75.2341080
  53.3756790  36.2349434  76.0026398  51.9204102  36.2348938  75.5864944
  64.2129288  52.1789589  21.7753849  64.1188660  52.4056206  22.7005920
  65.1558685  52.2147026  21.6147003  35.0078735  50.7919273   2.7087123
  35.6884460  51.3255157   3.1189983  34.8488579  50.0845490   3.3336639
   0.4191315  51.2552948  63.6708832   0.4258050  52.2008133  63.5219383
  -0.5092510  51.0242691  63.7019386  70.9670792  27.1629028  14.7246399
  71.2485657  28.0099220  14.3788748  70.8503418  27.3139248  15.6626139
  50.4480438  59.9671059  78.3678818  49.6366196  60.4633331  78.2602615
  50.8497391  59.9735336  77.4990692  50.2934837  20.2739582  32.8348618
  49.3563538  20.4649563  32.8740845  50.6476936  20.6456432  33.6427078
  75.3305969  51.6091843  79.0956650  74.6709747  51.0967369  79.5631409
  75.6523056  51.0199966  78.4133148  44.8673401  65.9917603   8.3451157
  45.4876328  65.4802246   7.8256941  44.0217896  65.8451767   7.9210978
  57.3335609  41.3454056  29.2522545  58.0309296  41.4998398  29.8894787
  57.5589066  40.5070267  28.8490467  42.3984413  54.5798187  58.6391220
  41.5165215  54.6064720  59.0102577  42.2955589  54.9246941  57.7521553
  11.5204124  52.6860352  42.5944252  11.6704922  52.5718918  41.6559830
  11.1315804  53.5573807  42.6705589  28.3588333  21.5693130  79.9963531
  29.2100487  21.1884613  79.7804565  28.5437889  22.4950867  80.1543655
  63.4705582  49.1655884  29.9910946  64.1917038  48.7182541  30.4338932
  62.8152924  48.4822197  29.8501530   5.3189816  15.0595560  66.0206451
   6.0334406  14.4319744  65.9114532   5.3758144  15.3301287  66.9370422
  42.4642181  62.3587494  26.9366608  41.6788673  62.8992043  26.8508415
  42.3987961  61.7259254  26.2214794  59.4683266  56.1249084  31.7255783
  60.3095093  56.5624352  31.8567734  59.1373329  55.9718971  32.6105995
  52.2448883  30.4544945  45.5169334  51.6357765  31.1174736  45.1918564
  52.7825623  30.2302685  44.7574234  66.7206345   8.9520864  49.1596375
  66.1145782   9.2623425  49.8324471  67.5880737   9.0646038  49.5483704
  41.6181564  29.5354843  89.1049042  40.9843712  29.2461624  88.4485168
  41.9921150  28.7249107  89.4503860  49.5114403  52.3859558  58.3921890
  48.8251495  51.8364792  58.0136223  49.4222603  53.2254257  57.9410019
   9.7053261   6.7728462  20.0113277   9.3410406   7.6579599  20.0012398
   8.9506550   6.2050037  20.1670761  37.4454041  55.5580444  43.0708427
  37.4717751  55.6273766  44.0251656  38.2766304  55.9334373  42.7803650
  22.7194843  31.9157257  65.8797226  22.9587402  31.0747166  66.2692032
  22.0204868  32.2498131  66.4418869  51.9424324  21.3057919  34.7466888
  52.3331871  21.9228058  34.1279488  51.9702644  21.7606907  35.5884247
  66.9609299  40.7340240  22.3607540  66.5100098  39.8951759  22.4568424
  67.7259598  40.5342903  21.8212471  43.6893883   3.2851002  79.0687180
  44.2706985   3.6667771  79.7264709  43.3226662   2.5099678  79.4940643
  38.8493729  49.4684410  25.7046986  39.5984116  49.1587219  25.1955376
  38.2722549  49.8753128  25.0584602   2.5356760  21.4249897  85.6080933
   2.8108320  20.8687420  86.3368683   3.2482717  21.3570728  84.9726257
  79.9214706  10.7894211  70.1194534  80.1162949  10.6512671  71.0463791
  79.7533493   9.9116735  69.7766342  63.7408371  43.0127945  54.6738319
  63.4085236  43.0185165  55.5714760  63.6466866  43.9181862  54.3778000
  19.3817158  11.5071001  66.4275436  19.1289711  12.2392178  65.8650894
  19.7021561  10.8390217  65.8215561  56.9344711  27.0718746  59.0199356
  56.6099892  26.4004536  59.6200485  56.3569756  27.0122166  58.2589035
  58.2786484  56.1742134  34.2335815  58.9945488  56.7366409  34.5292091
  57.7007027  56.7595329  33.7440834  76.3293304  69.3113556  26.7674522
  77.1082001  69.5697861  26.2746944  76.5817642  68.4985123  27.2053986
  59.2744827  40.0279617  40.5084991  58.7083435  39.2847557  40.7167435
  58.8332977  40.7820778  40.8995171  46.6634521   3.3406649  57.6155281
  46.3919106   2.5768678  57.1064987  47.6198616   3.3018386  57.6139832
  33.1942825   9.1520662  79.9620361  33.8243675   8.8726625  79.2978363
  33.5789871   9.9431801  80.3393631  11.6712923   7.4382944   8.2597456
  12.5744600   7.1963143   8.0548897  11.6177006   8.3691130   8.0430984
  74.0040894  24.5338306   5.6039939  73.0677872  24.5873642   5.4124160
  74.4287109  24.6254635   4.7510386  18.9585819  68.0031738  85.2919540
  18.9408417  67.8044128  84.3557816  19.7538280  68.5223236  85.4115524
  82.9281387  36.1086082  84.8448563  82.3380585  35.6077003  84.2817154
  82.3606567  36.4683495  85.5266113  16.2698612  69.6921997  -0.1965235
  16.2592411  69.8534317   0.7469403  17.0451202  70.1577301  -0.5103509
  81.5302963  15.9085350   3.4136872  82.1933289  16.2354832   4.0217357
  81.1272507  15.1714430   3.8724706   3.1592450  61.7231216  15.7513542
   3.7916410  61.4781380  16.4268475   3.6776114  62.1901016  15.0960236
   1.2180356   7.7207289  35.8191528   1.5204905   8.5744190  36.1289368
   0.3243491   7.8791428  35.5150795  85.7157516  69.0511475  10.4501514
  86.5139389  69.5031738  10.1766682  85.1684875  69.7392807  10.8285818
  39.4194374  67.3949051  62.2538795  38.8478775  67.8696594  62.8573380
  40.2994156  67.5196762  62.6092682  36.6366119  51.9375648  63.5731697
  36.2813911  52.7594910  63.2348022  37.3389091  52.2060318  64.1655731
  10.6162853  40.7341080  80.8600311  11.4634809  40.2901154  80.8969345
  10.5888700  41.2643509  81.6564789  44.1979790   3.6394305  76.4776230
  43.9068680   3.5844195  77.3878174  44.8952560   4.2951150  76.4883804
  52.5361023  37.6445045  43.6147003  52.8141518  37.4095993  42.7294083
  52.6853523  38.5883751  43.6700897  49.2337914  34.5744209  65.6565323
  48.7354355  34.5382843  66.4729691  48.8963623  35.3474388  65.2039719
  84.2254868  59.3846741   4.8260436  84.9396591  60.0017662   4.6667166
  83.7433167  59.7612457   5.5622120  79.4038239  43.3219109  77.5190964
  80.0716629  43.9867630  77.6870117  79.3440933  42.8302078  78.3381729
  25.4329395  49.7445488  74.7774506  24.8388329  50.1656456  74.1562042
  25.6597023  48.9111862  74.3647537  55.5702133  70.9886322   5.1321955
  56.3040390  70.4335480   4.8683491  54.9467430  70.3852463   5.5364776
   0.8927768  62.7478447  82.4550400   1.0629843  63.6351700  82.7711411
   0.9165311  62.2043495  83.2426224  69.7848587  14.4785824  12.5839520
  70.6501465  14.6313143  12.2042341  69.7108307  13.5256548  12.6357327
  24.1221447  53.5302734  30.6564198  24.4683666  53.1024132  31.4395523
  24.0517998  54.4535065  30.8991737  81.5907440  34.7630501  26.1722126
  81.5498352  33.8997917  26.5837193  82.5258102  34.9241600  26.0460205
  21.6303635  25.5981483  11.9907475  22.1556034  25.0084209  11.4498453
  22.2596207  26.2325611  12.3339529  43.9318581  24.7587070  25.4738426
  43.1620598  25.2237301  25.8015556  44.2938309  25.3376617  24.8030071
  45.3057861  69.6708832  43.6454582  45.8418770  69.3889236  42.9042892
  44.4878540  69.9709625  43.2490120  79.7377930   0.5288535  23.6787014
  79.3147583  -0.3292078  23.6470108  79.5276260   0.9307843  22.8357811
  38.7203636  12.1199512   7.3497920  39.5290184  12.5462160   7.0658774
  38.0222778  12.6532202   6.9696188  68.3349838  69.5450974  32.4670410
  68.6471710  69.3181305  31.5911083  68.8528137  70.3110352  32.7148705
  79.3280945  69.7659378  16.7749596  79.9161072  70.4675293  16.4952431
  79.8948059  69.1486435  17.2375889  10.2647152  49.1785393  82.1075211
   9.6476545  48.6010666  81.6580811   9.7493792  49.9543686  82.3283157
  66.1813889  20.4019756  11.6608076  66.7753525  20.8351803  12.2738075
  66.7104645  19.7107697  11.2626324  15.2327976  13.3119993  86.4819031
  15.8802910  12.9685974  87.0975876  14.4573374  12.7686110  86.6219864
  42.3136559  22.8334904  64.2883911  42.1232986  22.5538578  63.3929558
  42.0262527  23.7459583  64.3205643  71.5210876  43.4817886  32.7197685
  70.8796463  43.0068779  33.2481995  72.0615540  43.9459114  33.3590813
  13.9946356   5.1462650  63.8227768  14.2173595   5.2008142  64.7521057
  14.6580639   4.5648599  63.4512100  26.3482914  31.6870575  74.4769974
  25.8931541  31.5365372  75.3055038  27.2752495  31.7132626  74.7142639
  78.2648926  27.0137558  26.2375259  78.7064667  27.2501335  27.0532265
  78.6815338  26.1951809  25.9681282  60.0120926  33.5384598  16.4465752
  60.1755295  33.6856003  17.3781700  60.2934456  32.6364250  16.2935925
  49.3760796  48.6067581  86.2624741  49.2913284  48.1269112  85.4385834
  48.4775963  48.6991005  86.5793839  62.6811638  45.5172234  33.6016693
  62.7030373  46.4593163  33.7696457  62.8378716  45.4380074  32.6607094
  25.3723049   2.2132509  69.8620605  24.5145741   1.9064039  70.1559601
  25.6793365   1.5306569  69.2653809  66.0619812  39.0079689  85.5519943
  65.4750443  39.2367744  86.2726822  66.7349091  38.4599991  85.9558868
  53.6493797  49.8158607  74.8936310  53.9316177  50.4817467  75.5206680
  54.3304901  49.1445427  74.9343414  52.7940598   5.5160952  77.1039886
  52.5796013   6.3829088  76.7592087  51.9446411   5.1115584  77.2802429
  41.5607338  62.2748260  43.8378944  41.0178070  62.2318192  44.6250458
  41.1250763  62.9204102  43.2814255  22.6369286  10.0894604  42.2090683
  21.8103256   9.7249403  41.8927116  23.3099308   9.6200228  41.7161903
  63.6615372  11.8995953  27.5352859  63.2944527  11.7866907  28.4120598
  63.9829674  12.8011484  27.5244751  48.9831276  58.4852600  81.8829422
  49.2207718  57.7233734  81.3544693  49.6595306  59.1334229  81.6864853
  80.7702332  29.4911995  54.5307198  79.9113312  29.5656815  54.1148300
  81.3895264  29.4797306  53.8009415  29.9787941  42.5946083  45.0001297
  29.6309509  43.4619293  45.2074661  30.9269047  42.7200356  44.9603157
   0.1452508  28.2625599  20.4315586   0.2878257  27.5758095  21.0829258
   0.4994971  29.0541649  20.8366585  15.7908010   1.5331885  23.5721416
  15.4842148   2.0618474  22.8354225  15.9056950   0.6561940  23.2062016
  72.7719498  61.2686996  55.7521935  72.2648773  60.4648361  55.8658104
  72.2751007  61.7766571  55.1108284  55.9301491  16.6681576  65.4456482
  55.3404083  17.4058170  65.2897720  55.9759941  16.5954685  66.3989868
  32.9681816  12.6661386  72.0922241  32.8851814  12.0565863  71.3588791
  32.8478127  12.1221943  72.8705978  39.8706703  69.9394302  27.8961086
  40.5501442  69.7246552  28.5351868  40.3308983  69.9668045  27.0572567
  74.5946045  54.9501534  54.2845764  74.6020813  55.9071922  54.2687836
  74.3643646  54.6976471  53.3904495  69.9490738  23.9324760  19.7885666
  70.6894989  24.4652081  20.0787315  69.7846451  23.3338299  20.5171394
  62.8189774  22.1134815  84.9583054  63.7757874  22.0865612  84.9535370
  62.5973740  22.8536854  84.3933105   9.0479517  36.7029495  41.5101814
   8.5949001  37.4284744  41.0805435   9.9691362  36.9630432  41.5116272
  20.6651306  56.9097519  16.3197498  20.0694199  57.3382378  16.9343739
  20.1115875  56.2939415  15.8395433  47.7773552  43.6218414  40.5089111
  47.6893005  44.5369644  40.7754211  47.2062340  43.1417351  41.1085358
   4.9962907   3.5030568  88.6341400   5.9416533   3.4135640  88.7546082
   4.8194470   4.4279633  88.8059158  21.4033813  45.4123650  66.1204376
  21.6424370  44.7037201  65.5230255  22.1411476  46.0207367  66.0777740
  65.5239639   0.0812065  54.9803505  65.3117371   0.9876494  54.7577438
  64.9716873  -0.1151791  55.7370911  19.8520775  41.5673065  32.8454895
  20.7699852  41.7848396  32.6831360  19.8826599  40.8844604  33.5155792
   2.2837846  58.7074242  88.6898651   3.1623335  58.4393463  88.9591599
   1.9389753  57.9529037  88.2123337  33.9282341  33.0670776   5.9775314
  34.4786148  33.2989731   6.7255526  34.1637726  33.7018814   5.3009381
   2.4594579  45.1371994  19.5616608   3.2817106  45.5929337  19.3815517
   2.2778637  44.6452980  18.7608547  61.3684769   0.6439309  51.9060326
  60.6212540   0.1824115  51.5253868  62.0636139   0.5527173  51.2543449
   3.7220192  67.2727051  39.0248337   3.8970659  67.3269119  38.0853386
   4.5893407  67.2490616  39.4290924  41.6367149  28.8760395  78.8672943
  40.9967232  29.5611038  79.0605011  42.3123322  28.9837379  79.5367508
  44.5140724  15.9439259  11.2406950  44.0025635  16.4551620  11.8677750
  44.9817009  16.5989475  10.7225227  54.6796799   9.0119371  75.7415161
  53.9857597   8.4154720  76.0224762  55.0795403   9.3150654  76.5566635
  75.5807343  26.6425648  30.1750660  75.2168350  27.4274597  30.5846443
  75.3139191  25.9261780  30.7511158  85.5212784   8.0111275  62.8046684
  84.6444473   8.3087168  63.0472412  85.8070374   7.4779963  63.5465202
  48.1892738   4.7004414  78.3577194  47.9300537   3.9381099  78.8752975
  48.8456841   4.3638430  77.7477570  73.8695984  48.7183342   9.6074638
  73.2027206  49.2098618  10.0869532  73.4444427  47.8893394   9.3878250
  76.1067657   2.1404710  40.1689491  76.0317688   1.1984193  40.3210869
  75.9818573   2.2413878  39.2253151  11.3830643  61.0695190  58.8454781
  10.5060339  60.9173431  59.1974640  11.2344065  61.5524597  58.0325203
  65.7582397  21.1879444   6.3976979  66.0704422  21.9824581   6.8307176
  64.8890533  21.0382252   6.7696352  75.8759613  66.4166260   2.2824636
  75.1194534  66.8654938   2.6598840  76.5162125  67.1119537   2.1313882
  19.7477932  65.0792618  66.4376907  19.0209637  64.5533676  66.1039429
  20.3357525  64.4436340  66.8457489  44.3969231  22.1316528  57.5441017
  43.5715065  21.7900429  57.2002678  44.9408226  22.2691765  56.7685471
  42.1146774  64.6869507  81.1993561  41.9651031  65.1659927  82.0144501
  42.4727249  63.8444176  81.4789581  58.3400536   3.6126111  52.3942184
  57.5224190   4.1057324  52.3268318  58.8087425   4.0240469  53.1203613
  16.4940529  12.2349586  71.9153290  15.7180815  11.8200073  71.5386124
  17.1733856  11.5624723  71.8653412  48.7981186   4.7846761  39.6807442
  49.7388382   4.9357619  39.7726746  48.5790215   5.1524014  38.8245850
  74.7930756  60.8987083  23.5186749  74.2964935  60.6468468  24.2972660
  75.1077347  61.7820892  23.7106647  35.3699837  61.6094360  58.5732231
  35.8781776  62.1429482  57.9622116  35.1587334  60.8165169  58.0803871
  20.6619720  47.6141052  59.0342598  20.9503040  47.7934036  58.1393013
  20.7620239  48.4498291  59.4900932  78.3334122   6.4230537  75.0955811
  77.6482468   7.0877204  75.0248871  78.2252655   6.0601511  75.9746933
  74.6992264  19.4227619  39.4618530  74.2598877  18.7321186  39.9580688
  74.3426285  20.2368774  39.8172188   0.7493694   9.8958387  80.1542892
   0.8980529   9.4325066  80.9785767   0.4909635   9.2107964  79.5377121
  18.7024231  56.5573235   5.0867419  17.9865990  56.4202042   4.4662371
  19.4567375  56.7730141   4.5383639  50.3850479  30.0441246  38.9026489
  50.3789520  29.6182880  38.0454102  49.7451401  30.7515430  38.8232269
   3.1118970  53.1904221  81.3477249   2.7630112  53.1546326  82.2383652
   3.9227242  52.6832695  81.3875580  60.3231468  70.3364487  69.7043686
  61.1201820  69.8227692  69.5735931  60.3348427  70.9810333  68.9968262
  24.6005650  45.7394829  56.8831215  25.3863430  46.2723007  56.7611008
  24.8759060  44.8512192  56.6563988   5.5851054   1.6147810  83.7099533
   6.2173591   1.4558787  84.4108353   5.0341334   0.8320900  83.7024231
  35.4552994   7.9973512  84.1711578  35.2870140   8.8603258  83.7927628
  34.8455238   7.4144335  83.7188187  27.9062138  61.0368919  24.5632305
  28.6277122  60.4375572  24.7542038  27.7948895  60.9829521  23.6140575
  59.1817131  34.8240166  55.6804810  59.1523285  34.0051727  56.1753159
  60.0624809  34.8462906  55.3063393  80.3290253  30.9171410   6.7856030
  80.8748550  30.3973961   7.3756595  79.8624954  31.5225277   7.3618736
   7.1579385  24.3301868  71.0079956   6.9128404  23.5276165  70.5475159
   7.4303102  24.0342922  71.8766098  21.7818089  59.9915199  15.9774017
  22.0752831  59.0986252  15.7961798  21.0983467  60.1555252  15.3276215
  16.9561749   8.5381413  83.8413239  17.2264118   7.7620144  84.3320694
  16.4445515   9.0509977  84.4669876  78.0011520  52.0745392  22.1464157
  77.1883926  52.1243248  22.6495838  78.6069031  51.6005173  22.7161484
  52.0067635  61.3576355  27.4516697  51.6274338  61.9289932  28.1194210
  51.9435005  61.8621674  26.6406975  61.1639099  63.9254150  43.5405045
  60.3672371  63.4326096  43.3438110  60.8520432  64.7955780  43.7890816
   0.5020404   6.0944228  38.6517181   0.2145717   5.6839375  39.4672508
   0.5121756   7.0316615  38.8459167  68.2843170   0.8212389  80.6206055
  67.6210403   1.0868934  79.9836426  68.0426636   1.2817211  81.4242172
  55.6875496  70.1482925  50.9080009  55.3630066  70.7344360  51.5916252
  56.3755150  69.6387405  51.3361359  86.1652298  36.4299164  44.7989464
  86.1894760  36.2475510  45.7383041  85.2462540  36.3161469  44.5565224
  10.3341122  26.5198555   6.9552865  10.3019552  26.7465782   7.8846917
  10.1799393  27.3482628   6.5011921  65.1189499  54.4834976  15.8920460
  64.6429672  54.6036453  15.0703173  64.5626984  53.8998032  16.4079075
  81.1689987   0.1263710  15.4774752  81.1671295   0.4435670  16.3805885
  82.0726624   0.2434385  15.1843710  74.2834167  71.3759308  86.2006683
  74.7663422  70.5552902  86.1028290  73.3654404  71.1092224  86.2498398
  63.6569901  45.7543869  54.2465057  62.8897820  45.9731331  53.7175674
  63.9521828  46.5939445  54.5989761  67.3717880   5.4751225  66.6167526
  66.9522247   6.3322763  66.5426636  68.2642136   5.6692491  66.9033356
  53.9469566  41.5795212  47.5414658  53.6165085  42.4658279  47.6880760
  53.3000374  41.1753044  46.9632492  72.0817871  27.7391415  60.8566437
  72.1169739  26.8137302  61.0987320  72.9602051  27.9350071  60.5306740
  67.8968124  13.3196201  34.1991119  67.8451538  14.1514292  33.7283058
  68.7828598  13.0013018  34.0264511  48.8832932  55.0250549  56.8472214
  48.0328865  54.9865875  56.4095421  49.5150681  55.1232567  56.1348686
  40.6751099  49.2607117  88.7971039  41.2582512  50.0096130  88.6733322
  40.4127731  49.3107719  89.7162933  77.2402420   4.6278419  64.2463531
  78.0403290   4.7997828  63.7498436  76.5321045   4.7891464  63.6228447
  81.2041245  39.6675148  63.8118095  80.3603134  40.0843201  63.9864349
  80.9780121  38.7973175  63.4833870   3.4332476  49.3630981  36.9245529
   2.8161435  49.3943062  36.1935005   2.9857628  49.8219757  37.6354828
   6.2220855  25.0906391   1.2583610   5.3834496  24.6443596   1.1410754
   6.5219183  24.8134003   2.1240807  61.4464149  18.8136559   0.8425331
  60.8119354  18.4082222   0.2515230  60.9116516  19.2369251   1.5141759
  81.7401276  40.3045273  29.1357670  81.7797546  39.5108604  29.6693897
  81.0767746  40.1142845  28.4724369  55.9613457  46.3828926  24.0121460
  56.8476715  46.7057381  24.1747131  55.9313698  46.2306786  23.0676003
  15.1765852  46.8905907  19.0877991  14.5546780  46.7141914  19.7937374
  14.9690447  46.2395248  18.4175186  81.8862762  57.7610321  68.5484695
  82.1913681  58.1145058  69.3840561  81.9519730  56.8116837  68.6517105
   2.2744596  62.4982109  70.5980530   2.3579457  61.7560768  69.9993057
   1.3470864  62.5118446  70.8347473   9.5698137  30.0129414  63.4528198
  10.3450289  29.4710140  63.5997505   9.0564365  29.9191685  64.2552414
  21.3843231  49.4107513  39.8850212  21.7053280  50.1890221  39.4295235
  21.9363480  49.3445129  40.6641922  41.8245888  36.5099640  16.2730618
  42.3095551  35.6915436  16.1670761  41.7397423  36.8549194  15.3842220
  33.0166588  61.5132103  81.1646500  32.4505577  60.8674393  81.5874329
  33.7744026  61.0094452  80.8675385  70.5852890  53.4783287  56.0546112
  70.1961288  52.9022217  55.3966751  71.5211334  53.2796669  56.0234795
  13.1675415  27.1143608  59.5579224  12.2912188  26.7518120  59.4281235
  13.6042109  26.4855385  60.1324921  58.1098442  66.6903915   9.9542589
  57.2365532  66.8542175   9.5982389  57.9513474  66.3932419  10.8502579
  74.4668427  46.9738350  36.3608627  73.8025055  46.5429230  36.8986397
  74.2813644  47.9082489  36.4541512  68.3408279  59.7099915  36.4425926
  67.4371948  59.7705879  36.7524376  68.6271820  58.8362465  36.7086754
  59.1879578  37.7563210  10.1505117  58.2649879  37.9359703   9.9713736
  59.6642265  38.3108406   9.5325289  86.2929230  20.4340267  84.6080551
  85.5855789  20.1967430  85.2077179  86.9275131  20.8950176  85.1567001
  73.0671539  68.8433075  18.6033649  73.3376312  68.3925476  17.8034382
  73.8288574  68.7853928  19.1801567  80.7306976  15.5008774  30.7574043
  80.0288696  16.1327133  30.6010246  81.1666794  15.4125309  29.9098492
  64.5149612  19.7290840  28.2852936  63.6075401  20.0256481  28.3550892
  64.8734207  20.2259312  27.5498486  26.1058102  50.1163177  42.6053963
  26.3549995  50.3702774  41.7167816  26.6143951  49.3243599  42.7796783
  83.1660233  12.4632330  24.7780037  82.8911591  11.7066374  25.2959270
  83.6723404  12.0888243  24.0571060  79.3885498  40.0996933  49.6228142
  80.0341339  40.8060303  49.5995178  79.9099350  39.2975540  49.5917778
   1.0888708  61.4184113  84.8068848   0.2023912  61.2857933  85.1427383
   1.6561773  61.0082512  85.4596939  28.2810841  47.0622787  77.1570740
  28.8667202  46.6378632  76.5300751  28.8644905  47.4143524  77.8293228
  27.8400307  67.2165375  52.9405518  28.5533390  67.8047485  52.6926918
  28.1775608  66.7359772  53.6964378  19.1521683  51.0828476  38.6006165
  19.9189014  50.5592194  38.3678780  18.5165501  50.8971786  37.9094238
  51.9848938  11.6479340  50.6239090  51.9833145  10.7455578  50.9432030
  52.2222939  12.1722136  51.3887634   3.8432720  35.8075409  65.7855988
   3.9410381  35.0182762  65.2529297   3.0286441  35.6707115  66.2692184
  11.5116434  20.4520264  55.0569077  12.0242290  21.2596512  55.0919762
  10.7006655  20.7020931  54.6141739  50.1294556   8.9346600  59.2855110
  50.9432564   9.4271002  59.3925896  49.6472511   9.0893669  60.0977783
  18.9597607  32.8501816  83.7311859  18.6371822  32.2339058  84.3887482
  18.5733509  32.5475998  82.9093857  47.4296188  65.3941345  53.9213943
  48.2310829  65.8551636  53.6737366  47.5227432  64.5251923  53.5308723
  17.6991730  25.6549530  53.1522942  18.5992413  25.3852119  52.9696808
  17.1614952  24.9369888  52.8181419   1.4095339  52.5484962  11.9822302
   1.7336307  53.1551323  11.3165092   2.0340571  51.8232079  11.9697304
  85.6898727  12.1771450   4.6646476  85.7714386  12.8590994   3.9979260
  84.8029175  11.8357239   4.5507860  33.4191246  20.2211895  77.3915329
  33.2462387  20.9637966  76.8128433  33.8056870  20.6127987  78.1747589
  43.4031792  17.8135509  12.8953390  43.7565346  17.9318619  13.7770271
  43.3724251  18.6973572  12.5290442   0.8520683   1.2329410  75.9655838
   1.7087321   1.6280556  76.1275787   1.0511464   0.3698599  75.6026917
   6.8968577  36.8672295  24.7139797   7.5399013  36.9364777  24.0083370
   6.8837972  35.9361343  24.9356060  69.7224274  44.5028648  16.6052570
  69.2081299  44.1973991  17.3525276  70.2061005  45.2579956  16.9400253
  43.8157005  31.2622185  32.4409103  43.4973717  31.3821793  31.5461979
  44.7563629  31.1147518  32.3427010  71.1225510  27.7393684  21.9730721
  70.4838028  28.3054543  22.4064083  71.9725800  28.0933304  22.2345848
  64.4846039  42.7741241  31.2169437  64.3122406  42.1178970  30.5417461
  63.9994011  43.5473175  30.9288788  84.3601608  39.2086983  86.1314163
  84.6537399  38.3003578  86.0609741  83.7918320  39.2176781  86.9015808
  68.7476807  28.2857609   3.9066696  68.8216476  28.3006020   2.9524469
  68.9686050  27.3867722   4.1500707  85.7214279  39.5111771  17.1537342
  85.2859116  39.2758331  16.3344822  85.0233765  39.4976349  17.8085461
  56.7246437  54.6178017  44.9340935  56.1823463  54.0803833  44.3567467
  57.3513184  54.0027122  45.3151093   4.0646906  29.6796989  53.0260201
   3.4069424  28.9929848  52.9163666   4.1364160  29.7935219  53.9737167
  25.8584747  25.6979103  17.8147774  24.9052124  25.7846394  17.8139534
  26.0952702  25.6483822  16.8886528  42.8754234   8.6618357   3.0370641
  42.2630539   8.9355679   2.3541994  43.3810616   9.4500370   3.2353158
  50.1692429  66.3349991  63.6351280  49.5904274  67.0391617  63.3429604
  50.9043236  66.7859802  64.0504684  24.4814262  20.0378723  44.8119507
  24.7824554  20.2279491  45.7004776  23.8781834  19.3019657  44.9157295
  11.7765274  45.5525589  71.6534653  11.1485100  46.0433197  72.1835403
  12.2363949  44.9955177  72.2815247   0.8084673  66.6317291  79.1114960
   1.3292919  67.1589203  79.7173386   0.0267792  66.3953094  79.6108017
  75.0054321  25.6699524   2.4806361  75.1945038  26.4661827   1.9841467
  75.1089859  24.9613762   1.8454750  66.3951111  37.7632141  10.7780943
  66.6388168  36.8752861  10.5165234  66.8405228  37.8972168  11.6146841
   9.1449146  70.9603043  41.5326309   9.2177782  71.2891464  40.6366501
   8.2352142  70.6724396  41.6088791   2.9970534  47.1691284   8.1806698
   3.6886942  47.0503693   8.8316393   2.9735589  48.1134109   8.0257187
  16.9271660  48.6507683  43.9746437  17.4452076  48.6907539  43.1707344
  17.4246330  49.1702385  44.6062355  21.4636230  40.9993973  72.8575363
  22.0733032  40.2674942  72.9515533  21.9989738  41.7143822  72.5134048
  58.7244301  61.8416214  33.8048897  59.2151299  61.5925446  34.5880928
  57.8413620  61.5057831  33.9586372  23.2599258  45.2060127  24.0696869
  23.5550518  45.8240891  24.7383518  22.8408279  45.7535057  23.4057293
  10.6383190   0.3076243  77.6157379  10.7231388  -0.2220037  78.4085388
  10.2048368   1.1092674  77.9084702  17.5066204  66.0629196  49.8705978
  17.6372299  65.6926804  50.7435799  16.9505329  65.4264603  49.4212494
  32.4138184  14.4947777  69.9332275  32.2776108  13.9491158  70.7077789
  32.3045540  13.8948669  69.1953888  46.3489532   6.6642761  39.2522888
  46.3252182   5.7589498  39.5622139  47.1988831   6.7472014  38.8198814
   6.4352255  52.5823898  64.4877853   6.7238674  51.6874123  64.3090744
   7.0865450  52.9265709  65.0989761  81.9235077  65.5832977  62.4348030
  81.6230392  65.0155258  63.1444397  81.1203003  65.8643570  61.9965172
  44.3310852  65.5088196  30.6204205  44.9045601  65.6246490  29.8628311
  43.4827957  65.8460464  30.3324718  30.2104607  54.2575684   3.2228646
  30.0920544  53.8396606   4.0758390  29.3324776  54.5460396   2.9735405
  10.6709995  65.5978622  32.6640015  10.7630987  64.8908997  33.3027115
   9.8541689  65.4013367  32.2053108  61.9217415  20.5116806  29.2450142
  61.7977524  21.4595985  29.1969624  61.0787430  20.1459713  28.9769783
  80.6992950  22.7162876  43.0620003  79.8743362  22.3140965  42.7901344
  80.4456482  23.3584557  43.7249603  33.1922073  47.8229370  21.9295826
  33.5706100  47.3724442  22.6846333  33.5677490  48.7027702  21.9626789
  74.7217331  13.9528418  44.2369881  74.7955856  13.0265150  44.4665451
  74.1600647  14.3241568  44.9173508  47.6242790   7.8430357  33.5002670
  48.5678825   7.6857276  33.4671059  47.5318794   8.6343489  34.0308495
  57.5471115  63.9503136  48.8361549  58.4922523  63.8629456  48.9598961
  57.2831383  64.6169281  49.4703255  10.7864037  55.0136833  33.1296806
  11.2617455  54.2024269  32.9503899   9.9262333  54.8802795  32.7315063
  19.7767487  45.7368622  19.3514309  19.0560303  45.6272964  19.9717484
  19.5736217  46.5502510  18.8895111  82.4226303  14.4976788  72.0541916
  83.1755600  13.9163446  72.1608887  82.5963135  15.2263622  72.6500854
  20.8476620  13.5616550  21.7768631  21.1058674  14.3671980  21.3289108
  20.2918587  13.8563814  22.4982872  73.9550629  61.4767456  36.9108200
  73.0588989  61.1430817  36.8685913  73.8990631  62.3603096  36.5469360
  26.5883198  55.9754601  53.3439598  26.5521259  55.9468231  54.3000450
  27.5115643  56.1296120  53.1437340  26.7832451  60.3314400  52.9628601
  27.1492710  61.1754646  53.2272072  26.4842091  59.9334373  53.7804222
  12.2611284  51.3531418  73.8901825  12.3956127  52.1395798  74.4190140
  13.1432228  51.0810013  73.6370392  14.1600351  56.9714355  81.3979797
  14.2628384  56.6346855  82.2880783  14.6026707  56.3271484  80.8455353
  38.5638542  52.3551903  87.6508484  39.1793022  52.7310295  87.0214081
  37.7044067  52.4768753  87.2473984  32.3385277  38.9776306   0.3521549
  32.7496490  38.3629570   0.9599271  31.9326248  39.6363373   0.9156967
  54.9118309   9.6073694  15.5735493  55.3223000  10.0825129  14.8510628
  54.3793221  10.2650690  16.0208721  58.1846199  57.0923805  85.7268677
  57.2449341  56.9935188  85.8800125  58.5898666  56.4342995  86.2916107
  80.7888031   9.7291174  44.6309433  80.5246964  10.2458382  45.3921776
  81.7261963   9.8997097  44.5391960  17.5592957  35.9878922  81.7091522
  17.5742512  35.9159698  82.6635284  17.0050125  35.2618980  81.4229050
  60.0465050  21.8350201  73.0470047  60.0939827  22.4323387  73.7934570
  60.0447044  22.4087963  72.2808456  54.1604271  21.9898338  42.1415062
  54.9620323  21.6199760  42.5114632  53.4706612  21.7222309  42.7488327
   3.6776121  24.5700855  15.7727003   3.2192941  24.3023643  16.5692558
   4.4228339  25.0826778  16.0859489  26.9164600  34.1310921  64.1907578
  26.8298359  34.6729126  64.9750824  26.9990044  33.2378197  64.5246582
   2.2856576  41.5397415  23.0408688   2.2791800  42.3579483  22.5441494
   1.8181603  41.7470551  23.8500042  53.3925667  46.0190239  20.2509785
  54.3138008  45.8622093  20.0437031  53.0508003  46.4832687  19.4868393
   4.5674968  68.2663269  64.7980499   5.3319998  67.8309250  65.1751328
   4.9286647  69.0122757  64.3191452  10.3141575  65.3431320  63.7981834
  10.0071201  65.3462677  62.8915672  10.3284731  66.2666702  64.0494003
  86.3238373  33.7082825   9.0763054  85.8486938  33.4399605   8.2898731
  86.8667145  32.9517212   9.2979660   9.1985779  50.1081238   1.4205848
   9.6611185  49.2972336   1.2090530   9.6032925  50.7684441   0.8580756
  46.0709496  21.4121132  72.5008545  46.8916855  21.1726246  72.9312820
  45.4211769  21.4058170  73.2036972  26.7116642  39.9724579  35.2466202
  26.5013046  40.9033508  35.1729813  26.8229809  39.6797791  34.3420868
  68.1135864  45.0722847  34.0145607  68.5516815  44.5164871  34.6590729
  67.5942078  44.4647064  33.4879379  57.5125084  62.0655441  29.0747910
  57.6895180  62.8384743  28.5386200  57.8225822  62.3039513  29.9484310
  39.4978065  61.3848190   4.5882978  39.4766617  62.2307281   4.1408396
  39.1521416  61.5673370   5.4620452  55.5551605  23.2797508   3.5908856
  54.5989571  23.2693386   3.6333196  55.8045349  22.3556614   3.5807657
  13.1631966  39.8635559  77.2892227  12.8928003  40.0567207  78.1868896
  12.6630249  39.0829277  77.0511475  24.6885281  32.1506310  87.2921448
  23.7798824  32.3159027  87.5436935  24.6263428  31.7167988  86.4411697
  83.9221115  19.5942574  52.2623558  83.4965668  19.7123013  51.4131165
  84.0307922  18.6469498  52.3461800  76.8783112  18.0967541  14.8394003
  76.1187363  17.8423576  15.3633795  76.7931137  19.0448170  14.7386494
  84.0208054   4.5105267  63.5127029  84.1895294   5.3363457  63.9663429
  83.1355286   4.2657657  63.7821541  37.7494888  63.0604668   9.1211147
  38.1074181  63.9396057   9.2445240  36.8008690  63.1877060   9.1082783
  38.5188370  59.5916748  49.8136253  39.3676720  59.2510452  49.5313454
  38.1245995  59.9436607  49.0155525  72.0560226   1.2409803  61.2914772
  72.3936996   0.9784206  62.1477852  72.1382751   2.1946080  61.2837067
  82.8369904  31.9897747  69.5353622  83.5326080  31.5737801  70.0445786
  82.3693466  32.5341988  70.1687241   7.5688462   3.4434609  88.7118530
   8.0806990   2.6611886  88.5062103   8.2235155   4.1255364  88.8615646
  54.9432755  41.1170502  64.9036789  55.6535072  40.4934731  64.7521820
  54.2352905  40.5887718  65.2723389  30.5485954  16.9637814  14.9921293
  30.7685242  17.4275131  15.8001003  31.1293983  17.3431091  14.3325758
  74.5615463  12.2033930  81.4595718  74.6277466  12.2727938  80.5071869
  73.9504623  12.8968744  81.7083511  80.8494339  47.0506973  58.2459641
  81.2996140  46.7371635  57.4615784  79.9743805  47.2898140  57.9404488
  60.5693512  48.3040237  71.9304428  60.0069695  47.5581284  72.1392441
  61.0041618  48.5148544  72.7567139  52.3440666  53.1745911  13.6852989
  51.6804733  52.5357361  13.4250288  53.1779633  52.7356339  13.5174923
  52.3568687  49.8530579  43.9077225  52.4348526  48.9730339  44.2761040
  52.7225761  49.7770576  43.0264091  54.7427559  31.6411896  28.0812092
  53.8141518  31.4747505  28.2431564  55.0969048  30.7905331  27.8219910
  26.9562378   0.3457956  27.3744507  26.2946835   0.6730137  27.9839649
  27.6755371   0.9737182  27.4419250  71.0254440  38.7121315  72.9585495
  71.8061218  38.4706383  72.4600906  70.9964600  38.0819168  73.6784210
  69.0726624   3.1447504  42.5894623  69.6473618   2.9660857  41.8451271
  68.9313583   4.0910416  42.5612259   8.9244623  57.3958664  15.1877432
   8.7026129  57.6140823  14.2825375   9.4211912  56.5802345  15.1226521
  73.1511459  48.8712006  50.1463776  73.1533203  48.6178398  49.2233200
  72.2555237  49.1656952  50.3118019  56.2869492  61.6328239   2.7087543
  56.4808617  61.6709900   3.6453297  55.4221611  61.2254448   2.6596174
  75.8258820  28.8480854  74.9785233  75.2012787  29.0906239  75.6621017
  75.6279526  27.9312420  74.7875900  13.6651764  15.6820211  76.0117645
  13.8662853  16.3214340  76.6950912  14.2320433  15.9268284  75.2803497
  78.5759964  57.4234962  59.7150269  78.7090988  57.9522171  58.9282799
  77.6316986  57.2693939  59.7431030  65.6509781  15.2832384  64.7694626
  65.0718384  15.2224417  65.5291519  66.3948059  14.7225447  64.9898605
  59.8782349   1.2335740  12.1780176  58.9233665   1.2813807  12.2246466
  60.0551033   0.7679658  11.3606091  62.3940392  31.0390129  55.0303917
  61.8229980  30.7367058  54.3241692  62.5629921  31.9584827  54.8248215
  24.5697346   5.1027832  70.6787872  24.8944702   5.9736147  70.4498138
  25.3310509   4.6515007  71.0434418  42.5294762  41.3932686  59.3555412
  42.3145027  41.7991066  58.5157089  42.9958458  40.5908356  59.1213799
  72.8186417  25.3911076  11.2324133  73.2456360  25.9969234  11.8381310
  73.4724884  25.2325802  10.5515461  36.3521843  46.8917694   5.3684340
  37.0918541  46.9628220   5.9718137  35.8464890  47.6912956   5.5142479
  23.4494209  54.4290085  82.3228378  23.4159985  53.7778587  81.6220398
  22.5888882  54.8476753  82.3020172  76.7964096  20.4577770  13.3490076
  76.0605469  19.9565048  12.9976463  76.4830475  21.3620377  13.3677177
  85.5852356  67.4407196  16.0154724  85.7145767  66.5053940  15.8584146
  84.8922729  67.6925125  15.4050303  11.3639898   0.2734780  80.4686127
  11.6519899   1.1862921  80.4762497  11.7746153  -0.1137036  81.2417297
  33.2950134  51.4818649  32.1967506  32.8146019  52.3025093  32.3062172
  33.2923584  51.0847664  33.0676918  67.6689377   1.7607543  75.8975754
  67.7610626   1.1489154  75.1672363  67.9943237   2.5932596  75.5550995
  59.8663902   5.7882314  28.8413658  59.9688148   6.7119536  28.6122837
  59.5629196   5.7988114  29.7491245  85.5340958  47.6345673  37.7534943
  85.9377441  46.8565483  37.3688087  84.7268295  47.7573738  37.2540207
  77.5572586   9.9049387  38.7441635  77.2978516   9.2039680  39.3421440
  78.5127258   9.8545942  38.7162437  69.0419617  56.2885475  17.6289482
  68.2440796  56.8147240  17.6814728  69.7521896  56.9302521  17.6246052
  41.8740768  32.9119911  28.1251965  41.4730148  32.3553162  27.4577408
  41.5006866  32.6031036  28.9506645  42.8090057  44.0023003  67.9934235
  42.9488907  44.3272133  67.1039886  41.8820000  43.7651138  68.0187454
  26.4164276  63.0714417  38.8787117  25.9978600  62.6569214  38.1242523
  25.7155895  63.5720901  39.2963371  73.2774277  46.0643425  86.9256287
  74.1153030  45.6710777  87.1696243  72.6207199  45.4417877  87.2377090
  36.0978050  45.8320122  73.4710159  36.8874321  45.9241562  74.0041504
  36.0892410  44.9102859  73.2129898  12.0242023  38.3535042   1.0404458
  12.8809042  38.7735329   1.1170691  11.4299622  39.0638466   0.7985235
  45.3398514  62.0030670  48.5104790  44.8210068  62.4594879  49.1728363
  44.7716484  61.9717941  47.7408066  64.0264969  32.4152260   7.7883506
  64.2419739  32.6240730   8.6972971  64.8126602  31.9883366   7.4478426
   5.3818941  67.2719650  45.9260559   4.7399182  67.6202850  46.5447350
   4.8623204  66.9996643  45.1696625  81.0114975  67.0513687  44.6280479
  81.4227066  67.8134842  45.0358734  81.6311264  66.3369751  44.7761307
  44.6303329  68.9311142  30.1922169  44.7705727  69.8779373  30.2019958
  45.1383209  68.6214828  29.4423447  27.3809280  45.0626793  39.6629295
  27.7801723  45.3218575  38.8324699  26.4738083  44.8555832  39.4382629
  78.6232071  17.3423443  22.2341995  78.8997345  16.5342045  21.8021450
  79.3953094  17.6296692  22.7215748  16.6037617  44.7016983  17.5799179
  16.9623184  45.4004135  18.1271534  17.2514286  44.5857048  16.8847160
  18.7942276  28.6803188  16.3953896  18.8425789  27.8457756  16.8616848
  19.6552200  29.0777359  16.5257187  84.0008774  12.3855896  21.7403240
  83.3784714  12.4249344  21.0141754  83.8850021  11.5094070  22.1078949
  44.1099815  12.7297382  84.0212021  44.0532951  13.1796007  84.8642044
  44.5318642  13.3624954  83.4399414  71.2642059  23.6746750  12.8607035
  71.8855209  24.0393925  12.2304840  71.5384445  22.7638702  12.9677534
  76.4098206  35.3088760  17.5145721  75.9981461  36.1727219  17.4916134
  76.0311279  34.8431969  16.7689381  48.9486122   6.9038663  52.1932335
  48.1362305   7.1527300  52.6340675  49.5867691   7.5568976  52.4805298
  37.1715851  71.3724823  81.6415710  38.0528908  71.0458679  81.4603195
  36.9045525  70.9123154  82.4372864  29.7588120  17.7849941  81.0680008
  30.1019726  16.9279480  80.8151169  28.9347248  17.8642883  80.5875549
  14.5805445  46.6450195  55.4841194  14.2658873  46.6573143  54.5802002
  14.5209436  45.7262726  55.7459984  55.5863152  70.1835403  80.9211807
  56.5383682  70.1518250  81.0150986  55.4409790  70.6977539  80.1270218
   1.3368437  21.4310513  71.2984390   1.5932403  21.5063744  70.3793030
   1.5155008  22.2955360  71.6685486  80.9101486  31.0831280  29.4179611
  80.9852448  30.1693192  29.6928158  81.0920639  31.5874672  30.2109184
  22.6256294  26.0479298  77.7171173  23.4290676  26.5315113  77.5250931
  22.6490116  25.9110546  78.6641922  40.5295486  44.7527885  82.2107239
  41.2201576  44.7508774  81.5479355  40.9947052  44.8551750  83.0410156
  64.7678299   9.0587244  39.5125732  63.9764214   9.3043976  39.0334587
  65.2014694   9.8908882  39.7014961  53.4480705  44.1294212  72.6377029
  53.4653015  43.3988380  72.0194931  52.5458488  44.1520767  72.9566269
  42.5248299  44.3125725  20.1356411  43.4700699  44.2032471  20.0316963
  42.3446159  44.0063782  21.0244617  80.6163254  67.8212280  86.4326782
  79.9592590  67.1252823  86.4453888  81.0695343  67.7075043  85.5972748
   4.7203317  23.2955914  88.3809586   5.4905682  22.7680149  88.1697006
   4.3340292  23.5065289  87.5309525  53.9928474  66.3318558  25.2816219
  53.7555618  66.8780975  24.5322590  54.7536621  66.7683640  25.6648388
  78.2413025  66.7086105  53.2273178  78.4362946  67.1427460  52.3968124
  77.4038773  66.2698822  53.0774155  44.7063904  21.4744225   9.1185532
  44.8602524  21.7135429   8.2045622  45.2214546  22.1055164   9.6212044
  60.7514114  67.9828186  18.1671600  61.6598206  67.7778702  18.3885651
  60.8038864  68.8018265  17.6745090  53.6966629  53.0260773  35.3424759
  53.0602760  52.4250336  34.9551888  53.2475891  53.8711967  35.3607826
  16.8702774  56.2404213  19.5189972  17.5136795  56.8941193  19.2452393
  16.4378567  56.6329308  20.2774048  76.5634003   0.9564873  48.3080788
  76.2895966   1.0105286  49.2236900  77.2516327   1.6164751  48.2245407
  64.8481140  38.3501587   7.5983610  64.1446609  37.9214745   8.0858192
  65.5876083  37.7459297   7.6638379  60.8526955  47.2447014  86.0855408
  61.5573235  47.2123909  85.4384766  60.9900284  46.4682274  86.6281738
  73.4102249  11.9566164   4.2802372  72.7020645  12.4191322   4.7283745
  73.3579941  11.0600615   4.6114368  82.5259094  34.0640640  60.8895988
  82.7126846  33.1610680  60.6327934  82.7341766  34.0954819  61.8233376
  63.2963066  15.1738729  16.9900055  63.4377861  14.5131140  17.6679535
  64.1626205  15.5522747  16.8398590  57.8334885   5.6299448  86.2050934
  58.1180840   6.0126114  85.3751526  58.2587433   4.7728167  86.2319565
  33.5054245  50.5977478  54.2991714  33.1827202  51.4900398  54.1730309
  32.7320747  50.0451393  54.1861038   1.6289972  18.1275616  52.0680046
   1.7923448  18.4965439  52.9359894   0.9304980  18.6715221  51.7040863
  44.8461456  28.5132732  74.2842102  44.6114159  28.0426807  73.4844131
  44.0194168  28.6092873  74.7569962  55.4019051  66.6847229  64.9772720
  55.7905655  66.3110657  64.1863480  55.2170830  67.5950546  64.7462540
  64.6389847  35.1840782  11.7210865  65.2805176  35.0671806  12.4218025
  63.9896851  34.4975624  11.8738365  15.7977772  47.7001801  58.8156586
  15.7300711  47.0493889  58.1170044  14.8908138  47.9305038  59.0171547
  45.4317474  59.0130730  66.9733429  44.5790710  58.5781822  66.9663620
  45.8280411  58.7767105  66.1347046  50.8313255  52.9279556  63.1174164
  50.8000107  52.5188217  63.9822083  49.9486923  53.2733917  62.9837761
   6.6612673  71.1995697  13.1002884   6.7708182  70.2728424  12.8871784
   6.1975393  71.5653534  12.3470373  81.1665878   9.6207752   3.6110976
  81.8076859  10.3256645   3.5196958  80.3316269  10.0713587   3.7378025
  23.2989807  37.4865875  11.5196924  23.3711720  38.1978989  12.1561337
  24.2040195  37.2854424  11.2816219  52.5177879  28.6919327   5.5566444
  53.1911392  29.0467758   6.1370869  52.7498169  27.7686481   5.4569340
  51.2598610  32.0102844  23.2510490  51.3981400  32.8383827  22.7913074
  51.2579384  31.3493557  22.5586605  51.2554779  13.1116209  71.0715179
  51.6850052  12.2801304  71.2724228  50.4768219  12.8645678  70.5726318
  68.7470779  12.1903791  22.8408699  68.4801712  12.5827465  22.0095806
  68.0647354  11.5468588  23.0319958  50.7378120  24.0089149  11.4643192
  50.1629028  23.2448196  11.4210920  51.5993462  23.6488228  11.6748667
  53.0350342  62.0976067  47.4344368  52.8975677  62.7847939  48.0864410
  53.9743958  61.9173164  47.4708862   9.6685762  40.0863266  60.2250252
   8.9195547  39.4921417  60.1787415   9.2789745  40.9582367  60.2899933
  63.5235062  70.1508408  31.5659809  63.9030380  69.5558395  30.9193249
  62.9471169  70.7212372  31.0573959  27.3326817  32.4949875   7.5395555
  27.9242153  31.7893105   7.8009744  26.5984058  32.0482788   7.1182222
  84.3039780  41.7086639  28.2364998  83.4610214  41.2988815  28.4307613
  84.1884384  42.6249962  28.4879341  56.3339539  -0.1108760  21.1578732
  56.7310066   0.7052987  21.4619083  56.1892891   0.0272985  20.2218113
  52.7271271  39.1959991  38.4635658  52.6331940  40.0838013  38.8088417
  51.9469528  39.0647774  37.9247322  82.4420090  56.0510750  11.6028776
  83.3193283  55.7645531  11.8567429  81.8740692  55.7347336  12.3054514
   9.4343023  40.0581398  26.6133595   9.0260582  40.3972588  25.8167629
   9.4869251  40.8153419  27.1965427  70.8849487  45.3488808  55.4355125
  71.5637817  45.7257576  54.8757057  70.6497498  44.5263710  55.0061035
  61.0153236   1.6883379  60.6711388  61.7692184   1.7458831  61.2581329
  60.9815369   0.7668591  60.4142990  78.4061584   1.2731701  81.2253265
  78.0660934   1.7738788  80.4837875  79.0923767   0.7226834  80.8480911
  71.6650009  54.0443497  61.4697075  71.6597672  54.6733170  60.7481766
  70.8321686  53.5795898  61.3883438  63.9132500  10.3717871  42.3870392
  63.0891418  10.1309404  41.9638748  64.3748550  10.8952198  41.7319298
  46.3347473  11.5969849  72.9815140  45.9024467  11.8186617  72.1567688
  46.1699066  10.6608524  73.0942764  37.0268402   2.9382515  63.2857895
  36.3083344   2.7369993  62.6862259  36.6629410   2.7810018  64.1570435
   2.0347831  39.4296532  62.4896965   2.6418447  38.9457588  61.9297371
   1.2343192  38.9048042  62.4848747   7.8934503  44.8082581  66.5876312
   8.2684975  44.9652138  65.7210617   7.1511292  44.2261086  66.4254761
  38.2929001   4.0110197  11.0128937  38.2196960   3.7568884  10.0929537
  37.5186768   3.6315062  11.4285574  12.5290642   3.8288276  18.4172668
  11.9801855   3.4262187  19.0902233  11.9075727   4.2286305  17.8088779
  80.5292740  62.0839653  50.1487045  80.2041702  62.6710052  50.8312912
  80.9546661  62.6636810  49.5168762  67.8311996  33.4199066  29.8077354
  68.5477448  33.9515114  30.1544151  67.1273346  33.5193367  30.4487667
  65.6900787   9.9294147  60.3904915  66.0861206  10.6875935  60.8200836
  65.5127029  10.2255459  59.4976997  45.5115089  32.2178650  49.9393921
  45.4402733  31.5692768  50.6397438  44.6126022  32.5127983  49.7937431
  32.2364731  16.1656666   5.5593863  32.1551476  16.7956390   6.2754526
  31.3572235  15.8004131   5.4606981  60.9103699  52.8545418  79.0632095
  61.6966324  52.6861954  78.5438995  61.1976318  53.4658813  79.7414246
  82.7939682  42.5884361  61.5197906  82.2760849  42.6613388  60.7180939
  82.2455673  42.9859428  62.1961632   2.2882667  20.4508648  16.2585068
   2.8986812  20.7837238  16.9164047   1.4221036  20.6629448  16.6063786
  21.0167694  57.3773613  72.4091263  20.5162182  57.7766533  71.6976166
  21.7333450  56.9191284  71.9700699  33.7061081  57.1741219  68.5975113
  32.9537048  57.1208153  69.1868057  33.4761810  56.6045456  67.8633804
  82.3241653  10.8993893  80.5031662  81.4044800  10.7533169  80.2816162
  82.7717972  10.9328279  79.6577454  31.2441158  65.0568619  45.3687782
  30.4392262  64.9532623  44.8611832  31.3330269  66.0026398  45.4864235
  22.1978970  25.4237480  87.6360016  21.4990997  24.7729759  87.7024231
  22.7776165  25.0839615  86.9543152  64.2311478  16.4319210  20.5113201
  64.2255478  17.2672997  20.9785919  63.4003944  16.0195293  20.7479877
   5.9125724  33.0886383  79.9272308   6.3742180  33.0081482  80.7618713
   5.4903069  33.9466515  79.9688416  46.0771141   1.3375936   4.8015580
  45.5200386   1.5418589   4.0504408  46.9441795   1.6558305   4.5502596
  68.4017029  57.6345024  39.9722214  68.8861237  57.0963554  39.3461571
  67.5958099  57.1446304  40.1359329  77.3928986  41.2114677  81.8225479
  78.2998352  41.4998856  81.7200623  77.4613190  40.2893410  82.0699921
  76.4078445  40.5723076   6.4883337  75.6574936  41.1653862   6.4501338
  76.8809814  40.7317467   5.6716628  64.2803192  22.1829567   1.7589446
  64.7912598  21.4159012   1.5004959  63.7682266  22.4029369   0.9807409
   4.6267548   9.9492006  83.7025757   4.2823420   9.1052895  83.4102936
   5.0655775   9.7549353  84.5307846  44.7268677  69.3292007  48.1938972
  44.7022095  68.3844833  48.3460121  45.6436691  69.5153198  47.9912491
  31.5927143  33.7128944  69.4679871  32.3932915  33.4763527  68.9996338
  31.1218739  34.2861977  68.8631210  60.1333008  51.3863640   3.2109251
  59.2226677  51.3581924   2.9173498  60.0870781  51.2154999   4.1516175
  83.8119965  39.9070282  49.2881737  84.4961853  39.8435974  49.9545746
  83.4665070  40.7946167  49.3833427  82.1710968  29.7938538   8.4822226
  82.3188324  29.2407227   9.2493286  82.5839920  30.6280899   8.7053719
  35.1271744  52.3585281  45.0507812  36.0546532  52.3780746  44.8149223
  34.8544693  51.4578362  44.8757858  17.0507011  13.8690243  45.6044617
  17.7029572  13.5653172  44.9731483  16.5069599  14.4827528  45.1105843
  86.5985184  37.1023750  50.0198555  86.4622269  36.1640129  49.8889771
  87.1727905  37.3636818  49.3000221  65.2491684  21.9102478  16.3013344
  65.5368042  21.0193310  16.1019192  65.2987518  22.3710518  15.4638186
  50.8639374  21.5279598   5.5896931  50.9265785  21.0163918   4.7830920
  49.9657364  21.3911362   5.8909426  15.9253063  64.9932938  11.1030235
  15.4258165  64.9032974  10.2914562  15.9585123  64.1071243  11.4633512
   0.6885701  30.3796234  22.1085052   1.2185149  31.1744709  22.1685638
   0.9270989  29.8734760  22.8851318  79.4305649  17.2477303  34.5717621
  78.6713867  16.8773613  35.0219955  79.5527954  18.1069717  34.9754906
  50.2226219  47.3920021  58.2132263  50.9452209  47.3280907  58.8377228
  50.0850372  48.3326607  58.1015778   2.0261464  33.5096703  80.3185577
   2.5102730  33.1621933  81.0676270   2.3001356  32.9632530  79.5819473
  45.2324753  55.4952583  54.6968117  45.3396225  55.5403137  55.6469269
  46.0556297  55.1231194  54.3803329  47.7782555  35.5632935  87.5588379
  48.5925636  35.4197655  88.0410538  47.2269325  36.0610657  88.1625748
  48.0306511  33.1696320  62.3306885  48.7838135  33.7502098  62.4397964
  48.4122696  32.2962112  62.2427368  84.9529572  40.2023582  74.8003159
  84.3467560  40.4097023  74.0891418  85.2233200  41.0551033  75.1408539
  23.7584763  44.6222343  59.1441231  24.1276512  45.3260155  58.6106148
  23.0090694  44.3067284  58.6390686  58.9219742   8.9581232  35.8969498
  59.7796326   9.3827887  35.8791008  58.8078270   8.6116037  35.0120049
   9.4787073   0.0379420  20.9367256  10.0953074  -0.5044090  21.4285507
   9.9405928   0.8658298  20.8044567  60.4271393  38.0212593   3.7605348
  60.4060364  37.4659348   4.5398965  61.3566704  38.0955582   3.5444820
  61.1821175  39.5885391  18.1381168  61.2033195  40.4146500  18.6211510
  61.9351807  39.6360626  17.5491600  48.1613693  28.5908298  86.9480438
  47.5105057  28.2172623  86.3538589  48.9926109  28.2128468  86.6609879
   4.1058388  64.9677505   9.2224884   3.9911180  64.3191452   8.5279493
   4.9437299  65.3857346   9.0238409  63.5185394  13.1863546  50.3512039
  64.2451019  13.5970488  50.8198967  63.9400787  12.6239719  49.7013855
  35.0828590   3.4361355  72.5037689  35.8979149   2.9378283  72.5638580
  34.4271965   2.8734612  72.9157639  16.6093426  40.8204079  56.6397133
  17.0390549  41.5733833  56.2339935  15.6818409  40.9331856  56.4317360
   6.7106109  64.7007370  82.8099060   5.9882331  64.3453827  82.2920990
   6.9332542  64.0000839  83.4228897  46.1659126  18.7033749  64.7177200
  47.0668030  18.6869106  64.3946762  45.6897812  19.2266102  64.0729218
  19.6233902   7.6604104  65.6570282  20.3718300   8.1429644  65.3060074
  19.4499359   8.0706501  66.5042877  60.3785744  67.2755356  27.6882439
  60.8914223  67.4967041  26.9108734  60.5700455  66.3511276  27.8464756
  70.0955048  17.3026314   1.4026207  69.3667068  17.8996868   1.2334868
  69.8803482  16.8934402   2.2407742  18.0369797  28.7051392  13.8422689
  17.8616295  27.7988644  13.5889883  18.0349064  28.6910267  14.7993631
  35.3315430  42.7967453   3.1874409  35.9634056  43.4374695   3.5137186
  35.7226219  41.9479218   3.3942959  50.7396469  40.4640274  20.7272491
  51.2690773  41.2478218  20.5802670  50.6677666  40.0580826  19.8633785
  53.0576668  62.9522095  12.3680248  52.1111450  62.8557968  12.2629585
  53.1592560  63.7204018  12.9299755   8.1512575  58.2839203  17.6171913
   8.5000992  57.9758987  16.7807312   7.5604029  58.9991570  17.3814812
  70.6545181  23.2600098  67.8984833  70.1338730  24.0397739  68.0911713
  71.3810883  23.5828419  67.3654556  64.0842972  55.0293884  13.0453463
  64.2923431  55.9403305  12.8376617  63.8173866  54.6479874  12.2089701
  33.4107323  18.4401550   0.8361766  33.6509247  18.1719341  -0.0507265
  33.5645561  17.6618423   1.3717121  83.8336411  47.5329170  88.2735443
  83.5564728  47.9380035  89.0953217  83.7630234  48.2336655  87.6253204
  83.1337814   0.3070843  35.7108994  83.5191193   0.1537282  34.8482094
  83.2425461   1.2466060  35.8582153  27.2703896  52.3443069  73.6626358
  26.8689919  51.9903564  74.4562607  27.5165634  51.5718613  73.1537628
  81.4999847  61.6442833   2.8955400  81.4144287  61.3924522   3.8150473
  82.4431992  61.6393356   2.7326195  43.7301254   4.8628263   7.6267996
  43.1818466   4.5799422   6.8949547  44.0805550   5.7095532   7.3502412
  48.8556976  43.2731133  20.6767197  49.2370682  44.1510315  20.6832905
  49.5402718  42.7118607  21.0408401  74.0302505  67.7348785  78.8446884
  74.5960312  67.0620270  78.4660110  74.4352112  68.5623627  78.5848618
  58.5516205   9.4309015  41.5723686  58.1121216  10.1889009  41.9577332
  58.0797920   8.6760187  41.9241676  52.1286201   2.4273260  26.6111374
  51.8092766   3.3269866  26.6808701  51.3623848   1.8858281  26.8005924
  26.5163460  34.5601959  29.9262104  26.8113689  34.9441490  29.1005154
  26.5664062  33.6151962  29.7823219  47.0822487  23.9737473  27.8842506
  47.6325226  24.5047512  27.3085213  47.6171227  23.8351746  28.6658764
  51.0086937  12.3650723  75.3760223  51.0732651  13.1153374  74.7851181
  50.0720367  12.1720390  75.4165497  64.8593903  14.3425865  60.5271034
  63.9303703  14.2375803  60.7323570  65.2243729  14.7895555  61.2908020
  34.4970474  29.2005405  68.9866562  34.5858040  29.9664268  69.5539093
  35.0907402  29.3735428  68.2560196  23.7065163  50.6988335  72.8795853
  23.5122490  50.3174553  72.0234070  23.1379337  51.4669228  72.9342270
   1.6231844  17.6358280  25.7929363   2.3886068  17.0665436  25.7137089
   1.4707922  17.9573174  24.9043121  62.2078743  67.7980881  25.0353889
  61.2650528  67.8309021  24.8733959  62.5129509  67.0491104  24.5233440
  21.3048840  22.6743126   4.3865252  22.1173744  23.1271420   4.1606092
  21.5223713  21.7445354   4.3198552  45.5119171  56.7229195  60.5211525
  44.6938782  56.5373116  60.9822311  46.1978302  56.4765167  61.1416664
  81.1818161  69.2764664  41.1626549  81.2686920  69.9704666  40.5091591
  81.6044312  69.6301727  41.9452896  75.9601288  58.5742760  45.5166588
  75.6387863  57.8204498  45.0219650  76.6862411  58.2283173  46.0356064
  50.4243851   8.8956919  40.8226204  49.9200096   9.7055798  40.7456856
  51.0664482   8.9452028  40.1144333  44.2855263  64.5567093  21.6035957
  44.7637558  63.8543358  22.0442791  44.1505432  65.2174225  22.2829075
  84.9897995  53.7965584  76.3529510  84.1324005  54.1740456  76.5494461
  84.7933731  52.9984322  75.8624039  75.0700760  33.1854782  71.1041565
  74.2866364  33.3945465  71.6128311  74.9236374  33.6040535  70.2558746
  61.3311119  31.4880772  13.1999331  61.5103035  31.0585880  14.0363903
  61.8335342  30.9843521  12.5595703  84.2596130  16.2255020  34.0076752
  83.3392868  16.1147709  33.7689896  84.6291809  16.7520943  33.2989082
  84.5346375  37.6765022   7.7458935  85.0822449  37.2556725   8.4086609
  83.7610779  37.1162033   7.6833625  23.9554634  35.5438118  61.7882118
  24.4515095  35.0506287  61.1348038  23.9154701  34.9624062  62.5475540
  52.6667290  56.6513519  53.8843689  53.3247375  56.4387550  53.2225075
  53.0894241  56.4436798  54.7176971  74.8570938  25.2608166  32.7007294
  75.2267761  24.8319416  33.4725037  74.4667282  24.5482445  32.1946793
   5.6474214   7.9960136  29.9636002   5.0996904   7.2147646  29.8869705
   6.4751115   7.7496758  29.5507107   6.0301394   8.7675257   4.9787035
   5.3959274   9.3809223   4.6075559   5.9799900   7.9984469   4.4110460
  10.6165447  54.3885803   2.8432012   9.7613754  54.4476700   3.2691419
  10.6103554  55.0927315   2.1948442   9.0203323  66.0819778  44.4028244
   8.6943150  66.1723022  45.2982483   9.9557238  66.2744217  44.4679451
  75.8315964  47.5726776  43.2096329  76.2062607  47.9347420  44.0126076
  75.1083832  47.0221443  43.5098114  11.3608513   3.1137130  83.9430008
  11.9681673   3.7305722  84.3515167  11.6463718   2.2547712  84.2543335
  53.2646675  68.1247177  66.9835739  53.3604393  69.0598907  66.8032761
  54.0050926  67.9133682  67.5521927   3.4346976  60.6223640  59.6164360
   3.2780652  59.9284286  60.2568703   3.0699344  60.2813873  58.7997856
  49.6070557  14.4302435  67.0341949  48.7114754  14.7053957  67.2303009
  49.5309143  13.4997520  66.8229599   4.2243505  46.8857040  37.6982880
   3.9345946  47.7022743  37.2914886   4.9421244  46.5826340  37.1422501
  66.6611252  39.0350571  73.5792847  66.6591415  38.8136597  74.5105286
  67.4883041  39.4975853  73.4448242  24.3151646  71.0686569  77.3171463
  24.5156097  71.8368301  77.8518982  23.4150162  70.8422623  77.5510483
  38.8803329  46.2359962  39.7408829  39.3597221  46.0876617  38.9257660
  38.8984108  47.1855888  39.8599701  81.3276443  65.5927048  34.1928215
  82.1692963  65.4726639  34.6326332  81.1531906  66.5313568  34.2616005
  48.8422623  55.6083527  19.6995010  49.0322952  56.1333275  18.9219913
  48.1135788  55.0460854  19.4366264  60.4348030  45.9244919  22.8095589
  60.4615440  44.9717522  22.8979073  60.8839035  46.1010742  21.9829044
  17.7014103  11.5425129  53.9179764  16.9933395  12.0435772  53.5132523
  18.3459911  11.4313612  53.2191277   0.0409848  36.3831711  10.0624409
  -0.2310778  35.5339317   9.7145872   0.7027051  36.1714478  10.7208710
  70.4578323  11.8360729  51.5861931  69.6867905  12.2388678  51.9855423
  71.1118774  11.8260441  52.2850227  50.8155289   7.7879725  74.1811600
  51.5307503   8.4149733  74.2886887  50.0415001   8.3308973  74.0316849
  50.2552376  38.7520866  86.0724258  49.5463829  39.1533890  86.5751266
  50.2064438  39.1710091  85.2131500  31.0805473   0.5842280  31.3138123
  31.5640163   1.4092197  31.2704830  30.8542404   0.4875394  32.2388344
  50.2236137  15.0725050  60.2859955  50.2060776  15.9285583  59.8580971
  49.4566879  15.0752716  60.8587494  40.2857056  36.9303360  38.4699249
  40.1823006  37.3352356  37.6087646  41.0242691  37.3934708  38.8652229
  20.1814404  51.4165115  73.5783310  19.4437981  51.2497826  74.1651154
  20.4083691  52.3333969  73.7334137  55.8073006  48.9579391  76.6986084
  55.5350800  48.3010445  77.3394012  56.7583847  48.8628273  76.6473694
  47.5645790  11.3185616  84.1348724  47.6388397  12.2355967  83.8707428
  47.0933952  10.8993254  83.4148254  74.4363861  45.2241096  80.5303345
  74.7481689  44.6807404  81.2540588  74.2414627  46.0703812  80.9329071
  82.3453903  17.3030682  78.0557632  81.4736328  16.9199905  78.1533508
  82.9257431  16.6987724  78.5186386  60.7922745  68.4380722  84.7679749
  61.3542099  68.9193268  84.1606369  61.4014549  67.9546509  85.3260422
  46.7778664  68.5695572  69.8726425  47.6756973  68.2441711  69.9378815
  46.5265884  68.7619095  70.7760239  44.0855637   3.3667696  15.2478809
  44.1956406   4.3135920  15.3352985  44.2713470   3.0223801  16.1214428
  10.7741003  62.2353554  69.2145309  11.3219662  62.7409782  69.8148880
  11.3108788  62.1335144  68.4285736  13.5279799  25.2534370  71.2572098
  13.2114506  24.4163303  70.9176636  14.0334196  25.6286774  70.5361252
  52.5262032  48.9218521  78.8885956  53.4604111  48.9683800  78.6853180
  52.1030426  49.4124413  78.1839752   9.8867502  57.5685539  45.9860191
   9.1151791  57.5286980  45.4209328   9.7266512  58.3196754  46.5573502
  47.0571899  65.8249817  48.2536888  47.0198402  66.6080704  47.7044983
  47.9093094  65.4354477  48.0577660  28.8680248  18.6524467  74.8475800
  28.1135502  18.0650978  74.8925400  29.1329384  18.6320934  73.9279938
  63.7121773  54.7289772  64.9498596  63.9668083  54.1579475  65.6746521
  64.4080582  54.6184311  64.3019791  26.8806953  37.8540306  17.3175106
  27.6786919  38.3061600  17.0436230  26.1745758  38.4640808  17.1042824
  80.7407150  52.2239571  28.5479431  80.5936050  51.9147835  27.6540756
  80.4961472  53.1490936  28.5246887  73.6999969  63.0162277  15.9925880
  74.6411285  62.8609276  16.0724792  73.3750610  62.9862328  16.8924484
  23.1590538  59.4662247  74.1915359  22.4322205  59.0260086  73.7509079
  23.6999817  58.7535019  74.5316162  61.5108986  67.0586624  31.7293758
  61.4397469  67.4741364  32.5887680  61.2029343  66.1633301  31.8699608
  26.1707687  54.1864281  84.9105911  26.6848927  54.5925255  85.6084366
  26.0777950  54.8735504  84.2507019  36.5833206  46.1946983  29.0861206
  37.2125626  45.7943459  28.4861145  35.8534622  45.5760956  29.1155605
  55.4033813  11.1649408  57.4675407  55.5641937  11.4523811  56.5687904
  54.9201813  11.8880157  57.8674240  85.3754120  24.8758545  32.9277306
  85.4102707  24.9959641  31.9787350  85.4953308  23.9347095  33.0545998
  43.9806900  18.5316296  21.6472988  44.4332428  17.8279343  22.1123161
  44.6687164  18.9677467  21.1446571  17.1126842  55.6597900   2.8933604
  16.3082962  55.8691063   2.4186230  17.7997360  55.6953621   2.2278333
  49.0308990  46.4838104   3.0004714  48.2012596  46.0114288   3.0696607
  48.9930992  46.9101181   2.1442795  48.9985733  44.8029671  33.6048317
  48.3568306  45.0248337  32.9301643  49.3754463  45.6441879  33.8627968
   8.3406162  47.2791519  39.8549232   9.1543922  46.7752953  39.8663750
   8.2126637  47.5065804  38.9339828  61.2367287   9.5935698  60.4197884
  61.6273575   9.5687428  61.2933006  61.5687180  10.4032240  60.0318756
  55.4445724   0.3966454  78.8023071  55.2209969   1.0821837  79.4318161
  56.4004097   0.4169553  78.7554703  60.5299988  45.5438499  15.5023394
  61.0903854  45.0912704  14.8719673  60.9002800  46.4244461  15.5629778
  46.4378891   0.8514026  50.3665314  46.8519745   1.4607512  50.9776459
  47.1359634   0.2423945  50.1256218  47.6838684  46.4674263   6.4668407
  47.6998291  45.7772408   5.8038001  47.0573730  47.1082191   6.1305051
  77.3344498  38.6197166  63.9964333  77.5072937  37.6787758  63.9650421
  76.9317856  38.7608147  64.8532791  40.8148079  60.0727196  15.8633022
  40.7294426  60.7711678  16.5122356  41.3972855  60.4356308  15.1960354
  35.5479279  17.3958244  15.0797176  35.9361153  18.2490921  15.2733107
  35.7589684  16.8579788  15.8428793   2.0747802   9.7788029   8.7320366
   2.3457389   9.8792439   9.6445742   2.3205757  10.6054935   8.3168268
  12.2783194   2.8669114  22.9256973  12.2038469   3.7028530  23.3860092
  13.0935497   2.9386668  22.4292259  57.1486702  43.4965706   7.3978887
  57.3395348  42.5631027   7.3060341  57.3140564  43.8615265   6.5285878
   6.4256759  47.4927406  26.6710510   5.4696174  47.4472771  26.6818714
   6.6464458  47.6755371  25.7577724   6.2006803  18.9620171  15.3451147
   6.0620131  19.8605843  15.0458136   6.7926903  19.0471630  16.0924473
  19.6475887  47.8476562  45.8207207  19.7912006  47.9752045  46.7584496
  19.1771584  48.6331100  45.5414467  27.4604034  42.2707138  88.5910568
  26.6932259  41.7322998  88.3966827  27.2868824  42.6296005  89.4613037
  74.4559479  20.7035503  19.0341911  73.5839615  20.8064995  18.6530476
  74.5984497  21.5111752  19.5278149  16.2227516  41.7061043  70.7629700
  15.4734058  42.2980156  70.8289642  16.0291882  41.0044250  71.3845825
  26.0770397  60.8085938  13.9526720  25.7018719  59.9286766  13.9176188
  26.2281590  60.9675903  14.8843985  47.1103935  42.2423286  27.3951187
  48.0361557  42.2690010  27.6369534  46.6811676  41.8165016  28.1371880
  48.0815086  45.5822258  13.7984715  47.6745605  46.3085976  13.3262339
  48.5380669  45.9979134  14.5299015  45.3017502  68.5591583  64.0456238
  45.6785736  68.9412766  64.8382263  45.6055412  67.6514511  64.0495529
  67.8651047  55.0096970  70.1615982  67.0272598  55.2981720  70.5235901
  67.6291199  54.5117569  69.3789062  55.9021759  38.6347580  81.7880249
  55.6056747  38.9239120  82.6509933  55.4985313  39.2512627  81.1771011
  65.7943954  20.4276237  22.0943794  65.4651642  21.2165909  22.5249271
  65.8034363  20.6489849  21.1631699  56.0271454   7.7798901  64.7192917
  55.8783150   7.1854029  65.4545975  56.9769211   7.8960900  64.6936874
  33.8413582  19.6224689  86.9173965  32.9986000  19.9160385  87.2635345
  34.4885254  19.9887447  87.5200958   0.4426048  47.9281120  75.0956726
   1.1131589  47.4136772  75.5450516  -0.1503875  47.2755013  74.7232590
  69.5463943  14.2040796  71.9550247  70.0637360  13.7134628  71.3163681
  68.6920624  13.7724018  71.9535675  78.4837570  37.7435684  84.7134247
  78.2362747  36.8229370  84.7995987  79.0555115  37.7670784  83.9461136
  45.0873566  57.3506088  10.3292971  45.2798538  56.7842522  11.0765696
  45.8135033  57.2027931   9.7234144  18.1288109  30.6683311  65.2787323
  17.2747250  30.2643280  65.4321899  17.9260559  31.5706100  65.0317230
  52.3456688  41.2540359  55.8804932  52.7982445  41.1229820  55.0472870
  51.6978035  41.9342880  55.6967506  15.8026505  57.3994675  11.8459454
  15.4732962  58.0758820  12.4377394  16.0503178  57.8749123  11.0529490
  55.6084480  46.8406258  33.5603180  54.8188705  47.3695755  33.6743889
  55.8531494  46.5809250  34.4485245  15.3100395   8.3323774  70.2191010
  16.0077362   7.8925543  69.7332916  14.5011034   8.0026007  69.8278122
  12.4297409  58.7808762  80.2626877  12.4811602  58.6730499  79.3129730
  12.9148445  58.0347290  80.6150665  37.6359596   0.7025952   9.2198505
  36.8466644   0.1664894   9.2962456  38.3124886   0.1986524   9.6721573
  45.3644829  48.0918312  41.1044273  45.6318283  48.7471619  41.7488632
  45.7553101  48.3901672  40.2831573  61.0080910  26.5647697  24.5439320
  60.6125793  25.7041130  24.6820374  60.7002716  27.0910187  25.2818642
  43.2640800  33.7124596  42.2346649  43.4027367  34.1984215  43.0475883
  42.4372444  34.0510635  41.8912621  57.7886658   9.7335443  88.7459488
  57.6693268  10.6731329  88.8843765  58.0971565   9.6618099  87.8426666
  39.9689407  60.2507324  63.9132118  39.6306152  59.8526268  63.1111641
  40.5384064  59.5807266  64.2914047  30.1498280  35.4753265  23.7100296
  29.8784771  34.9190102  22.9798851  29.7867126  35.0470810  24.4852619
  35.4386787  70.6500320   9.4130335  35.1708603  70.8746185   8.5219297
  34.7402458  70.0812073   9.7368584  75.4417343   8.8454781  22.6729374
  75.2177505   8.8618879  21.7424564  75.3726120   9.7584629  22.9520664
  66.9107285   6.0324097   2.5862641  67.0727081   6.1606050   1.6516197
  65.9738083   6.1975522   2.6918318  20.4927559  49.4638100  36.8288383
  19.9672146  48.9369125  36.2268257  21.2234383  48.8944817  37.0700874
   6.7525778  32.6150780  86.0277100   5.9014330  33.0007973  85.8203354
   7.3856578  33.1783638  85.5825729   3.7525260  57.3101921   3.1079266
   3.1854124  56.8749466   2.4713924   3.6063585  56.8329163   3.9246721
  -0.1509485   2.1260836  82.2123108  -0.0114997   1.4365904  81.5631714
   0.7294499   2.4339206  82.4276428  51.5378914  67.0101700  53.9119720
  51.4205246  67.9595261  53.9463730  50.7560425  66.6882858  53.4632683
  32.0049210  68.4978333  64.6776810  31.5347214  68.5154572  65.5112457
  32.1559219  69.4195709  64.4683304  50.1637688  62.4830246  72.2488327
  50.6120377  62.9805603  71.5649109  49.6033859  63.1254692  72.6841049
  19.6396408  60.0194397  19.5285473  20.5803280  60.1746521  19.6137028
  19.2495060  60.8931732  19.5534382   0.9328766  20.5328255  31.5766888
   1.5736073  21.0539398  32.0605659   1.0997576  19.6315556  31.8525391
   8.7403765  37.2516403  74.7172852   8.1455889  37.9988594  74.6530762
   9.0765896  37.1360779  73.8285599   7.8293471  50.9051170  75.4870529
   7.1825733  51.1505127  74.8254700   7.3302975  50.8532295  76.3022156
  50.6211205  14.5739050  40.2565269  51.1200752  13.8542156  39.8700981
  50.9233704  14.6148434  41.1638298  60.7852058  63.3497543  83.5381317
  60.3481636  62.6628685  83.0347366  60.6581802  63.0946541  84.4519272
  69.5843811  47.1823196  87.0731049  70.2666245  47.0887527  87.7379608
  69.2911911  48.0896568  87.1568298  75.8188782  41.8981552  47.0510254
  75.7591171  41.0921593  46.5381622  76.7200089  42.1955833  46.9256172
  65.8222198  33.2167244  40.1303406  65.7895432  33.8179893  40.8744125
  65.5821762  32.3664932  40.4987335  12.9953957  60.8894157  52.9536514
  12.6959257  60.9478111  52.0463829  13.4203768  60.0336533  53.0109901
  63.5952911  69.1073456  66.6956863  63.1740570  68.3057175  66.3855362
  64.4584122  69.0998688  66.2819290  82.9705582  42.8776512   2.4989421
  82.7270203  43.7458916   2.8200037  82.6463699  42.8556061   1.5985827
  59.0910263   8.6564007  29.1877842  59.4766006   8.9104996  30.0262337
  58.2514801   9.1154175  29.1613216  49.9188538  17.9785748  60.2725792
  48.9928055  17.7366562  60.2606697  49.9218864  18.9224720  60.1135750
  37.0628052   2.2118354  40.8262634  37.7927475   2.6869664  40.4291954
  36.3858414   2.2038310  40.1495857  70.0601807  46.5198593  14.5110569
  70.1632690  46.7483139  15.4348612  69.4907227  45.7504959  14.5166922
  37.7185059  38.9039230  78.2949371  37.7653885  38.7151985  79.2321777
  36.7812576  38.9275322  78.1019592  35.6544533  39.5099640  75.1047363
  36.5990753  39.5764046  74.9650650  35.3303642  40.4017372  74.9784927
  72.6846390  44.2020988  14.8540773  72.9248581  44.4656563  15.7423706
  73.0839233  43.3391380  14.7440529  38.7873955  54.5214119  72.6313019
  39.4555588  55.1673203  72.4019699  39.1399345  53.6895409  72.3151703
  14.8622227  13.8280249  56.6064339  14.3158159  13.2775812  56.0454674
  15.7576942  13.5463657  56.4192696  24.2686863  50.2761345   9.2720928
  23.6625977  49.9412308   8.6112394  24.7034607  49.4956932   9.6157713
  73.9496002  52.0318604   3.0690620  73.9909210  52.1156616   2.1164329
  73.3762665  52.7459259   3.3476748  32.5712700  23.6208439  79.0650635
  33.5184822  23.7586994  79.0692520  32.3451042  23.4838676  79.9850235
  83.5814743  64.8923492  77.1685181  83.8451614  64.3591537  76.4185791
  83.4801331  64.2651901  77.8844986  61.8843193  35.0345879  48.2809143
  61.2609673  35.3870468  47.6457481  62.2928619  35.8078499  48.6700058
  31.5294781  56.3842010  56.5527039  31.3292809  55.4849129  56.8123932
  31.0041656  56.9260979  57.1414528  49.3672295  64.6054230  21.8668385
  49.8166237  63.8519897  22.2497425  50.0545807  65.2617569  21.7528458
  16.7830982  66.5437317  33.1306686  16.5183811  67.2832184  32.5835648
  16.1103268  66.4953461  33.8098373  27.6960392  47.0245895  60.2261620
  28.6509647  46.9706535  60.2641182  27.4706936  47.7202148  60.8438683
  51.9481544   3.4313574  59.4423752  52.4546509   4.0295954  59.9917412
  52.5830193   3.0879533  58.8136864  57.0698128  65.6721802  43.0417633
  57.4479942  65.0289459  43.6413193  56.1814156  65.8118515  43.3695984
  22.9013519  51.3202400  28.3640518  21.9889584  51.5587769  28.2001324
  23.0638962  50.5794983  27.7800026   2.2475679   2.1998560  26.2920170
   2.1608641   2.9064543  25.6521492   3.0317891   1.7239908  26.0185566
  15.7307377  35.6710739  76.2044754  15.8917351  36.3953934  76.8091812
  14.7817783  35.6701126  76.0791473  15.3786211  50.9614029  61.3991318
  14.7601118  51.5493469  60.9655418  16.0019188  50.7214890  60.7134399
  84.8909378   0.2286299  43.7008133  84.0176926  -0.1052691  43.4954147
  84.9898758   0.0781934  44.6409264  16.7263584  23.4814968  86.4492950
  17.0574913  22.8388157  85.8219604  15.7832956  23.3208046  86.4815826
  33.5611572  57.5267334   1.4122465  34.1536598  56.7791748   1.4918270
  32.7382584  57.1482430   1.1027067  11.4260921  35.6321640  66.1297379
  11.5007772  36.3262253  65.4748077  12.2590809  35.6565857  66.6006546
  25.5315342  25.0848160  67.5806198  25.9438667  24.8950043  68.4233475
  26.2615356  25.1409168  66.9640350   8.9705210  54.3615646  64.6965103
   8.4730806  55.1590881  64.8774643   9.4753761  54.2078018  65.4950790
  80.6227875  67.8208618  29.3292542  79.9406281  67.1701584  29.4949875
  81.4064178  67.3040085  29.1421165  33.5357933  55.6620026  33.4961510
  33.9977264  54.9527512  33.9431610  32.9104614  55.2173157  32.9239235
  11.6749554  57.6473618  16.5307293  11.3781128  57.3344955  15.6761932
  12.5492535  58.0004959  16.3660164  50.8614998   1.1070116  60.8434677
  51.5213051   1.7111849  60.5030785  50.1662979   1.6744339  61.1765747
  67.9471054  44.9829445  37.7071686  68.0508957  44.0410385  37.5720100
  68.2110748  45.1249886  38.6162186  14.9190702  63.7392349  64.2688370
  15.4485426  63.4973984  63.5089607  14.0292492  63.4756012  64.0344238
   7.6280189  51.2785149  67.7386169   8.5392675  50.9946785  67.6658630
   7.6367869  52.1895905  67.4451981  47.8173828  28.6615639  23.2247963
  47.3124008  27.9461727  22.8382263  48.4198914  28.2295609  23.8302631
  77.8414001  42.0480156   1.6137673  77.2808914  41.4385071   1.1335943
  78.5585251  41.5058098   1.9423660  53.7321739   9.0840101  83.4570999
  53.0118217   8.9935694  82.8332825  54.4471474   8.5769157  83.0725174
  16.6632442  40.1722298  40.9157486  15.8651896  39.6453972  40.8734894
  16.3670940  41.0320435  41.2144966  86.4558182  58.8493195  31.9099522
  86.2852173  59.4185600  31.1595554  85.6993713  58.9750748  32.4828453
  53.9730949  25.9033318  46.6279640  53.8323288  24.9580498  46.5744934
  54.6686935  26.0781307  45.9940720  16.5053558  38.0333443  77.3000107
  16.6298904  38.3782425  78.1841888  17.3638802  38.1204987  76.8857956
  71.3560944   3.8544753  47.2364960  71.4030609   3.4684255  46.3618546
  70.4242172   3.8404746  47.4547539  74.1680603  34.8589363  23.9179821
  74.1096573  33.9958839  24.3278122  74.4800644  34.6820412  23.0305195
  69.9623718  18.2321949  19.8784657  69.6484909  19.0421829  19.4764347
  69.7898483  18.3461781  20.8130646  49.8607826  42.2479019  52.4266396
  50.5975418  42.8298111  52.6131897  49.9132004  42.0897255  51.4840546
   5.2631860  52.7757835  40.2346992   5.3508711  52.5925102  41.1700897
   4.7427788  52.0474472  39.8956833  28.5104752  39.8985329  20.6301556
  28.3672543  39.2145424  21.2842827  28.4165192  39.4498024  19.7898884
  31.2703285  54.2104149  60.3279991  31.3229332  53.2637901  60.4597816
  30.5024853  54.3321953  59.7695923  57.3118324  17.2930756  27.8251076
  56.5939560  17.2854080  27.1920013  56.9526024  16.8605976  28.5997982
  62.8868828  48.1355095  33.0931206  63.5286217  47.9663200  32.4033585
  62.2612000  48.7406616  32.6949425  43.4001389   6.6091518  18.7031879
  43.1210899   6.4500837  17.8014889  43.1685905   5.8066101  19.1706753
  56.6043320   5.3321457  46.7853050  55.7139244   5.4424844  46.4517975
  56.6126137   5.8165059  47.6108704  28.7873631  58.7995071  14.6491547
  28.6573315  59.1440468  13.7656298  27.9245720  58.4773407  14.9099874
  37.4958153   6.5180192  19.2460861  37.6358032   7.3504539  18.7947674
  36.8745308   6.0463247  18.6913433   4.9519134  65.3506851  31.2092113
   5.2029452  64.9081345  32.0199966   4.4141326  66.0888290  31.4958515
  51.0568275  71.1181183   7.3435445  51.2108498  72.0512924   7.1962423
  51.5360489  70.9203644   8.1481991  20.2852764  14.9752388   6.2164960
  20.5791168  15.8459749   5.9487119  19.8446426  14.6228428   5.4432621
  58.4080353  22.9374733  41.2828293  59.2742615  22.5306740  41.3027191
  58.2942734  23.2143497  40.3736382  51.4800911  66.5054016   6.3463130
  52.1885414  67.1411743   6.2456937  51.2977943  66.2069244   5.4552970
  29.9833965  48.6350365  83.5286713  29.2646923  48.8749695  84.1135864
  29.7116508  47.8013573  83.1447906  12.2179070  39.5617790  26.4930305
  11.4353695  40.0753784  26.2928181  12.7086878  39.5428963  25.6714401
  78.7059402  14.7262917  62.2833252  78.1686707  14.5242939  63.0493317
  79.1498795  15.5432329  62.5108376   1.3560302   9.0068340  68.5964890
   1.5078758   8.0623875  68.5618973   2.2326584   9.3910007  68.5834122
   6.0299430  49.9546623  37.8095245   6.4253454  50.7015190  37.3599701
   5.1746855  49.8496017  37.3927193  69.0305557  29.0403461  70.1749344
  68.4345093  28.5074444  70.7012253  69.8969193  28.8635998  70.5415421
  52.4435692  23.3116131  77.1496811  52.1227455  23.3286457  78.0513535
  52.0149765  24.0568886  76.7288437  68.8335648   2.3383684  23.9236107
  67.9273529   2.2129817  23.6420250  69.0013046   3.2702081  23.7830105
  81.5885315  71.1401749  65.9193039  81.9793167  70.5935822  65.2375717
  82.1441574  71.0004730  66.6861038  34.2941666  68.0727539  81.0436249
  33.7473717  67.3507614  81.3534317  35.1798935  67.8384018  81.3207474
  64.5320969  34.0150414  37.7087784  65.3912125  33.9511185  37.2915726
  64.6152267  33.4963608  38.5089569  55.0931892  57.5806274   3.2480273
  54.7883797  58.4775314   3.1105971  55.6027184  57.6221733   4.0572767
  70.7651367  44.7412224  67.7859955  70.2137985  44.1299210  67.2975616
  70.1464310  45.2823219  68.2765503  73.5248718  25.5772285  70.1125641
  73.6873322  26.2113590  70.8109360  74.1747360  24.8895550  70.2575302
  64.7733612   9.3232632  51.6847801  64.1017151   9.9225187  52.0103874
  64.3441696   8.8451834  50.9752274  38.4423256  42.0920181   2.4127762
  37.8942070  42.8480568   2.2025278  39.3017349  42.4659309   2.6072924
  46.7776871  70.4093399  34.3136940  47.0932083  70.6536865  35.1837349
  47.5574837  70.0961761  33.8553467  75.1765213  35.1457481  49.3433456
  75.9512634  35.1310539  49.9053001  75.3549500  35.8386345  48.7074966
  70.0606232  29.4281540  78.6860962  69.7116699  30.0860806  79.2874222
  69.6838684  29.6565552  77.8363113  84.2715912  24.0575905  51.2589493
  84.1260300  23.6472874  50.4064865  85.0499573  23.6210518  51.6050911
  33.6175041  46.2182961   3.0160484  32.7558365  45.8181152   2.8993537
  33.7539101  46.2212029   3.9634748  35.1721268  10.5073395  10.4687548
  34.9383621  10.7066164   9.5621805  34.3375893  10.5106087  10.9375477
  52.8206711  51.2786598  67.0967331  53.0060196  50.5556221  66.4974899
  52.0697823  50.9786911  67.6090012  78.7676468  64.8463821   9.5997992
  78.5094757  63.9273987   9.5287352  77.9417038  65.3296356   9.5771151
  45.7619133   8.1205320  36.5577888  44.8388977   8.0839291  36.3069229
  45.9043617   7.3208685  37.0642242  78.5441208  21.2432766  29.7930717
  79.0876846  20.8611031  30.4820671  78.9092026  22.1176414  29.6572971
  54.5815659  56.0493813  51.8452530  55.3280830  56.6310692  51.7017632
  53.9195595  56.3514442  51.2233734  39.6606560   1.7539321  72.9521484
  39.5597954   1.3569359  73.8172760  39.0271339   1.2933413  72.4019318
  65.9802246  40.9568748  78.2748947  66.4481506  41.6126328  77.7579269
  65.0848923  41.2906837  78.3313828  30.8674240  30.1012955  56.2879219
  31.3164940  29.7766819  57.0684280  31.4888382  29.9532280  55.5750732
  18.1265411  39.8657532  28.5079880  17.5044479  39.9419899  29.2314644
  18.9781265  39.7669830  28.9337578  36.4508057  31.7758312   4.6179686
  35.7098312  31.1760712   4.7044535  36.1720161  32.4068222   3.9543734
  80.4569092  10.2228050  13.2601357  81.2121353   9.7024975  12.9860039
  80.0967178  10.5704603  12.4442759  83.6384964  48.8746643  72.5733337
  83.1067352  48.1073227  72.7846603  84.2075043  48.5829544  71.8610382
  61.9133873  54.5497627  48.4815712  62.5262947  53.9262123  48.0920067
  61.1491776  54.5260582  47.9056778  43.7359047  37.9421005  74.6687622
  43.1769180  37.6942978  75.4052124  44.5521507  38.2334785  75.0750504
  31.1827469  59.4654121  84.6736450  30.2966824  59.2959824  84.9936676
  31.2632236  60.4191551  84.6850128  72.0909805  27.7936077  10.1666317
  72.3869324  26.9160786  10.4086819  71.1847610  27.6712112   9.8837671
  16.3830318   3.7121396  86.9815292  16.8337212   4.5280089  87.1994019
  16.2690792   3.7477019  86.0317993  21.3828106  45.5589752   2.8121188
  20.8590717  45.0135956   3.3990519  20.8212643  46.3093758   2.6176994
  62.3157768  71.2700348  26.5746479  62.2700348  71.1958694  25.6214218
  62.6220436  70.4116516  26.8672504  70.0246124  53.8079720  41.5801430
  69.3974152  53.6808891  42.2919731  70.5020447  52.9798012  41.5308876
  47.0490990  44.8567467   2.1248047  47.5497627  44.1610832   1.6986362
  46.7826004  45.4332314   1.4086492  55.9118347  23.7084332  31.9158554
  55.4627838  24.0136833  32.7041512  56.5924797  23.1191368  32.2409439
  69.3618240  64.2263794   9.5245638  69.5749130  63.3733482   9.9029303
  69.7482376  64.2033615   8.6491280  30.0058422  46.5015106  11.2912598
  30.6277370  46.9378967  10.7089844  29.1476231  46.6980629  10.9156847
  53.7122269   4.0023379  29.3855152  53.1168976   3.7904582  28.6665421
  53.7361221   4.9590864  29.4026508  55.3531075  58.2797356  70.8115387
  55.2081413  57.5238266  71.3805847  56.1261826  58.7098846  71.1769943
  68.4321823  47.3345337  36.3497467  68.3611832  46.5617676  36.9101257
  67.7892685  47.9481049  36.7052994  46.3666191  51.1579666  31.5924892
  47.0776711  50.5430832  31.7729168  45.8823013  50.7586937  30.8698215
  42.2431946  23.7564602  71.9162216  42.6849670  24.0490112  71.1190491
  41.5719490  24.4200439  72.0753479  30.6656227  51.7294617  52.3625412
  31.1171112  52.4599266  52.7853966  31.3320065  51.3255081  51.8066788
   3.4432120  28.5221214  20.5293884   3.2015953  28.9610863  21.3449650
   4.2249398  28.0165653  20.7519798  72.1437302  25.3300438  52.3247490
  72.3658371  24.9732437  53.1847458  71.2568283  25.6743526  52.4300690
  55.3905602   1.9654619  80.8152084  56.0741959   2.4343712  80.3366699
  55.5716209   2.1525881  81.7363129  85.9952469  10.3854656  15.8606968
  85.6596680  10.7867088  16.6623344  85.4353256  10.7328911  15.1664209
   9.5123882  31.0345020   8.3318329   9.5283871  31.9901066   8.2789488
   8.6964846  30.7842617   7.8983436  85.5154572  18.3638172  32.2294388
  85.8282700  17.4873142  32.0055580  85.4650192  18.8216991  31.3903732
  76.5205994  43.2940102  73.8630066  76.9783249  42.8695984  73.1373291
  77.2059784  43.4722481  74.5069885  25.1993370  66.5138092  64.3984756
  25.0153065  65.8809433  63.7043266  25.1406250  67.3662796  63.9671097
  69.8364410  52.4335823  86.9651413  68.8986969  52.2471428  87.0110931
  70.0018539  53.0143166  87.7078476  77.0031509  29.8777409  12.8233986
  77.6013565  29.8699722  12.0761852  76.1487503  30.0835056  12.4440670
  20.5355721  32.2486458  20.6653214  21.1946545  32.0949821  21.3422470
  20.6767426  33.1560173  20.3951702  86.2794800  37.8363762  22.7313900
  85.8081284  38.6492119  22.9140396  87.0428925  38.1111450  22.2235184
  49.8062744  -0.1769380  56.2064857  49.7294159   0.7448428  55.9602203
  48.9661407  -0.3867271  56.6143951  81.8066940  66.9867401  39.7156944
  82.7011185  66.7066650  39.9101181  81.6662979  67.7479019  40.2788582
  56.3411484  68.2816925  24.6854458  55.5853462  68.1847687  24.1061325
  56.9894714  68.7476120  24.1574059  41.5290298  30.8183575  62.9804153
  42.4711189  30.7948360  63.1481819  41.3453217  31.7347946  62.7739601
  69.8326721  49.3224068  30.6088963  69.2546539  48.5594940  30.6183643
  70.7123184  48.9553566  30.5209789  75.6225357  18.1762791  72.2397614
  75.8888779  17.3155155  72.5628433  74.7482376  18.3095322  72.6059189
  72.2243500  18.3680019  80.2716293  73.0309296  18.0651665  80.6886978
  71.5724106  18.3536930  80.9723434  84.2595367  47.4530029  76.3572311
  84.5713806  47.2896767  75.4671097  84.7609406  46.8461533  76.9018021
   0.7440624  43.2006950   1.8217200   0.3535137  42.7728767   1.0596981
   0.5690922  44.1323853   1.6891812  31.8568573  47.4770126  80.3908539
  32.6126900  47.0515747  80.7957611  32.2244453  48.2326012  79.9323807
  50.5645256  63.7531319  35.9402237  49.7393303  63.3931732  36.2653580
  50.4113655  64.6967163  35.8910217  69.9738846  56.0516930  44.2811852
  70.2318192  55.4287682  44.9606438  70.8016891  56.3649940  43.9167480
  71.0699387  56.3003464  28.5020771  70.6027374  56.1139221  27.6877060
  71.9830627  56.0885620  28.3082161  34.9154739  48.9966354  43.5303802
  35.5881081  48.6078720  42.9712181  34.4234505  48.2485008  43.8686638
  82.6084137   0.1437486  27.1740456  81.7913666   0.3534566  27.6264744
  83.2942810   0.3594514  27.8059425  20.4324818  63.0255432  81.4545288
  20.5061798  62.4111366  80.7242508  19.6738529  62.7180023  81.9506454
  79.6786957  42.2978935  14.2993193  79.7510376  42.7033768  15.1633692
  80.4128952  41.6849861  14.2601395  48.3094711  13.6150284  15.2412052
  48.3940353  13.5573721  14.2894926  47.3777771  13.4723043  15.4079599
  71.6964493  27.4832726  77.5742645  71.1380310  28.1793995  77.9203873
  72.3532562  27.3418198  78.2560577  16.9694691  24.5139179  65.7835388
  16.2525654  25.0812588  65.4999847  17.1797428  23.9893913  65.0109558
  35.7398682  50.1970596  11.6808567  35.6182060  49.4349365  12.2470703
  35.3577919  49.9362869  10.8428555  59.0957565  58.1513100  52.1511841
  59.4441414  57.2723236  52.0020485  59.2530327  58.3167496  53.0807648
  54.9563675  24.5904408  34.2435722  54.5756226  23.9342365  34.8272324
  54.2770615  25.2596111  34.1599731  52.2189903   1.6749560  80.5687790
  51.7655830   0.9352705  80.9731522  53.1370888   1.4058189  80.5389404
  21.4892559  56.2718468  30.0104752  22.2999058  56.7350616  29.7995014
  20.8877945  56.5078392  29.3042278  67.8983002  26.0376244   6.4873066
  68.1349106  26.9532337   6.6353159  67.0242157  26.0758762   6.0990467
  42.4859695  35.7017021   9.2844629  41.6539993  36.1748199   9.2696972
  42.2360001  34.7777367   9.2903233   7.0002122  48.0640755  47.3023453
   7.5943456  48.8049088  47.4223671   7.5018158  47.4366722  46.7817764
  20.8489857  52.0413399  81.9676437  20.9862938  52.1407166  82.9097137
  21.7163258  52.1713066  81.5841522  78.1760712  57.0852203   2.6375868
  78.5832291  56.6120644   3.3632410  78.7439804  56.9083099   1.8876458
  80.3990936  57.5035667  19.0450516  79.6281357  57.9093208  19.4415646
  80.2100906  56.5653191  19.0594978  77.3153763  24.0960007  63.7885780
  77.0916595  24.8310909  64.3593903  76.6419067  23.4398766  63.9679489
  77.3185043  49.9701004  27.3434792  77.9374619  50.6794777  27.5164051
  77.6127853  49.5921669  26.5147476  42.2239914   6.3574214  72.1794357
  41.6691284   7.0084763  71.7499084  41.6091766   5.7793012  72.6311111
  67.0472946  31.6009045  71.5371246  66.1471405  31.5003357  71.8467255
  67.1689224  30.8821487  70.9167786  46.8837700   4.9208660  52.1190414
  47.1849747   5.6759877  52.6243134  46.5449867   5.2962251  51.3062897
   3.9347847  64.0594406  84.3546829   4.1598902  63.2322044  84.7804031
   2.9825742  64.0296402  84.2617416  46.7876968  54.6466255   0.6736129
  46.1870537  55.1464500   1.2264593  46.5156746  54.8507271  -0.2211389
  35.8505478  47.2048416  25.4264011  35.8110275  47.3865318  24.4874344
  36.1589279  48.0230255  25.8159008   4.0511589  39.9881554  84.5458145
   4.9648829  40.0915718  84.2800140   3.5837679  39.8057556  83.7306366
  51.1664009  14.9966097  43.2973175  51.6392593  15.8186846  43.4270439
  51.0457916  14.6477356  44.1804771   3.7886372  20.5449238  20.2689800
   4.2189832  19.7021713  20.1247482   4.3479676  20.9941216  20.9027004
   0.1268222  24.7418442  54.1785774  -0.0210258  24.4946613  55.0914154
   0.8150013  25.4059448  54.2187157  53.8639526   7.4037981  14.2573051
  53.2619438   7.9565396  13.7590151  54.2876701   8.0038023  14.8710566
  48.4104576  63.2477455  37.1751099  47.9005394  62.6252289  36.6567574
  47.7649307  63.8772850  37.4963722   0.7691644  61.6732635  32.5732880
   0.1145108  61.7479591  33.2676086   0.9254284  60.7324409  32.4916496
  46.9160576  63.2570076   4.6297517  46.7585526  63.3271561   5.5712938
  47.8164711  63.5605774   4.5142660  19.4699249  27.6444893  22.7652855
  18.6797791  28.1688919  22.6352711  20.1906853  28.2528992  22.6022739
  78.6344986   7.9013867  59.2146072  78.6150818   7.0861068  58.7134361
  78.0523682   8.4910469  58.7353859   4.5619569  52.2586288  62.6257896
   4.2917371  51.3491707  62.4989204   5.2763796  52.2098389  63.2609673
  74.5490265  29.2221336  42.7302818  74.0322266  29.0685024  43.5211945
  75.4408798  28.9755287  42.9752693   2.6242664  42.5121346  30.2722321
   3.4488516  42.9739227  30.4240303   2.8882692  41.6490326  29.9534950
  62.9187355  24.2618198  83.5554962  62.1697121  24.7399254  83.1996689
  63.6252136  24.4238052  82.9302902  45.8288422  30.2085648  24.2154408
  46.5305405  29.8001461  23.7084408  45.3657188  29.4740982  24.6183167
   8.0264111  61.7049561  44.7207718   7.1669416  61.2838783  44.7053032
   8.0789633  62.1727715  43.8873367  52.4004593  55.7582817  70.0394287
  51.5528946  56.1183357  69.7782288  52.5467415  55.0289040  69.4370651
  57.2837906  43.6194954  68.7119980  57.5802422  44.5021210  68.4899139
  56.3480148  43.6233864  68.5106506  80.9548111   1.4772017   4.3866954
  81.5286484   1.1556243   5.0820608  80.7506332   0.7002720   3.8661919
  29.6747398  59.5311966  68.9900436  28.9318504  59.9854774  69.3875046
  30.4423561  59.8979759  69.4287567  50.2859154  55.2169380   2.9072762
  50.1289902  54.9290085   3.8065553  51.2279854  55.3822212   2.8696504
  31.1654510  26.3007107  11.3827705  31.3413010  25.3607006  11.4238758
  31.9808044  26.7098122  11.6727171  52.0597153  35.7639236  34.6495056
  52.6733513  35.5614471  33.9433289  51.8337288  36.6841316  34.5139427
  86.7470627  19.2536945  11.0817633  87.0855408  20.1352444  11.2383947
  86.2604828  19.0390472  11.8776283   4.2520347  70.5800705  32.9024925
   4.0982447  71.4739685  33.2083206   4.0634346  70.0308228  33.6634026
  31.1198597  51.9992294  79.6398621  31.3183880  52.9095802  79.4205933
  30.7901192  52.0355606  80.5377350  69.0704117  14.0286760  28.7204685
  69.2624588  13.1247501  28.9700050  68.7564011  13.9665604  27.8183746
  31.7554150  57.3214188  70.7417603  30.7997665  57.2760315  70.7718964
  31.9487228  58.2563210  70.6723099  20.4069405  20.8452129  42.4704590
  20.0919247  21.5019493  43.0914993  19.6648045  20.2524567  42.3516922
  39.2266693  45.8590355  45.1260185  39.2353477  45.9857216  44.1772766
  40.1236038  45.6037102  45.3417740  10.3056746  56.1403618  53.4297371
   9.9768114  55.6113663  52.7029343  11.2098770  55.8493347  53.5478630
  48.2911339  20.4761429  73.6726761  48.7197723  21.1572609  74.1909256
  48.9415398  20.2309628  73.0145798  28.8888130  53.0182724  28.1784916
  29.0268879  52.8259468  29.1059513  27.9372787  53.0506248  28.0796680
  86.0926208  24.7728939  60.4286690  86.7876740  25.4145889  60.5748215
  85.2946701  25.2965260  60.3557816  28.3297482  26.0621758  10.5778351
  29.2504711  26.1012688  10.8366280  28.1129665  25.1302128  10.6039886
   1.3855777  31.8272953  69.7737045   2.0516171  32.3963394  69.3879395
   1.3797766  32.0605202  70.7020340  75.5244293  58.6245728   6.6515350
  75.4760132  59.5306320   6.3466744  74.9500580  58.1410675   6.0577726
  15.1012793  70.6767197  49.4117279  15.9552765  70.9070969  49.7775764
  14.4829178  70.8444748  50.1228638  69.9204330   8.4460869  84.3919220
  70.7434692   7.9580951  84.3651810  70.1349945   9.2520132  84.8616867
  59.1854439  13.2123079  42.4251022  59.4367447  13.0294199  41.5197678
  58.2704201  12.9367161  42.4800186  23.9948463  52.5545502  50.0745010
  23.9426422  52.9930229  50.9237633  23.8762550  53.2566299  49.4347725
  59.6292839  56.7151260  64.6692047  58.9494972  57.1369400  64.1436615
  59.7384529  57.2906952  65.4261932  42.3563843  47.0401421   3.3905008
  42.6519470  46.1441574   3.2289932  42.9659729  47.5865288   2.8944180
  47.0598259  63.6849136   9.5018282  46.7642555  64.0308762  10.3439550
  47.9190140  64.0846939   9.3669081  60.8289909  52.6137314  65.2297516
  60.7550278  51.8969612  65.8598328  61.6575661  52.4516106  64.7787399
  55.9211540  19.2732773  84.5301514  55.0675583  18.9632626  84.2276688
  55.7595139  19.5911179  85.4184570  17.5952129  64.8356552  80.7768631
  17.7727547  64.0682907  81.3207855  17.2811108  65.4980240  81.3923569
  80.8985367  19.3562088  29.0984058  80.0845108  18.9119797  29.3355961
  81.5237350  19.0856915  29.7708473  45.4620628  56.4613647   4.0521874
  45.8848572  56.8444862   3.2836223  46.0953598  55.8232384   4.3807688
   8.0583296  22.8696423  85.0074615   7.2555766  22.3652859  84.8753891
   8.5636768  22.7295666  84.2066879  10.9707880  44.3550339  81.7705078
  11.8608541  44.0565643  81.9574051  11.0863428  45.2159500  81.3683853
  39.3375854  41.9683304  64.2781906  38.9078407  41.1519661  64.0230484
  39.6365433  42.3497734  63.4527473   7.1117501   7.5474052  21.0711288
   6.9207926   8.3790636  21.5048466   6.7001944   7.6260619  20.2105083
  15.1554279  37.9187622  71.5962524  14.8022919  37.1103973  71.2246704
  15.9621372  37.6483612  72.0348129  53.8315125  31.5308971  11.7674065
  53.4043617  31.4252377  12.6174707  53.1861496  31.2163544  11.1343203
  60.6300926   9.1051979   0.8079445  60.2924614   8.2655487   0.4961312
  59.8482018   9.6354046   0.9620841  53.4982491  36.7307053  81.2360229
  53.5430832  35.8293381  80.9170303  54.4090424  37.0246964  81.2520142
   2.1877735  48.1990318  12.9202862   1.7623738  48.0248985  12.0806770
   1.6114438  47.7951698  13.5691090  36.5895500  45.1920967  38.6531754
  36.7901001  45.3633080  37.7330132  37.3516617  45.5212784  39.1296806
  85.4948730  59.0045242  46.1734238  85.9178391  59.6391716  45.5950203
  86.1683426  58.3445816  46.3381653   6.9360981  57.1069565   3.6790900
   6.3540044  57.0412674   4.4361134   6.6917696  56.3663254   3.1241102
  62.4799614  12.2642508  57.0306053  61.6932449  12.0616474  56.5243835
  62.3295708  13.1491823  57.3630371  70.1750641  48.2974472  55.3355255
  69.3251801  48.5358887  55.7057724  70.4260788  47.5018730  55.8048744
  83.3200302  15.8509159  54.9475403  82.4835510  15.5970726  55.3375282
  83.3532104  16.8020458  55.0499306  36.1465988  41.2572708  48.0069199
  35.9778137  40.7324982  48.7894516  36.6741638  41.9918823  48.3203735
   4.4109063  67.4234238  80.2076035   5.1026921  67.4885406  80.8659515
   3.8873050  66.6712952  80.4839478  74.4965363  60.2781601  50.6979408
  74.2944489  61.0345612  51.2486267  74.6695938  60.6507378  49.8333778
  62.9272308   1.1327924  62.4192429  62.8755264   1.8246064  63.0787506
  63.5275383   0.4885443  62.7944908  26.1133385  60.4388008  48.2533569
  26.3052292  61.3743401  48.3179588  26.5268078  60.0555191  49.0269012
  16.1221695  48.3413506  32.4027481  16.0558891  47.5406761  32.9230995
  16.4963264  48.0551758  31.5694790  86.8462830  42.0464439  69.8761902
  87.0657883  41.6049271  70.6966248  86.0361176  41.6263466  69.5874405
  52.3357239   8.4728966  18.2773857  52.4579239   9.3490858  17.9118824
  51.4988289   8.5207300  18.7395000  19.0107059  53.0478363  45.8618355
  19.8766918  52.8950920  46.2399483  19.1783428  53.5886192  45.0900307
  27.5893364  17.8367500  67.6084518  27.7241688  18.6646843  68.0695114
  28.4670200  17.5681458  67.3368759  47.5011673  33.4904480  27.6651001
  46.6353149  33.8962288  27.6217880  47.9490395  33.7969666  26.8766289
  21.5844822  32.7007904  74.1963806  21.0796490  33.1489754  73.5177765
  22.4930496  32.9444008  74.0192032  42.7653542  34.9520149  26.8500633
  42.9187202  35.7496185  27.3565598  42.4056854  34.3313141  27.4837818
  61.3551483  65.6065979   2.4908819  61.0156021  66.2834778   1.9054126
  62.0524445  65.1839981   1.9894742   4.4071321  28.0600109  78.1944504
   3.7217674  27.8559799  78.8307495   4.7507076  28.9078732  78.4760818
  11.8956213  38.7540131  30.3228512  12.8079329  38.8085823  30.0383492
  11.5198498  38.0537071  29.7893715  54.9558258  51.4808464  76.6886292
  55.3441925  50.6194191  76.8414230  54.6608124  51.7672997  77.5530014
   0.0865988  16.6779881  63.5964203   0.6292846  17.4276733  63.3520927
   0.1718359  16.6206341  64.5480957  84.1845322   9.3542652  40.0376816
  84.4771652   8.8444691  40.7931328  83.6565704  10.0584803  40.4139366
  73.4619980  58.3620110  47.2711716  73.4591217  58.9172173  48.0508957
  74.3104477  58.5295715  46.8609543  34.0658798  57.5057411  45.0924797
  33.7798309  56.8459816  45.7242393  33.8678932  58.3422546  45.5135269
   6.8247538  59.1848907  88.9530487   7.2051330  59.2576637  88.0776901
   7.3064766  59.8245506  89.4774628  71.9854584  59.3187447  81.0006866
  71.0651855  59.4914169  81.1994858  71.9904556  58.4316521  80.6411362
  66.6340866  69.9334412  34.4263992  66.9359894  70.8149109  34.6456985
  67.2313309  69.6399689  33.7383614  56.8359222  17.3363419  11.9279833
  56.8033600  16.8200588  11.1226110  57.7701111  17.4634399  12.0934010
  28.0992756  63.2224579  82.0067215  27.5944672  63.9069519  82.4458923
  28.9665318  63.2689285  82.4091339  49.2705650  22.7390900  78.6680832
  48.9615974  23.5036163  79.1541519  50.1943398  22.6610451  78.9063644
   7.3437505  53.5305367  25.6943493   7.2771864  52.6904945  26.1483650
   8.1763487  53.8978729  25.9911232  54.2182884  22.2990685  16.6642818
  54.9148521  21.6522388  16.7767086  53.4084473  21.7993565  16.7676182
  62.9139633  17.2534046  78.0797119  62.1530800  16.7213440  77.8468933
  62.5895271  17.8550472  78.7497864  66.6627426  18.1167221  18.9060192
  65.9986038  17.8444443  18.2727585  67.0386353  17.2967796  19.2263718
  46.9660835  49.6132240   2.1436875  47.0900993  50.5488396   2.3033199
  47.7460327  49.3479652   1.6562949  76.4745407  39.9791412  44.9876480
  76.9678192  40.7071342  44.6095848  76.5772934  39.2668419  44.3565331
  29.6475925  43.4707794  62.5962982  29.5378609  42.6592445  63.0918808
  29.0662079  44.0961037  63.0289574  78.8950958  37.0631523  54.4476318
  79.1528549  36.4931526  55.1721268  78.1845398  37.5965996  54.8036880
  40.8715935  65.0526733  17.0359955  40.9763985  64.1014175  17.0168514
  40.6016541  65.2458725  17.9337921   7.7071533  64.1342545   0.8042501
   7.7554240  65.0844116   0.9096077   7.4088264  63.8137436   1.6554283
  43.3990593  43.1080780  52.1199226  43.6910362  42.1965065  52.1246986
  43.2777100  43.3158569  51.1934586  30.6005764  48.1987572  26.1592102
  31.1318932  47.9093742  26.9009590  30.2910004  49.0687294  26.4112873
   9.1846704  70.9142380   9.5657454   9.8343296  70.8145065   8.8698807
   8.8480759  70.0295029   9.7077675   8.5399647  14.2578611  66.5572815
   8.9580030  13.8456354  65.8012695   8.5003815  13.5649452  67.2164688
  39.3845482   9.7068586  71.5262680  39.2002602   9.1584415  70.7636948
  38.5404015  10.0996580  71.7484207  79.9936981  54.2734184  43.1374855
  80.8607788  53.9445953  42.9002571  79.3854065  53.7200775  42.6475639
  80.9112320  46.4966393  55.3520050  79.9573441  46.5691490  55.3191643
  81.2269745  47.3140182  54.9667435  69.3839188  52.8046799  61.3019485
  69.5318527  52.1669502  62.0002670  68.6994934  52.4120483  60.7600670
  43.2168846  52.1482468  56.5553207  42.5645676  52.6609306  56.0779648
  43.8076439  51.8210907  55.8769379  77.7843933   2.3350985  57.7968216
  76.8618240   2.3488629  57.5420494  77.8043900   1.8083973  58.5958328
  49.3060493  60.5394287  19.8702068  48.6129456  60.5316124  19.2100716
  48.9965515  59.9403114  20.5495472  75.2386475  70.8437119  83.2580261
  74.7002335  70.5396347  82.5273590  75.4696655  71.7434616  83.0271225
  53.1223335  69.4328461  80.0669479  53.9835510  69.2057571  80.4176178
  52.6495628  69.8016434  80.8130798  19.6147175  11.7580652  46.6117401
  19.6492233  11.2984285  45.7728271  18.9703369  11.2710352  47.1253624
  36.0490036  36.1658478  84.4102173  35.7904282  35.9172630  85.2976685
  35.9892197  35.3537979  83.9069977  70.9503326   3.8517957  52.3760414
  70.8448639   2.9500997  52.0726357  70.0602951   4.2034626  52.3959198
  59.2935371  36.6295242  19.9364491  59.0275993  37.4784698  19.5831776
  59.0839996  36.6818771  20.8689632  47.9904289  17.1414585  22.2035580
  47.8378563  16.2476521  22.5102539  47.7089806  17.6957531  22.9314156
  20.7503376  66.2210770  74.0950012  19.8335571  66.3582001  73.8563766
  21.2186756  66.2276688  73.2602310   1.7603474  23.2109222  18.6954441
   1.3183802  22.5065422  19.1695194   1.1127195  23.5146828  18.0594101
   4.5173526  25.5848866  73.4211349   5.0612497  26.1976013  73.9160995
   4.2243333  24.9459591  74.0708618  21.8261490  31.3278503  81.0170135
  21.2543736  31.9310608  80.5422058  21.9901829  31.7621632  81.8540955
  67.4991455  55.3885574  88.6052017  67.8709793  54.5495338  88.8772430
  68.1445923  56.0381813  88.8837967   6.1139431  39.0836868  19.0016785
   5.3067217  38.5818787  19.1148758   6.2411819  39.5252876  19.8413410
  35.0533600  63.5710373  32.9502678  34.2787285  63.4988823  32.3926163
  35.0442085  62.7721558  33.4774666  85.9117050  22.9592876  66.4148254
  86.2302399  23.7215538  66.8982697  84.9617920  22.9821320  66.5304565
  33.4017944  39.6934090  32.2032661  32.9032402  39.9648323  31.4325466
  32.7755508  39.7481651  32.9251060  78.2824249  43.1184921  46.7190018
  78.4355164  44.0578690  46.6171951  79.1485519  42.7227516  46.6217957
  77.9343796  22.0509491  69.7680588  77.5638123  21.1756420  69.6551666
  78.4371719  21.9951992  70.5806656  64.1634293   4.2795792  63.1991234
  63.6618805   4.6113911  63.9438248  65.0191803   4.0580297  63.5663261
  73.6900253  62.9670639   6.3359380  74.2551498  62.8384476   7.0977292
  72.8253708  62.6780510   6.6276221   1.0176662  42.4815407  81.2909012
   1.4772720  42.6940498  82.1032028   1.5238444  42.9206543  80.6073914
  84.3170776  36.5461121  66.6943130  83.3724594  36.3928642  66.6732330
  84.6365280  36.1869278  65.8665619  80.3536682  53.9963684  80.9700928
  79.4830933  53.6598244  80.7577972  80.2127686  54.9246635  81.1562195
   9.3582745  68.8026810  16.1350040   9.7158747  69.4678879  15.5469055
   8.4151459  68.9662094  16.1363163  48.8960075  34.2753334  55.4812889
  49.6737938  34.5949287  55.9386063  48.1903267  34.3574448  56.1227722
  82.7838440  66.4743271  73.1574707  81.9670258  65.9957275  73.2988205
  82.7901917  66.6655197  72.2195816  79.0836868  71.6720734  39.0708160
  79.2031250  71.9071655  38.1506538  78.8281937  70.7498093  39.0511818
  39.7726746  29.8772602   8.7246418  40.6471367  29.7033100   8.3763742
  39.5353279  29.0740986   9.1881390  56.0068932  27.5398388  17.7968502
  55.1978951  27.0288792  17.8227959  55.8692856  28.2388592  18.4361191
  48.6611137  65.5743637  66.4038467  49.5665245  65.7683563  66.6463928
  48.1933594  65.5328369  67.2379379  25.1882248  58.2706642  85.6402664
  25.0001202  58.6601028  84.7863388  25.4509354  57.3720398  85.4410477
  54.7675743   3.2123816  72.5782547  55.4673080   3.8047917  72.3031998
  53.9991531   3.5056949  72.0886307   6.4428773  21.0976257  75.0392761
   6.6008596  21.9842396  75.3636093   5.5271192  20.9228535  75.2562408
  79.7801361  38.9519234  56.8875122  79.4246445  39.6575584  56.3472023
  80.7221985  38.9727783  56.7192459   6.5833597  49.3504944  83.2772141
   7.0835233  48.5345573  83.2596436   6.9233470  49.8235321  84.0367355
  15.8919210  49.3269691  71.6426773  15.5178213  50.1162720  72.0341949
  15.2422638  48.6446609  71.8118896  74.6908417  28.7960663  63.4238510
  74.1237793  28.6197109  64.1745605  74.4060745  29.6523113  63.1044998
  16.1653023   6.7189288  10.1990538  15.6561604   5.9464941  10.4447174
  16.9609261   6.3649278   9.8016911  48.2443695  22.8077030   3.3071933
  48.1047478  22.0678310   3.8982317  47.5577393  23.4328060   3.5396094
  71.7106400   2.7777822  54.7121925  72.1294174   1.9434706  54.5005722
  71.7128448   3.2629683  53.8870735  78.1047516  56.4169655   5.3079515
  77.2737656  56.3684273   4.8353620  78.2550049  55.5247917   5.6204934
  64.9090881  22.4591522  59.6244659  64.1172638  22.6107292  59.1084595
  65.4827805  21.9611626  59.0421295  33.8989258  64.6367645  30.6511421
  33.2364540  64.6092911  29.9607716  33.5159225  65.1940994  31.3285770
  35.8964157  33.5390625  12.6990633  36.0871506  32.7565079  12.1818933
  36.2437439  33.3418007  13.5689383  84.6408463  71.0847015  87.2323303
  84.6866074  71.9242172  87.6898727  84.1608810  71.2768173  86.4267502
  16.9218082   7.8898597  18.6830959  16.9244175   8.8453903  18.7395477
  16.0316486   7.6378479  18.9287319   1.7518301  64.8393784  45.2088318
   2.5663607  64.7467728  45.7029915   1.7870735  64.1404037  44.5558167
  45.8901062  43.5315323  50.8187828  45.6144676  42.6487083  51.0655098
  45.1715736  44.0955238  51.1048851  60.1824684  51.3498688  39.6107101
  60.8735542  51.8971748  39.2377625  59.8455086  50.8498688  38.8672791
  27.3279896  44.4199448  33.3425369  27.8834858  45.1218109  33.0033607
  26.4764214  44.5686493  32.9314995  73.5405045  70.6612396  81.0262527
  73.3300781  69.7275848  81.0106964  72.6912231  71.0991440  80.9696732
  41.9409409  48.9334297  82.2548218  42.7219391  48.4612465  81.9661713
  42.2711372  49.7783241  82.5603714  83.1579590   1.6832849  80.9572678
  82.3493042   2.0962248  80.6543045  83.1537628   0.8186316  80.5466690
  23.8625851  67.7621078  75.9274445  23.5280056  67.2381897  76.6553192
  24.8024063  67.5810242  75.9141388  85.2197571  55.4982529  11.3679056
  85.6240082  54.9944725  12.0743151  85.2488174  54.9141273  10.6101551
  75.4651718  49.1358261  56.2621880  75.9399490  48.3085022  56.3419151
  74.8797226  49.1499290  57.0193405  51.0256462   9.6904335  31.9498749
  51.9319000   9.7760305  31.6538811  50.7285690  10.5916567  32.0754623
  64.0213165  30.6554394  25.9858322  63.2768974  30.4467487  26.5502090
  63.9054146  31.5804768  25.7687950   6.8072004  61.6473656  83.2863388
   7.1851311  61.3515968  82.4581375   6.0471711  61.0807343  83.4186935
  30.5132122  55.8254738  75.2065353  30.4433918  55.0406075  74.6630859
  30.0235672  56.4934311  74.7266312  80.7431870  26.5358887   5.8671579
  80.4341431  26.8660221   5.0235157  81.4771729  27.1070690   6.0935426
   6.0220761   6.3021884  16.7693710   5.7532945   5.7145667  17.4755497
   6.9759946   6.3397765  16.8390751  17.2237244  15.8805208   1.7148631
  17.6149635  16.3517895   2.4504387  17.2955837  16.4860439   0.9770218
  51.2950478  35.6345863  24.8881760  51.5298386  36.0510826  25.7174110
  52.1346970  35.4209938  24.4812412  85.0017929  29.3913383   5.6139684
  85.9165955  29.1517410   5.7622008  84.9978638  30.3482208   5.6382775
  11.4699278  49.2021561  76.7331390  10.9554319  49.0553970  75.9394226
  12.3507376  48.9040222  76.5061569  14.4747429  71.2928085   2.3355291
  13.6690340  71.4863968   1.8563741  14.1762562  70.9250412   3.1673229
  46.4156456  47.1908493  25.9513226  47.1099396  47.4225960  26.5681515
  46.5536652  47.7742424  25.2051067  55.6032410  31.1189919  38.5503159
  55.6954536  31.9371929  39.0384521  54.7013931  30.8429489  38.7137146
  78.3132858  54.7637100  39.2009583  78.5257568  55.6115685  39.5911217
  78.9810867  54.6360130  38.5271835  79.8725586  56.2540131  55.5204468
  79.8589554  55.3327942  55.7800713  80.7461243  56.3861771  55.1521339
  72.0054855   9.0037184  81.2623444  71.4158630   9.4880857  81.8402405
  71.8944321   9.4168396  80.4060593  77.6052856  62.3758507  57.9866829
  77.9510422  63.2116432  58.2999496  77.1129532  62.0267487  58.7296295
  19.8223248  39.2928467  37.1976509  20.0703392  40.1496048  36.8502541
  18.8685188  39.2700424  37.1204033  72.4889755  29.7899380  68.7337418
  72.7511063  30.2793274  69.5134964  73.3000488  29.3930397  68.4161682
  60.7340050  25.7799625  82.0848236  59.8163490  25.7281647  82.3521423
  60.7877541  25.2279015  81.3047180  57.5322609  69.8790207  41.7374306
  57.8760338  70.3905792  42.4697914  58.1231842  69.1289368  41.6709442
  21.2684307  12.7935219  81.2465134  21.8219528  12.7537718  80.4665985
  21.2311630  11.8899059  81.5600739  33.2567978   3.0919230  67.6772919
  32.4030190   3.3153367  68.0479431  33.1385193   3.1824141  66.7317505
  56.0977669  56.3803444  61.1830978  55.1819038  56.1905746  61.3866043
  56.5737495  55.6021156  61.4729805  69.5564423  66.4813843  60.6687584
  68.6444473  66.7072144  60.4857254  69.8692932  67.1877213  61.2339516
  60.4950142  25.5179558  63.8572044  60.6296997  24.6014004  63.6163292
  59.9676819  25.8780041  63.1441002   6.5180035  60.8863297  35.4194717
   6.8449783  59.9998398  35.5726204   5.6470871  60.8923225  35.8165855
   2.5388744  22.1652050   0.5023273   2.3922360  23.0151691   0.9174041
   3.3569620  22.2734718   0.0173088  62.6967010  25.9563236  22.3912315
  62.0283852  26.2708969  23.0000248  62.6292076  26.5426121  21.6376114
  71.8806152  37.5887566  67.2489700  71.9566574  36.8024025  67.7894287
  72.0480576  37.2836456  66.3572845  58.0254211  15.3515177  54.8079681
  57.9346771  14.5861797  54.2402916  57.7172470  15.0529556  55.6636086
   2.1746321   1.8984976  56.9544449   2.8719413   1.3457611  56.6016350
   1.4423419   1.7749199  56.3505287  23.5246906   2.5752676  63.8497238
  22.9239349   3.1922472  63.4318008  23.3799953   2.6982799  64.7878952
  48.7761993  56.6852875  31.6633778  49.4415398  56.6125641  32.3476753
  48.2722130  55.8744278  31.7321987  47.7731743  51.5009727  62.9293060
  47.2008400  51.8820114  63.5952454  47.7856369  52.1490173  62.2249527
  82.8311157   7.7948136  48.3818665  83.4600601   7.5071144  47.7201271
  81.9848404   7.4861374  48.0581894  39.0024834  49.0743980   2.0616040
  38.6433029  49.8702660   1.6694090  39.4825058  49.3818932   2.8305378
  48.7551727  42.9710884  81.5413361  49.4788780  42.3649902  81.6998444
  47.9762764  42.4943085  81.8281021  53.4583626   0.8302132  84.4617691
  54.2213173   0.2876347  84.2624283  53.3875275   1.4268974  83.7166672
  85.9650803  58.5771942  72.0534897  86.6272812  58.7181740  72.7301331
  86.3817215  57.9811172  71.4311218   2.8656099   0.8162084  36.4448471
   2.2565749   1.4748645  36.7787323   2.7869933   0.8780111  35.4928818
  37.5159340  54.3278236  34.7555580  36.5651054  54.3747711  34.6558151
  37.8346329  54.0647392  33.8921623  56.1018410  66.2464294   5.1903677
  55.6415863  65.5182571   4.7730432  56.7107925  66.5596695   4.5215702
  49.3015099  34.2293053  21.8929234  48.7523804  34.3829155  22.6617508
  49.7152138  35.0752335  21.7211990   0.4230944  61.4361572  47.1933632
   0.8418159  60.7284813  47.6833649   0.4505347  61.1452255  46.2818604
  76.3424759  70.6515656  13.7870283  76.7624435  70.3794479  12.9710569
  77.0622330  70.9682007  14.3328543  85.2138824  39.2428513  31.4967709
  85.8534546  39.6000023  30.8806381  84.3646698  39.4888458  31.1299419
  10.7215185  46.1779175  62.0010262  11.3816881  45.8811607  62.6273994
  10.8892050  47.1151276  61.9022980  80.3840256  16.9470673  85.4487762
  81.0799408  16.7336464  86.0703735  79.8799744  17.6365280  85.8809814
  10.2767639  58.5957108  51.1874580  10.9631252  58.0310020  50.8321495
  10.1217890  58.2582436  52.0696869   1.6007966  44.8852081  14.1091070
   0.9115471  44.2322998  13.9871197   2.1652365  44.7836761  13.3427324
  31.1988850  56.7368927  60.9863129  31.9209442  57.1898575  60.5507851
  31.3690205  55.8081818  60.8288765  41.0721893  37.3965034  72.9731064
  41.9120445  37.1202545  72.6062851  41.0070190  38.3249779  72.7496643
  46.1185150   2.2815065  30.1730595  45.4793777   2.1492934  30.8732414
  46.0428009   3.2096961  29.9517822  71.8318253  56.7443466  80.0513916
  72.5484085  56.3495903  79.5544891  71.1189194  56.1085815  79.9897690
  63.4509430  18.1523037  49.8547134  62.7557220  17.7540550  50.3784485
  64.0772324  18.4820957  50.4990997  20.5036335  12.1382627  12.9559679
  21.3573494  12.2058029  12.5283689  20.4692822  12.8936520  13.5428572
  13.3818855  69.5070724  45.5567932  13.7190208  68.8311844  46.1447945
  12.4616318  69.2765121  45.4295006  50.6772652  40.9363785  47.8777885
  51.0245743  40.7661591  47.0022125  49.7366905  40.7780151  47.7973251
  36.2462311  40.4733810  70.2772751  36.4069405  41.2901535  70.7498016
  35.7370644  40.7364235  69.5105972  15.6870480  15.8576155  85.4506531
  15.3417597  15.0507107  85.8326340  15.0680418  16.5352688  85.7224045
  37.5754929  69.8705978  84.2433548  38.3010292  69.2724533  84.4223709
  36.7894669  69.3493195  84.4066391  20.7044945   5.0678763  67.2872696
  21.0610771   5.6577687  66.6231079  21.3074703   4.3245220  67.2959595
  46.9512634  40.8378906  81.9935074  46.0756531  40.8848572  81.6096649
  47.3856201  40.1326904  81.5136566  33.0938148  36.3373451  67.8942413
  32.9443588  36.0414658  68.7922134  32.9517975  35.5571289  67.3582153
  60.8119125   3.4883833  40.0937729  60.5249557   2.9525127  40.8331833
  60.0581856   4.0433378  39.8933907  33.3440933  56.0689240  41.5595207
  33.9273224  56.8013458  41.3604279  33.7299347  55.6591110  42.3337364
  79.5183029  50.9737778  14.7019768  80.1116943  50.6506996  14.0239315
  78.6432419  50.7736778  14.3696356  84.8672333  65.0731201  88.1423416
  84.5447845  65.3595657  88.9968643  85.7925949  65.3179626  88.1411591
  54.6715775  42.6615715  52.3458138  54.4963455  43.2179527  51.5868912
  54.8156700  43.2762642  53.0652733  75.7135849  25.9590569  65.3033218
  75.7033386  26.8121815  65.7372665  75.1061554  25.4234676  65.8136215
  50.1186562  21.3786240  23.7855816  50.4996338  20.7167015  24.3625984
  50.1705856  22.1921787  24.2872429  82.4199371  21.5488548  62.7115555
  82.5441589  22.4735241  62.4975739  81.8110809  21.5536308  63.4501381
  37.1142998  29.2190132  73.0444641  37.9626656  29.4587803  73.4173203
  37.3251915  28.5909176  72.3536301  61.6688538   3.1729784  89.0094910
  60.8389511   2.7213461  88.8561172  61.7539940   3.7751617  88.2703247
  19.9099026  18.1611671  30.1941662  20.7449703  18.0371075  29.7430515
  20.0798435  17.8818035  31.0937824  29.1598034  12.9558516  72.1580048
  29.0273228  12.3251600  71.4502563  29.3798695  13.7736797  71.7119522
  40.4573441  38.7219200  28.8999310  39.8999825  38.6680717  28.1236057
  39.8562546  38.9423218  29.6115093  31.5516453  29.2044449  16.7252026
  30.7243767  29.0130501  16.2833576  32.1615410  29.4050522  16.0152607
   9.7524920  20.4475918  85.6555481  10.2792749  21.0375290  85.1163788
  10.0538597  20.6072807  86.5499268  16.7169952  43.2890663  41.0060692
  17.3590527  42.9934998  41.6515427  16.7330208  44.2438507  41.0721550
  76.3669128  51.9857788  33.8003502  75.6648483  52.1531219  34.4291000
  77.1491776  52.3538322  34.2112427  48.2339554  38.0490112  29.1610813
  48.8889771  38.7353058  29.0339012  48.3818398  37.4397697  28.4377651
  27.7966442  66.5062866   5.7853160  27.6359310  66.0578766   6.6155748
  27.8026085  67.4361115   6.0125256  35.1221504   3.3695543  24.4159222
  34.8637314   2.9939957  23.5742531  34.3541641   3.8629878  24.7039356
  37.3434372  51.4635162  47.6377144  37.6108780  51.2238731  48.5250015
  36.6427269  50.8473854  47.4241257  75.8636398   3.7048054  76.1576538
  75.7091980   4.0724783  75.2874832  74.9893570   3.5029821  76.4910126
  86.4231720  18.3222713  40.8528633  87.0534286  19.0261517  41.0063667
  85.6487198  18.7655411  40.5065002  79.3225403  52.5784416  33.2857819
  79.5514450  53.2097549  32.6036720  78.6491241  52.0278435  32.8863068
  33.8967285  46.0844574  75.1626053  33.9267998  46.7111893  75.8854675
  34.7977829  46.0451927  74.8420029  14.9878950  42.2659225  17.0571327
  15.4297295  43.0514336  17.3796043  15.0456619  42.3328438  16.1040230
  42.7952080  59.2262917  20.2989826  42.3118248  59.2730637  21.1238365
  43.1474991  60.1079750  20.1774940  81.0513840  18.3541088   2.1386888
  81.2101288  17.6419315   2.7582321  81.3711548  19.1371479   2.5868254
   5.4544864  37.6739540  72.5920181   4.8616562  38.0781250  71.9584351
   5.3150373  38.1683350  73.3997116  46.8345070  49.0615425  66.3565750
  46.0523529  49.5569153  66.1135178  47.4094315  49.1326256  65.5945740
  24.1662483  63.4574165  18.6614628  24.1655140  64.3203735  18.2473011
  24.6576843  62.9018097  18.0564632  77.8207016  51.3545341  31.1707306
  77.0719147  50.8408928  31.4735737  78.3107834  50.7548027  30.6082554
  69.3781967  15.9254503  37.9161911  69.4661331  15.5521421  37.0391846
  70.2597122  16.2250443  38.1384697  63.9744225  36.3193054  78.1791000
  63.2640724  36.8270798  78.5712738  63.6126785  36.0003242  77.3522873
  27.7930927   8.0056744  80.8257675  27.3840561   8.6909914  80.2973175
  28.6440201   7.8601704  80.4122696  21.1106319  13.1890783  85.8690414
  21.9013195  12.6750250  85.7053528  20.7994862  13.4339800  84.9975815
  58.0690231  49.8332367  68.8139191  57.7263603  48.9399300  68.8425217
  57.2895355  50.3887672  68.8103027  49.4800682  11.8743820  66.8248215
  50.1507034  11.3076677  66.4436111  48.6557312  11.4194756  66.6522980
  37.2301331  44.4740105  17.5433044  37.7458649  44.8696022  18.2459831
  36.4200096  44.9835129  17.5247917  60.5246506  49.2305908   7.9838829
  61.2566566  48.7978363   8.4233398  60.0475998  49.6689606   8.6885004
  30.7937069  26.6836910  14.6133862  30.1921406  27.1323147  15.2075958
  30.7762756  25.7703991  14.8994417  27.9510460  43.8045387  41.9600601
  28.8290367  44.0745239  42.2292633  27.8813534  44.0902672  41.0491638
  27.3366451   8.0601683  85.8287811  28.2902660   8.1318216  85.7874985
  27.0973263   7.5866222  85.0320969  28.9713593  61.0186310  78.5213242
  29.3742352  60.1517181  78.4725037  29.7048569  61.6156540  78.6688995
  32.0632057  31.6483517  76.7902451  31.9844093  32.3671303  76.1630478
  31.1634731  31.3535271  76.9309387  73.9749603  57.8846512  42.3961525
  74.8112640  57.4895439  42.1497421  73.3680115  57.1464615  42.4502754
  77.0102539  19.7421970  57.5525627  76.5744553  19.2407589  58.2416725
  77.6834106  19.1510620  57.2154350  22.5332718  51.6234169  77.7292786
  22.5579376  52.0824738  76.8897018  23.2021999  50.9433365  77.6501465
  63.9756584  34.3640594  21.8806953  64.7926712  34.4591827  21.3911285
  63.8710175  33.4189796  21.9907246  19.9528694  64.5246735  12.1428194
  20.6536465  63.8815155  12.0356379  19.2446804  64.0390320  12.5657234
  12.3474684   8.8209953   3.7606385  12.1383781   8.7538700   2.8289692
  13.2993088   8.9189148   3.7860413  37.3980827  70.4923782  11.5166473
  36.6721344  70.3624954  10.9064369  37.1833344  71.3048553  11.9749041
  63.1405754  15.2591791  42.6121330  62.7605629  14.4216032  42.8772545
  63.6064186  15.5675688  43.3893852  75.1940994  60.4917755  20.7840614
  74.7686996  61.3190155  20.5583477  75.1118240  60.4320259  21.7358456
  77.9394913  54.6131554  63.7605095  78.5752411  54.2907257  63.1216888
  78.4723816  54.9299927  64.4898071  66.7512894   0.4091290   8.3841352
  66.6501160   0.7864304   9.2579994  65.9282150  -0.0532625   8.2261286
  17.7517910  60.8621178  24.6426334  17.7126102  61.2454987  25.5188255
  16.8484917  60.6101227  24.4508457  57.3787956  64.7637863  74.8267136
  57.0497093  63.9755058  74.3948059  57.3727150  64.5464096  75.7588882
  52.5171394   2.5593843  88.4951324  52.5051384   2.9680772  89.3606186
  52.6762047   1.6319110  88.6704102  44.7790947  57.5016403  45.3768158
  45.1101723  57.5475044  46.2737617  43.9017334  57.8812218  45.4256516
  45.6470642  61.3834839  29.4080906  45.1532440  61.7666626  30.1330376
  46.0426483  60.5944138  29.7783775  13.9719868  56.6624184  54.1714020
  14.2539616  57.1316147  54.9566269  13.3906498  55.9758797  54.4984245
  67.0754013   6.5265455  63.1105652  66.3627853   6.8094969  63.6835785
  66.7895584   6.7760501  62.2317772  44.7896309   4.0512724  59.6651382
  45.4169006   3.9475441  58.9495926  43.9422951   4.1430173  59.2294388
  65.1056976  39.4928970  18.8916969  65.5204239  38.6341705  18.9743271
  65.5263519  40.0278015  19.5648689  68.8719025   6.9003339  37.0406113
  67.9634552   7.1380410  36.8549805  68.8960953   6.7684770  37.9883766
  78.1762466  63.8715973  55.4165077  78.2835846  62.9362793  55.5893860
  77.3682938  63.9297295  54.9065475   8.2987518  40.8271713  13.0561628
   8.5353813  39.9121552  13.2077646   7.8111916  40.8151779  12.2325287
  83.8910904  56.9814072  86.7805634  84.3896255  57.5950165  87.3201675
  84.0999832  57.2299385  85.8800964  80.9180908  63.9591904  85.2670441
  80.0893326  64.4160995  85.1234436  81.2766190  64.3570633  86.0603790
  66.6904449  13.3049917  71.7051086  66.4050293  14.0167503  72.2779694
  66.2026138  13.4410114  70.8928528  29.8185272  71.3319550  83.6066742
  29.8642540  71.2937012  84.5620117  30.4977875  70.7263260  83.3099365
  57.8190613  42.1400490  18.7782841  57.5175514  43.0152092  18.5345268
  58.2746086  41.8183441  18.0003300  20.1390514  70.4814301  54.3082085
  20.3611183  70.8610992  55.1583710  19.7670803  71.2095718  53.8105278
  37.2274971  63.1544800  86.2328644  37.4256439  63.8740463  86.8321915
  36.2909584  62.9956131  86.3507004   7.1450500  65.5113831  69.5767975
   7.8846622  64.9592514  69.3231049   7.4302449  65.9371796  70.3852463
  48.2460327  10.6782064  57.3746872  48.8998795  10.2106342  57.8943901
  48.4976959  11.5990219  57.4453773  20.4961796  52.0924110   7.6689076
  21.1505375  51.7762375   7.0459461  20.7957935  52.9699821   7.9062428
  78.4140472  13.2893705  32.8561897  78.3733444  13.8873920  33.6024742
  77.4984207  13.1257696  32.6301422  48.0968132  10.1660023  20.2974014
  47.7804184   9.4406395  20.8358955  48.5861206   9.7442532  19.5910473
  15.5400209   4.0372505   3.5622144  15.5797205   4.8341379   4.0910115
  15.4236660   3.3325129   4.1994252  28.3928986   9.3913155  16.0928326
  27.8610134  10.0372438  16.5577068  28.8669224   8.9291601  16.7841702
  50.5257378  23.9310589  68.6663284  50.8652878  24.7853775  68.9329376
  49.6549568  23.8855782  69.0611725  51.2155533   8.0594263   2.4814014
  51.0149574   8.2459812   1.5642372  52.1326714   7.7854114   2.4750459
  29.6730309  55.0363731  46.6108627  30.3808212  54.4170456  46.7888985
  29.8688087  55.7902412  47.1672668  77.5198898  44.1750259  69.0797119
  77.1123047  44.7304497  69.7442551  77.3762741  43.2820244  69.3930130
  18.1400852  10.2415590  71.2410583  18.7923183  10.6428175  70.6667557
  17.6149826   9.6916008  70.6596375  48.4872246  16.4592819  14.2599630
  48.0481567  17.1119843  14.8053322  48.2503242  15.6196241  14.6537704
  80.0923538  15.8442211  78.5893784  79.4319000  15.9154196  79.2785492
  79.9723587  14.9641237  78.2326431  83.0565033  64.8465042  36.5362968
  83.9053497  64.9366837  36.1032295  83.1182175  64.0195923  37.0144615
  65.7342834  71.5832062  20.2241096  66.4855728  71.4125519  19.6560669
  64.9833603  71.2454071  19.7360229  27.1132145  11.2886610  17.5226192
  27.5219841  11.7468920  18.2568970  27.2118073  11.8870678  16.7820644
  40.7187538  43.9112053  18.0423527  41.2750397  44.1015167  18.7977047
  40.6889191  42.9553375  18.0016403  17.9239788   2.5286112   8.6835880
  17.6865273   1.9860538   9.4355717  18.7177467   2.1219957   8.3359842
  78.9917908  34.8620949  86.2963943  78.2970734  35.3000107  86.7881546
  79.6045990  34.5586166  86.9661636  60.2751427  30.4036980  53.3355942
  59.8861084  30.7358551  52.5265465  59.6808128  29.7091999  53.6196213
  30.9032536  61.8776360  42.1969643  30.5040035  61.2314835  41.6144562
  31.7298775  62.1053123  41.7714233  76.0345917   6.3850017  51.9656143
  76.3427963   7.0264764  52.6057320  76.2051315   6.7928734  51.1166191
  53.2283859   6.2067976  71.2933578  53.0851860   5.2776880  71.1131363
  52.4077415   6.5037727  71.6865234  79.6739960  29.5822678  11.1084709
  79.8130188  30.0082016  10.2626076  79.0337906  28.8940125  10.9277172
  26.7910156  15.6506042  82.7005920  25.9979687  15.6200161  82.1654510
  27.1112061  16.5473938  82.6032333  76.3016357   2.0458143  15.4932480
  77.1945724   1.7871051  15.7212172  76.0689850   1.4801639  14.7569447
  28.5971527  41.7116890  32.7976913  27.9632607  42.4289017  32.8021355
  28.0625076  40.9198608  32.7394447  79.5437241  45.4482880  42.6740036
  79.5304642  44.5269012  42.4149628  78.8141251  45.5351295  43.2874985
  18.1053066   2.2327855  76.4016113  17.4558811   2.1350579  75.7052460
  18.1271267   1.3773452  76.8305359  82.7495117  69.8930283  11.8874493
  83.0048599  70.8105087  11.9836035  81.7942276  69.9027481  11.9472809
  18.0263157  35.0047493  71.6490479  17.9909611  35.9264832  71.9047699
  18.3029251  34.5464783  72.4425888  62.4764862  10.2590847  66.3540497
  63.1533089   9.7436085  65.9153824  61.8140335   9.6169624  66.6091309
  72.7708664  22.9858475  23.3873386  72.1890793  23.5019150  23.9453945
  73.4862671  23.5834179  23.1697292  17.3792095   0.6941983  86.1845016
  16.5962791   0.8325127  86.7175369  17.2002735  -0.1121893  85.7008133
  41.5446014  24.3655319  68.5879440  41.6534843  23.5749168  68.0594482
  40.6192284  24.3644543  68.8327103  74.8522720   5.5072684  69.2515869
  75.7831192   5.5590777  69.4685440  74.4953537   4.8765059  69.8768692
   9.8295288  50.5526009  16.2350140   9.4309635  51.1403656  16.8768158
   9.5420065  49.6787567  16.4995136  82.5990219  36.4694099  77.1969070
  83.0734558  36.5570335  76.3701859  81.6948853  36.6962471  76.9794006
  43.7815514  47.7562904  44.0850067  44.2878571  47.0170364  44.4217415
  43.3998795  47.4332275  43.2688026  41.8974495   8.7194700   5.7078352
  42.3748894   8.6061077   4.8859887  41.1862373   9.3221111   5.4904985
   1.8307897  16.0690918  82.4366302   1.7218624  16.0056248  81.4877625
   1.9239413  15.1621571  82.7282104  74.2606354  40.6862450  81.8677597
  75.2171097  40.6681137  81.9003296  74.0360031  41.6137543  81.9419098
   1.9783932  67.6758270  46.4862785   1.7912750  66.7425308  46.3854141
   2.2742612  67.7642365  47.3923035  51.9058495  55.5967522   9.9788647
  51.7537918  55.8548431  10.8879852  52.7914658  55.9052734   9.7872257
  61.4066010  44.0865974  27.2810230  60.7893410  44.2531509  27.9933987
  62.2641754  44.2890701  27.6549320  68.4911880  21.2634258  43.8985291
  67.5816879  21.3530083  44.1831589  68.6866531  22.0901489  43.4574432
  60.7234726  41.4811211  52.6396828  61.3586845  41.8454399  52.0232315
  60.6608429  42.1365929  53.3344269  27.9210720  12.8907804  15.4352522
  28.1807041  13.7893915  15.2319727  27.6204987  12.5334721  14.5996580
  62.0414009  46.1624489  20.4676895  62.2026176  47.0604095  20.1780243
  62.0435944  45.6466370  19.6613598  17.7495613  61.6102448   1.3442919
  17.0762711  61.3468361   0.7169738  18.0725479  62.4475975   1.0114946
  38.9560928  46.1694374  23.5843353  38.1520805  46.5980606  23.2909451
  38.7184029  45.7572021  24.4148750  68.9590759  25.9125004  23.2588387
  69.7375031  26.4225941  23.0350227  68.2544250  26.5586853  23.3051090
  67.1310883  66.6531601  32.4302483  67.3951263  67.5302353  32.1523018
  67.6579285  66.4804382  33.2105293   0.0885619  20.4586563  56.3111076
   0.3398044  21.3756409  56.2004318   0.1963950  20.0741024  55.4412079
  31.6103020  37.9035606  76.5726700  30.8673801  37.4861946  77.0086823
  32.3761940  37.4325867  76.9010315  64.4649200  23.5948753  81.3068008
  65.3050766  24.0531044  81.3269119  63.9485931  24.0698090  80.6556015
  80.8926849  31.6767693  63.9545326  81.3034592  32.5310211  64.0877686
  81.0526962  31.2040558  64.7713394  76.0575562  12.3713884  72.2714386
  76.9839706  12.6039696  72.2090073  75.9534454  12.0397577  73.1632996
  69.3495255  49.8392830  78.0024109  69.4612350  50.7878036  78.0661697
  69.7883911  49.6007805  77.1858673  83.1678543  36.8745728  19.8428154
  83.1521225  36.4589348  18.9807091  82.8646469  37.7683716  19.6833572
  40.9442177  36.5447044  68.4068604  40.8988266  35.7945938  67.8139801
  40.0349922  36.7062912  68.6587143  42.7369652  24.0560131  87.9249039
  41.8269272  23.7902832  88.0570145  42.6874199  24.7755699  87.2956085
  29.4954510  28.4363918  12.2190952  30.2150345  27.8149872  12.3299379
  29.7433147  28.9559422  11.4543324   4.0135322  31.9760189  29.8972321
   4.3627305  31.1326809  30.1854515   4.7585340  32.4166756  29.4885406
  45.6098785  49.1400795  84.0998688  44.8447037  49.7149734  84.1152878
  46.3471947  49.7271347  83.9326553   9.1126432  64.8332443  81.7979202
   8.2775650  64.6783981  82.2393951   9.0336685  64.3670044  80.9656906
  80.8593979  64.7181854  68.5735168  80.9286194  64.7685928  69.5268784
  80.2754440  63.9765663  68.4146576  67.3029480  45.7356033  19.6626320
  67.3228760  44.8167534  19.3951378  68.0490952  45.8288727  20.2549133
  47.0475388   2.4715765  53.9139595  47.8025360   2.6432393  54.4767570
  46.9922714   3.2402847  53.3462753  48.4520493   0.3304833  52.6540871
  47.7658386  -0.3342915  52.7125587  48.0942230   1.0857627  53.1207199
  19.2326164  37.4739571  76.6281891  19.8523235  37.8669434  76.0135727
  19.1880913  36.5538712  76.3680115  11.8066292  15.7988310  66.2525101
  11.1898336  15.9541197  65.5371933  11.5810328  16.4565697  66.9103241
  53.6166954  23.3725967  24.1495399  53.8096313  23.2948818  25.0838680
  53.2842216  22.5100670  23.9010773   2.5265794   1.8666904  39.4728546
   2.7815812   2.4027376  40.2237587   3.1829231   2.0631692  38.8043938
  43.3774185  45.1717186  42.8061485  43.0918999  44.5820312  43.5039864
  42.7172165  45.0690193  42.1207161  86.1041031  56.1780777  60.4821892
  86.4339981  56.2530632  59.5867653  85.1605530  56.3179550  60.4023132
  51.4969139   4.4687901  40.6642113  52.0777168   5.1718211  40.9551506
  51.9165726   3.6669676  40.9759789  33.8731232  62.7119942  40.8743935
  34.1397972  61.7931328  40.8458939  34.2057381  63.0833740  40.0572777
  64.5832748   8.6555405  85.0878525  64.1597672   9.4257545  85.4668579
  64.9023972   8.9526644  84.2357330  15.7202997  51.7854080  40.0599785
  14.8960104  52.1831055  40.3403664  15.4557724  51.0543480  39.5015831
  78.1781845  59.2575874   6.3167181  78.5249100  58.6953011   5.6240077
  77.2462311  59.0426903   6.3556414  25.1932926  63.0135117  36.2062607
  24.6379166  62.2723694  36.4481316  24.7821922  63.7683640  36.6274796
  36.8654823  26.4731255  16.8655834  36.5767975  27.1295033  17.4996643
  36.2128372  25.7757778  16.9287529  53.0906982  33.7738495  21.2065125
  52.3169899  34.1046486  20.7502460  53.8003464  33.8632240  20.5704002
  60.6755867  26.0570507  73.7008972  61.0496902  26.2122536  72.8336105
  60.5976753  26.9291458  74.0876923  72.0786362   5.9759083  18.1881790
  72.4013290   5.9849763  19.0892982  71.7597122   5.0829902  18.0569553
  32.3286705  56.6138840  38.1143837  32.3871269  56.9533653  37.2213173
  31.4051876  56.3874626  38.2245750  14.0837221  57.6040154  45.0096550
  13.5649948  57.9483719  45.7366829  13.4650202  57.5428467  44.2818489
  16.3391209  22.2610626  17.0429649  16.0716438  23.0971489  16.6613293
  16.3585072  21.6549931  16.3023319  72.8362198  15.3425045  61.7317657
  71.9599152  15.3859797  61.3491135  72.6826324  15.2335358  62.6702576
  42.5278015  40.2714348  36.4099197  43.1639824  40.7374992  36.9524002
  43.0141411  39.5262680  36.0571632   9.7785559  48.1190796  25.2861633
   9.2897577  47.5812035  24.6632690  10.4669104  48.5276108  24.7612820
  81.0494385  62.9815369  45.8970299  81.0686722  63.2730942  46.8085442
  81.6142807  63.6012650  45.4353714  69.6010208  19.8778858   8.8569193
  70.3491364  20.2445049   9.3282442  69.5026932  20.4406071   8.0888643
  76.4866867   5.5316372  30.7803612  77.2667236   5.4894905  31.3335247
  76.8091202   5.3507147  29.8974476  37.9717522   4.7982864  86.0046005
  38.3573380   4.2953963  86.7220001  37.0381241   4.5903420  86.0410690
  31.3269920  55.0704918  87.5205688  31.2641621  55.7337570  86.8332748
  31.2083588  55.5581779  88.3356247  81.5837631  52.2649269  86.3215332
  81.5010757  52.1691895  87.2703400  80.7668457  51.9082794  85.9727249
  38.5911140  53.3176460  25.9825535  37.6701584  53.0918541  26.1133003
  38.5769424  54.0053673  25.3169212  11.0301304  63.3331718  65.6823044
  11.5597868  63.5913124  66.4366608  10.7105770  64.1595154  65.3199768
  35.4851379  45.2542572  34.5348663  35.7133064  45.1558151  33.6104889
  36.2490921  45.6777458  34.9263535  79.7097473   1.8820478  70.3243332
  79.4591141   0.9788874  70.1301270  80.5745239   1.8090764  70.7281570
  67.2812195  29.6241226  65.2789841  67.5665970  30.0599270  66.0820160
  66.4752350  30.0783405  65.0334091  17.8388042   0.4695589  62.9147758
  18.7131100   0.8552228  62.9703026  17.7368870  -0.0120423  63.7356911
  34.1990929  44.5056458   5.3419662  34.7740822  44.1553574   6.0223441
  34.4242935  44.0057831   4.5573320   3.1260991  70.2766037   0.3147235
   2.8848825  70.5220261   1.2079266   3.2654788  69.3304901   0.3556574
  45.4238739  63.8197708  16.7603359  44.8424377  64.5021286  16.4248371
  46.2492867  64.2723846  16.9337330  15.2467718   2.1029379  10.7244234
  14.9216309   2.2436314  11.6136484  15.8501024   1.3641046  10.8041067
  44.6976814   4.7256708  27.2514725  45.5522232   4.8617821  27.6606922
  44.0801315   5.1684780  27.8335285   9.6881132  60.5575523  77.4720001
   9.1092911  61.0146751  78.0821075  10.5616693  60.6570091  77.8504639
  42.2264633  37.2202606  59.2593117  42.5448418  36.7963791  60.0563011
  42.1377220  36.5066452  58.6275635  65.8053284  46.9978638  65.1539841
  66.4222107  46.9879303  65.8858261  66.2500916  47.5020485  64.4726562
  41.5597572  46.5309296  87.8662262  40.9741478  47.2762184  87.9997864
  42.4129219  46.9259109  87.6864243  58.7662468   7.0593166  38.0436707
  58.8591118   7.8353109  37.4910049  58.7627296   6.3260818  37.4283791
  72.8617096  30.9898491  57.3748245  72.1734161  30.3270016  57.3189964
  73.6410522  30.5556793  57.0279083  68.5186005  24.2698517   0.6235600
  68.6206512  23.5174141   0.0407617  68.5950775  25.0307808   0.0479133
  23.6037750  63.5942078  29.9067612  22.6610222  63.7123108  30.0229568
  23.7075157  63.3969879  28.9758625  72.8028336  55.7478218  46.8884354
  72.7767410  55.6446152  47.8396988  72.8893509  56.6913147  46.7521667
  26.1462402  44.7188606  82.5540619  26.8686085  44.1328392  82.7798767
  25.3601284  44.2470589  82.8291397  55.6682510  36.2829170  22.2767048
  55.2680740  36.3122330  21.4076633  55.4208755  37.1138229  22.6824532
  52.5644417  13.7118435  87.2917709  52.1007156  13.7969246  88.1248093
  53.2567787  13.0745230  87.4670486  86.5452271  55.0174103  34.2672958
  87.0514145  55.7829323  33.9952927  86.0689240  55.3090820  35.0446587
  13.8380432  47.1266289   6.0809479  13.4240389  46.4780769   6.6503434
  13.7540359  47.9523621   6.5577531  11.9428635   0.8019781  85.2550278
  12.7752876   0.4787355  84.9103241  12.1097412   0.9480183  86.1861801
  25.9668350  30.1243801  58.6331253  26.5311718  30.6015053  59.2414894
  25.2324543  30.7169971  58.4727402  74.6289291   6.8201475  76.8492737
  73.7164841   7.0471082  76.6699219  74.6296997   6.5352335  77.7630844
  70.4550018  49.7203407  86.0647125  70.3284225  50.4892731  86.6205444
  71.3953247  49.5464287  86.1069794  50.3898544  47.7872009  45.7452240
  49.6192360  48.2084122  46.1259575  51.0760231  47.9044037  46.4022369
   7.4857779  46.0788918  69.0153732   7.1473923  46.9101753  68.6826630
   7.6130323  45.5418854  68.2332840  46.2437897  12.3225842  38.2703972
  45.4920082  12.3971033  38.8581924  46.1468163  11.4606237  37.8656082
  34.6746407  68.2881393  67.3596115  35.0458107  67.8113937  66.6172028
  33.7690659  67.9824753  67.4119568  79.7275696  62.2917519  86.8808670
  80.1272583  62.8759727  86.2365341  80.3123398  61.5346222  86.9129257
  82.4230423  33.7960510  30.6574306  81.5985641  34.1286697  30.3026981
  83.0399933  33.8583870  29.9282436  32.2333336  50.3740158  86.9803238
  33.0329514  50.8864594  86.8609848  32.0058899  50.0764008  86.0994568
  10.3613892  10.0275192  79.6084900   9.6899405   9.7491608  80.2313080
   9.9079494  10.6333332  79.0223007  62.6992455  19.4299488  20.9942551
  63.0022583  19.0955353  21.8384037  62.9292221  20.3590069  21.0081673
  19.7598019  61.8815346  85.7430801  20.5476055  61.9320526  85.2017441
  19.2326412  62.6321793  85.4694672  80.3938522  64.3633728  64.1567001
  80.4663467  63.5631332  64.6768875  79.6376190  64.8205185  64.5246201
  55.5546036  45.1736450  46.1319809  56.4250908  44.8068657  45.9771843
  55.2664795  45.4780807  45.2714386  57.9583740  14.6701660  26.7588444
  57.7211838  15.5096436  27.1528625  58.8048973  14.4529829  27.1493073
   4.7778544   6.4759879  88.3763046   4.2707672   6.9929318  87.7503128
   5.3031607   7.1210837  88.8497314  61.7501297  70.9273453  23.8917656
  61.8263550  70.0198822  23.5969257  60.8801193  71.2012329  23.6014328
  67.7142105  34.8732452  25.3108921  67.3947601  35.7317429  25.5886784
  68.5593719  34.7785416  25.7501698  30.1144543  65.6587296   8.0449038
  30.0776958  66.5625610   8.3578949  31.0380116  65.4177094   8.1168871
  55.9962921  18.7923336  53.4122200  55.7630844  19.6268120  53.8190269
  55.9777107  18.9707718  52.4719810  70.9642487  63.4729652  75.9414520
  71.1606445  62.5903473  76.2555237  71.3825226  64.0523987  76.5782700
   9.6818810  37.8826599  44.9571724   8.8025370  37.8238258  45.3306999
   9.8806610  36.9911461  44.6709442  26.3093147  68.8360596  59.4129257
  25.4342327  68.7865524  59.7976494  26.6367989  67.9372406  59.4462395
   3.3690577  25.7936039  10.9271498   2.5755136  26.3237133  11.0013361
   4.0831141  26.4310246  10.9200392  30.5384579  59.4586067  52.4416504
  30.0846252  58.6641197  52.1604805  31.3989410  59.1537628  52.7295227
  24.5367889  40.8685150   8.1585388  25.4291019  40.9468765   8.4959860
  24.3137093  39.9460640   8.2832413  40.3288841   4.3050089  56.8282051
  40.5342903   3.4191630  56.5293427  39.8010292   4.1755877  57.6161423
  25.5130920  48.9358673  58.7658386  25.9590454  48.0898590  58.7255020
  25.5150166  49.2509651  57.8619919  28.9505291  14.5378790  75.8645325
  29.7956619  14.9703522  75.9868011  28.4574451  14.7470531  76.6578445
  38.5144157  45.0814247  20.4753838  39.4550095  45.1378899  20.3070736
  38.3561020  44.1520500  20.6409988  35.5574303  61.8859558  46.3811569
  35.3140640  61.8893967  45.4554176  35.1343689  61.1045837  46.7371216
  74.5559845  58.8989868  36.8664703  74.2285004  58.7298775  37.7498627
  74.4662933  59.8454170  36.7548752  57.4686966  51.4498100  57.9135666
  58.1868362  50.8213501  57.8391075  56.7758331  50.9692078  58.3665466
  11.2974968  10.2890444   5.9788852  10.3953629  10.0632133   5.7522001
  11.8170252   9.5526638   5.6562924  43.8514557  37.8622093  87.1306610
  43.0142097  38.1205025  87.5160751  43.9112206  36.9213295  87.2962112
  71.8516235  26.0093784  63.8915939  71.5721664  26.8926563  63.6508522
  71.0442352  25.5647488  64.1497879  24.3693829  54.4704857  47.9188309
  24.6968861  55.1471367  48.5113792  24.7604408  54.6842308  47.0717049
  29.1890659  50.6861687  13.1366110  29.2661171  50.0641518  13.8600674
  29.1004372  51.5388985  13.5623198   7.9648895  68.8054733  52.5920982
   7.8389349  68.4028015  53.4512978   7.4369216  68.2721481  51.9979210
  46.5663185  47.5475464  19.0089970  45.6380844  47.3155479  18.9808655
  46.8934669  47.1301842  19.8058739   5.5696149  18.2039585  79.6244812
   6.2823644  18.7455349  79.9634705   5.9164705  17.3120232  79.6438675
  73.6651993  40.8212280  84.5705185  73.7558365  39.9160347  84.8682480
  73.9123688  40.7952118  83.6461487  43.5349388  56.8138580  83.2774887
  44.4401016  56.7264252  82.9787064  43.5308266  56.4169388  84.1485062
  81.4817047  28.0476818  41.1597519  81.3993988  27.6596012  40.2886314
  82.4177933  28.2226315  41.2565422   4.1120391  48.3551788  14.9744511
   3.4227805  48.4552536  14.3178396   3.7200530  47.8029366  15.6509171
  60.2990341   7.5614171  54.0147705  61.0406151   7.5215659  54.6186752
  60.6381149   8.0255747  53.2493858  70.1228561  17.8365211  51.5358086
  69.5149994  17.2719612  51.0582962  70.4283066  17.2969398  52.2650414
   2.7624638  14.6482515  69.1526337   2.0325332  14.3298378  68.6215515
   2.5847666  15.5815926  69.2689590  83.0324478  58.8748169  47.3172226
  83.9442368  58.7561188  47.0511856  82.5588608  59.0084839  46.4961967
  41.2202225  70.7935028  66.8871078  41.9413338  70.2126770  66.6444626
  40.5644836  70.2128143  67.2731705  79.3944016  50.1505585  29.4683228
  80.0364761  49.5025826  29.7583275  79.9202805  50.8613739  29.1016922
  20.5745506  40.3406982  67.8984070  20.4936829  40.8566208  67.0962143
  20.2106857  40.9028206  68.5824051  37.8619537  63.8463364   1.9517840
  38.6009369  63.3614922   1.5842724  38.0786362  63.9468422   2.8787034
   1.2555499   8.4480162  82.2468796   2.0704098   8.2938585  82.7248688
   0.8617489   7.5800481  82.1586533  50.6524353  31.6305580  51.5833015
  51.5466194  31.7203217  51.2537498  50.5917053  32.2739143  52.2894440
   5.7205448  32.8487701  41.8221588   5.7406006  33.7083855  42.2427406
   5.9612112  32.2363358  42.5173111  63.4483490  44.4673500  22.6278267
  63.9008598  43.7169418  23.0129948  63.1323433  44.1483994  21.7824612
   3.2981191  15.0725069  61.0318985   2.8283973  14.9812717  60.2028809
   3.5412903  15.9975653  61.0688553  66.0585556   2.1569562   2.3294818
  65.8474121   2.8906653   2.9068215  65.3904266   2.1909204   1.6448752
   6.7521954  53.8992310  67.3317871   6.9493203  54.8185005  67.5115662
   5.8053279  53.8800545  67.1928406  69.0761871  35.9782715  28.4030437
  68.7433014  36.2193451  29.2675095  68.6778030  36.6129227  27.8074436
  29.5584068  32.7424507  64.9738770  29.2087650  33.4265327  64.4029007
  29.0893764  31.9498634  64.7130280  43.7618675  56.2122612  65.2708664
  43.4323273  56.4484177  66.1379700  43.2380371  56.7361145  64.6647186
  79.9575119  61.0070076  57.1077194  79.4956589  60.1686096  57.1056023
  79.2899323  61.6475983  57.3531075  55.3684273  12.7428331  55.2413979
  56.3137703  12.6974745  55.0982018  54.9871712  12.5666637  54.3812599
  15.7335567   5.5299945   0.6916057  15.8569670   5.0456514   1.5079473
  14.8754692   5.2490625   0.3738081  67.5989532   9.3514585  53.1622963
  67.9386673  10.0130625  52.5597115  66.6710587   9.2780228  52.9390259
  51.5179291  38.4679070  67.3049088  51.5076561  38.5367699  68.2595749
  50.8860588  39.1239395  67.0106430  84.7754669  16.5867386   0.3781078
  84.6124725  17.1904202   1.1028377  85.7150497  16.6611443   0.2111055
  64.9975662  25.2140656  23.8430634  64.1580124  25.5619087  23.5424213
  65.4404373  25.9651756  24.2379436  53.6651840  18.5598469  24.7898979
  52.8155746  18.1433697  24.6451836  53.6101379  19.3881855  24.3133926
  74.1598740   4.5193429   5.7264447  73.9450226   3.8850715   6.4103818
  75.0683060   4.3246479   5.4960561  80.1499710  24.8807259  64.5229187
  80.1151581  25.1278229  63.5988197  79.2468033  24.6538353  64.7443695
  18.1727123  33.2865753  11.3294439  18.1729774  33.9255676  10.6167574
  17.7703991  32.5051308  10.9503403  16.1454506  65.8548737  85.0794601
  16.4822502  65.7044907  85.9627380  15.1937494  65.8485565  85.1817169
  49.7493706  44.5335846  46.8787308  49.5531960  45.4322433  46.6138573
  48.9708595  44.2497482  47.3578835  26.7298336   3.2135022  24.4310799
  27.0141506   4.0826821  24.7137852  26.0666790   2.9580855  25.0723438
   1.1562154  26.9355488  60.4582062   0.9464151  27.7754879  60.8665199
   1.6922909  26.4807167  61.1078072  24.9414120  49.6743927   1.2219639
  25.4226990  50.1413116   0.5388970  24.4859028  48.9726143   0.7569370
  51.7956009  14.3097839  73.6935349  52.7402077  14.1673822  73.6329269
  51.4576263  14.0414200  72.8391418  55.7541733   2.8119242  14.2729073
  54.8316422   3.0411313  14.3853064  55.8658066   2.0103548  14.7840385
  42.4903336  13.9208288  68.6490021  43.1341362  14.5248423  69.0190277
  43.0096855  13.1818838  68.3320389  68.3921204  40.8378296  40.2382202
  67.5005417  40.9267883  39.9014702  68.3384018  41.1463165  41.1427536
  64.1636581  59.6247444  48.3512230  63.4620323  60.2283516  48.5953674
  64.0750580  58.8943024  48.9634590  17.7631969  61.8127289  20.4391098
  17.5140324  62.6911354  20.1517868  16.9343586  61.3904533  20.6648102
  50.6523628  46.8160324  55.5374031  50.4681320  46.9081841  56.4721756
  50.0579567  46.1259232  55.2430267  34.1246452  31.5852795  19.8748531
  33.3815193  31.1954002  19.4144249  33.7623596  31.8750706  20.7121143
  85.3011780  21.9368877  60.2127991  85.5399094  22.8570671  60.3246498
  85.2292175  21.8215790  59.2653008  10.5746584  69.7002106  72.5994339
  11.0998888  70.3091354  72.0802307  10.4845982  70.1276169  73.4511642
  60.9572258  52.1299438  50.2585945  61.0089722  52.8850822  49.6726532
  60.1371155  51.6976509  50.0203209  68.3677902  43.4757271  51.6427460
  68.0000000  42.9715042  50.9169922  69.2118530  43.0603294  51.8194885
  69.2428894   4.2720256  28.7057190  69.0532227   4.8300357  27.9514751
  69.6786194   3.5055487  28.3330479  82.6674728  44.9909592  49.2194252
  83.1145859  44.1451340  49.1893501  82.5453644  45.1642685  50.1528511
  28.6928444  46.0873833  50.5812683  27.7827682  45.7991333  50.5112228
  29.0809879  45.8627625  49.7356186  59.0442276   7.3950658  73.1814499
  59.9843903   7.5704083  73.2212753  58.7088509   8.0296545  72.5481644
  15.8705730  48.9181023  25.3577194  15.6911392  48.0340576  25.6778736
  16.5292320  48.7961235  24.6739616  48.9922180  64.3845825  74.6414413
  49.0278740  65.3296509  74.4937668  49.7686691  64.1949997  75.1681366
   9.3087130  18.5823936   0.2547674   9.1451254  19.4141369   0.6993742
   8.8002110  18.6391754  -0.5542030  53.4771690   7.3114958  26.1722641
  53.9569855   7.2613378  26.9990005  53.5912094   8.2170134  25.8837090
   7.6782818  54.0120354  34.7392578   7.7739754  54.9450150  34.9306259
   7.4908133  53.9779396  33.8012123  17.0590496   0.8301509  55.2919044
  16.9656239   0.0986339  54.6816673  16.4222565   1.4774812  54.9891014
   0.3128905  37.4044456  63.6287460   0.8373899  36.7322273  64.0637817
   0.1902363  37.0738831  62.7388496  39.7845573   9.4455023  65.1136322
  39.0564384   8.8245068  65.0927505  40.4503288   9.0159998  65.6507645
  58.4447441  57.1515465  22.0915127  57.7768517  56.9642715  22.7511158
  58.0650139  57.8493462  21.5575523   7.5701003  23.1343231  14.9117098
   7.3744860  23.9590168  14.4669085   7.4240179  23.3217831  15.8389378
  85.8821869  13.9709024  88.0921631  85.5488358  14.1677608  87.2167435
  86.8258209  13.8654642  87.9710159  81.6461182  17.6463528  60.7551346
  81.2979355  17.4753380  59.8800621  82.3621216  18.2651291  60.6113052
  26.4232578  29.4957371  21.5633450  26.9339962  29.9827080  20.9166317
  26.9279938  28.6966457  21.7147484  42.8239441  68.9285126   7.1620169
  43.7047997  69.2748795   7.3046794  42.2648010  69.4522400   7.7358670
  72.1515198  67.2608719  52.2557564  71.4423141  67.7978134  52.6092491
  72.9466324  67.6328354  52.6374168  66.6736603  64.5347977  56.3521385
  66.0186310  65.1504288  56.0232468  67.3467789  64.5151672  55.6718712
  44.5484772  41.1872787  74.4033585  44.5278206  40.2716904  74.6817474
  45.3486557  41.2615051  73.8833237   7.1083345  -0.0261423  22.3599319
   7.7509437  -0.0507075  21.6509304   6.9355397   0.9056812  22.4943886
  59.3906937  39.1666565   0.5174038  58.8415794  39.5370789   1.2084111
  59.6247330  39.9160919  -0.0301380  60.5357513  58.9600945  79.3225861
  59.7175522  58.5092659  79.5312271  60.8290138  59.3231583  80.1582947
  76.1484375  32.0587006  53.7429771  76.2105560  32.0844955  54.6978111
  75.2145920  31.9442863  53.5667114  31.5492039  15.1118393  73.1850433
  31.7218132  15.2573109  74.1152496  31.4068909  14.1680555  73.1125870
  17.7866344  39.8808441   3.7138338  18.4636135  39.2645493   3.4343498
  17.6594810  39.6915817   4.6434813  49.4454269  67.0925140  33.1296196
  49.3513565  68.0362015  32.9998474  48.8924332  66.7014313  32.4532433
  60.2936096  27.1993408  19.6121101  60.7261848  27.6045990  20.3636932
  60.9602356  26.6272812  19.2318573  24.7864361  41.7201614  47.6949196
  25.4573631  42.3949203  47.7987785  25.2536964  40.8953629  47.8276062
  55.7562752  21.6314735  46.1995850  55.5452766  20.8314495  45.7182617
  55.0226822  22.2195492  46.0200233  75.9555588  33.7141685  15.2990227
  76.3426208  32.8665733  15.5181074  75.0913315  33.4992790  14.9480705
  45.5220261  37.3654900  60.0912323  46.3424873  37.6873779  59.7177849
  45.7790070  36.6077423  60.6166000  71.4411316  47.2557030   0.3936830
  71.8540344  46.3962555   0.3094368  72.1501694  47.8359222   0.6708813
  57.1740227  10.3821745  59.5544662  56.7317123  10.4614935  58.7093010
  56.6878090  10.9675560  60.1351204  66.1865997  23.8980579  42.3116150
  65.8363495  23.4875851  43.1022263  65.4178925  24.0580177  41.7641373
   7.4053402  26.0631733  66.6911621   6.8134017  26.7461910  67.0063248
   6.8724742  25.2680264  66.6861343  40.7416573  38.5157509  18.1074848
  41.0639992  38.1351357  17.2905025  41.3903275  38.2599106  18.7632313
  33.1338196   0.3722440  34.8201981  32.2302971   0.5675907  34.5717583
  33.2264595   0.7431672  35.6977310  62.9622078  59.5450439  19.6774654
  62.8677139  60.0572281  20.4805641  62.7444878  60.1581421  18.9753666
  49.7143555  48.2009087   5.0071936  49.4778671  47.6079674   4.2939448
  49.3131485  47.8124428   5.7845964  61.2998123  64.8663559  56.4054260
  60.6435776  65.5133896  56.1467094  61.7594833  64.6534882  55.5932541
  37.1679764  57.3662643   3.2437294  37.5462151  57.8794937   2.5297525
  37.7930183  56.6551704   3.3848011  42.3505440  40.6530800  28.8346882
  42.8180313  40.5835419  28.0023098  41.7561264  39.9028282  28.8389511
  60.2897911  44.7921829   6.3239222  60.0345879  45.2444229   7.1280265
  60.4607887  43.8916206   6.5995674  34.9100761  27.6116581  82.6503372
  35.0367012  26.6974602  82.3964920  35.2035027  28.1141224  81.8902969
  54.6833191  37.0943260  77.2061462  55.2065773  37.8169250  76.8593216
  55.3284073  36.4549522  77.5083008  40.1570282  35.6529617  88.0996628
  40.5218658  36.3792572  88.6052551  40.6533279  34.8870621  88.3883133
  72.3067551  48.5633698  21.7338123  71.9305954  48.8932495  20.9177761
  71.5789337  48.5760612  22.3553829  51.6665802  38.8666115  69.9484024
  52.2814560  38.3523293  70.4715424  51.2517853  39.4566345  70.5777283
  65.8448029  50.5058212  60.7333031  66.7649612  50.3774261  60.9636421
  65.7022400  49.9266663  59.9846458  60.1146927  59.1100388  26.3084850
  59.6533203  58.2760696  26.2198181  59.6511002  59.7041626  25.7182903
  19.6019325  67.2840500  12.6782579  20.1718521  66.5156479  12.7096605
  18.7386703  66.9331894  12.4593821  49.5975876  69.1368866  68.1525879
  49.7571030  68.5921249  68.9233170  49.0410194  68.5985718  67.5898361
  75.2728577  41.4756584  71.6261749  74.6674042  41.5119400  72.3666840
  75.2470474  40.5625381  71.3402100  86.2280121  67.3963852  52.4324799
  86.3734283  66.4973145  52.1379356  85.2951965  67.4310989  52.6443367
   0.3710753  61.0764961  20.8325310  -0.1285682  60.3917122  21.2771206
   0.8428242  60.6163597  20.1382980  16.3851929  37.9983749  47.6994286
  17.1627388  37.5846291  48.0742188  15.8211679  38.1746445  48.4524460
  26.0939312  39.2975693  57.8757591  26.5131207  39.5850220  57.0646591
  25.5838318  40.0548210  58.1631584  46.4436150  39.6044846  32.5030594
  47.0643578  38.9091263  32.2853737  46.6764526  40.3252563  31.9178181
  58.6088295  70.3136902  76.2597809  59.5551567  70.4427795  76.1962585
  58.2350273  71.1637421  76.0275726  81.1301346  35.1643753  83.0718155
  80.6281433  34.4624710  83.4860306  81.3920364  34.8037910  82.2246933
   3.1947944  31.5744400  86.4355927   3.9799559  31.1592140  86.7924423
   3.4081192  32.5071907  86.4091034  74.1931915  22.4754925  10.6592808
  74.7254181  21.6917686  10.7961884  73.4138031  22.1589565  10.2025681
  24.8365040  53.2982788  64.1642456  25.4893570  53.9905052  64.0601578
  24.5231972  53.3977509  65.0632324  11.5852671   2.8330810  80.9633713
  11.9178209   3.3091238  80.2024384  11.4109011   3.5132129  81.6139450
  54.7935677  61.8021889  59.2008057  54.0390816  61.5698166  59.7420883
  55.4969902  61.9673080  59.8286324  54.6845436  43.4271011  67.5350723
  53.8337593  43.8654251  67.5185394  55.2180328  43.9159241  66.9084320
  64.4981995  14.0222769  22.3637753  64.2958603  14.0039616  23.2991638
  64.3714676  14.9362469  22.1091595  82.3275757  15.5090380  75.3126678
  81.6547699  16.1395569  75.0557480  82.0201340  15.1579094  76.1483841
  74.0822830  32.8782043  18.4825745  74.1535187  33.6351051  19.0641747
  73.4606781  33.1520462  17.8081474  73.0892410  25.0775776  61.2932663
  73.7284927  25.4385052  61.9075317  72.7916107  24.2668972  61.7061157
  61.1195221   8.7261620  51.8603287  61.5068283   9.6004410  51.9034767
  61.6290779   8.2712917  51.1897507  52.8286324  31.5265579  80.2439728
  53.7124100  31.2847271  79.9670563  52.2650146  31.2358055  79.5270081
  38.7406921  56.2371254  80.1543655  39.5287018  56.2893028  80.6952438
  38.8488388  56.9327850  79.5058365  83.7277145  53.5638542  65.7078857
  84.6041031  53.4845657  66.0845642  83.1631470  53.7631416  66.4547272
  75.3664627  36.4971008  66.8927765  75.4343185  37.4113503  66.6174927
  75.8216324  36.4659157  67.7342453   8.8895626  60.3914299  62.7012482
   9.5585728  60.6720886  63.3256569   8.2694244  59.8852234  63.2260475
  31.6849537  28.7430401  65.2884064  31.8054066  29.6924019  65.2675476
  32.5739098  28.3884239  65.2730255  81.6156540  49.1232185  54.3334389
  80.7245941  49.4706192  54.3729286  81.9216385  49.3480034  53.4547577
  22.4643478  28.4329739  86.0830383  21.7518215  27.9627857  85.6500702
  22.2905846  28.3230362  87.0178909  53.0079498  25.2073994  59.3602219
  53.0248413  26.0896091  58.9892120  52.9492035  24.6288948  58.5998840
  61.7012787  45.4068985  73.8263168  62.0133781  45.6644974  72.9588699
  62.0681839  44.5334778  73.9632492  49.4275856  67.1351242  75.1773987
  49.8683662  66.9361267  76.0034409  48.6404572  67.6147919  75.4354324
  56.1847649  25.4124088   1.6105394  56.1533699  24.5244579   1.9666129
  55.2900772  25.5845470   1.3170568  57.6010666  65.5398483  66.5861511
  56.8494911  65.9989090  66.2111435  57.7847443  66.0069809  67.4011917
  44.9889526  14.8365736  82.2825546  45.2313156  14.6632347  81.3729095
  44.3929443  15.5839586  82.2333679  37.9575386  51.4577866  74.3112030
  37.1288681  51.9219818  74.4297867  37.7759933  50.8149414  73.6256256
   2.7291572  23.4458332  12.2887926   2.9665613  24.1356773  11.6691256
   2.0513463  23.8399639  12.8378515  14.4457006  56.6546440  17.6871471
  14.2502756  56.6799049  18.6238461  14.2787943  55.7472878  17.4320431
   5.7160506  63.9427986  49.3148918   6.4699492  63.6857262  48.7840576
   5.5759478  64.8652344  49.1010857  19.7325077  12.8681011  77.6424866
  18.9025154  12.3913355  77.6488342  19.5008335  13.7483358  77.3462677
   9.4362936  35.7469101  32.7814102  10.3572741  35.5594406  32.6000748
   9.1815376  35.0908012  33.4301414  70.5645905  43.6695061  73.5249100
  71.2479553  42.9993324  73.5139694  70.7981949  44.2378235  74.2588501
   7.9496999  58.6811752  43.9540176   7.3859873  59.3646431  44.3164101
   7.4533577  57.8718185  44.0757523  34.2237587  51.9254074   5.6862259
  33.8293800  52.3715630   4.9367971  33.6276436  52.1056366   6.4131336
  37.7459564  60.9650307  14.0954218  38.5953712  61.3345222  14.3366718
  37.6583633  61.1556969  13.1615019  17.4352570  44.8179703  64.7755127
  16.6833172  45.3971672  64.8994064  17.2418480  44.3440704  63.9666595
   6.9761844  42.8313026  63.4229202   7.4900169  42.3504601  64.0717621
   7.6212816  43.3524780  62.9449463  59.0765228  22.2003212  15.5951929
  59.5654602  21.8061619  14.8728294  58.3351707  22.6349525  15.1736183
  73.0733566   2.3740349  10.3505468  73.7233200   1.7241904  10.6179123
  72.3460083   1.8569390  10.0044136  66.5520630  33.2195969  61.4078102
  66.4795074  32.3426285  61.0311203  65.6478271  33.5255623  61.4782944
  19.3456402  52.2878456  12.5599260  18.8818665  52.8337975  13.1948137
  18.9569721  52.5188713  11.7162457  32.3291817  27.4977818  83.6289749
  32.1719551  26.7545528  83.0466309  33.2600746  27.6932354  83.5218811
  26.5624008  42.8877373  60.8375816  25.9943218  43.4991989  61.3062325
  26.9112892  42.3140602  61.5197868  53.6321259  17.6600494  28.4617939
  53.9578552  16.9941082  27.8562698  54.3047714  17.7161961  29.1404915
   0.3620654   4.0168447   1.3419526  -0.3100426   3.7003493   0.7383521
   1.1495980   3.5292649   1.1005187  15.1460991  62.3238449  27.7821522
  15.8644896  61.7276955  27.5706120  14.8372869  62.0319290  28.6398544
  27.8351536  58.2506409   2.5950389  26.9590664  58.5738792   2.8053222
  28.4277077  58.8850212   2.9983673  32.6722145  67.8061676  41.2189789
  32.5818520  66.8946762  41.4969139  32.6585197  67.7674484  40.2626610
  16.2992954  62.4256973  35.0627747  16.0267525  61.5532799  35.3470917
  15.5211077  62.7957649  34.6459999  46.5026131  59.3784180  80.9602737
  47.3903427  59.0281715  81.0344009  46.2495003  59.5820122  81.8606720
   3.4100511  35.1890144  73.0401077   3.9636781  35.4810600  73.7642899
   2.6364603  35.7506676  73.0884247  71.4665604  71.6030502  41.2857933
  71.2804108  70.6845322  41.0911255  70.8062286  71.8491898  41.9335632
  48.8543167  19.1554012  63.8404427  49.4554710  18.4112167  63.8725433
  48.9091492  19.4688225  62.9376717  85.9327240  70.9541779  18.3797760
  85.8614120  71.3411865  19.2523403  86.5631714  70.2415924  18.4846134
  82.4644012  65.1569290  20.6860313  82.2379303  65.9286423  21.2050762
  82.2926178  65.4179688  19.7812748  46.4618340  70.9951172  68.5905991
  46.4504890  70.1751404  69.0842972  45.5773277  71.3471069  68.6905212
  27.6095428  57.3469276  41.5274773  28.3614769  57.0851517  42.0587921
  26.9786510  57.6923828  42.1590385  19.1377449  37.4150925  11.5706940
  18.2723961  37.1023407  11.3068943  19.6619072  37.3724518  10.7709026
  16.7080307  15.0028324  52.4351768  16.1488190  15.6907244  52.7961769
  16.5388966  14.2411003  52.9896049  59.1968842  43.1498337  25.4928303
  60.0712509  43.1405563  25.8822250  59.3379097  42.8939667  24.5813065
  21.0892258  38.1597672  64.0583115  20.1889172  37.8593063  64.1824036
  21.2371826  38.0899429  63.1151924  51.2038651  50.7480049  87.8127975
  50.5781631  50.0611000  87.5828171  51.2040062  51.3348236  87.0565796
  76.5786743  35.9279480  10.4817562  77.4261551  36.3700104  10.4308968
  76.5553894  35.3649368   9.7079935   9.6884308  19.1686497  63.5774841
   8.9392090  18.5735340  63.5503464   9.3205805  20.0038261  63.8662682
  63.0623398  69.0982513  61.7335434  62.9492798  69.6751938  62.4889107
  63.8038788  69.4707794  61.2564926  56.0490150  23.2426949   6.8916764
  56.4864159  23.6359749   6.1365314  55.3275108  23.8401260   7.0885010
   4.8846149  53.5811386  71.2232895   5.8380561  53.6654472  71.2147369
   4.6854415  53.0369720  70.4614258  68.3899612  68.3701630  73.7751770
  68.5394440  68.2964859  74.7177582  69.2558289  68.2499542  73.3852310
  86.4092484   7.1009154  19.2967243  85.7738876   7.5357847  19.8654385
  87.1062469   7.7462993  19.1787853   2.0676980  43.7602463  59.3898506
   1.3310509  43.6273766  58.7932549   2.2191396  42.8989220  59.7789726
  38.5508041   4.9782767  58.9887466  39.0664444   5.7462378  59.2348900
  38.0112877   5.2766767  58.2565536  26.8639107  51.4138184  23.3189850
  26.9669380  52.2287025  22.8274784  26.9453659  51.6753769  24.2361469
  62.7130508   7.1582956   4.3572788  62.8212013   7.7184801   3.5886903
  63.5990715   7.0538330   4.7041049  75.2526703  23.5007458  69.9862518
  76.1295242  23.1719894  69.7880554  74.6632767  22.8138103  69.6748581
  21.7769337  54.8416672  73.6409988  21.5304470  55.6898689  74.0098190
  22.3300037  55.0584641  72.8904343   0.2803251   7.5925560  11.9871216
   1.0889223   7.1140656  12.1700134  -0.3089558   7.3487034  12.7009258
  18.4026909  53.4535027  39.7408295  19.2864285  53.5013962  40.1054459
  18.3826942  52.6203690  39.2699585  58.0449257  28.6792774  82.5199738
  58.1359291  28.1730766  83.3272629  58.4816780  29.5100842  82.7077026
  11.5935907  48.2508583   0.3773447  10.8241386  47.7152252   0.5704079
  12.0165710  47.8064346  -0.3573704  65.5100708  30.4088345  49.9306526
  66.0979843  30.9592190  49.4132919  65.8232727  29.5168324  49.7807617
  74.0217514  16.4964409  26.0047607  73.8537445  16.5095997  25.0625114
  74.0485382  17.4196415  26.2561893  73.8680115  35.0437889  64.4813004
  73.0755081  35.5796165  64.5138168  74.4672852  35.4648705  65.0975647
  22.0754490  65.7132645  64.2503433  21.7787971  64.8541946  63.9499626
  22.5537243  65.5320663  65.0594482  54.6169243  52.1426582  79.2034378
  54.7821732  51.8226204  80.0902863  55.2736511  52.8259659  79.0691452
  26.5288715  22.3604851  77.2266235  26.7584114  22.7805271  76.3977051
  26.0329666  23.0261955  77.7032166  66.6471634  34.4864922  13.6467419
  67.1640396  34.3181419  14.4346066  67.2693024  34.3863983  12.9262152
  59.5799446   5.0678358  65.4562378  59.0035744   5.8203297  65.3228989
  60.0633888   4.9877586  64.6339874  11.5470142  60.8269310  15.4122229
  11.0555696  60.7076836  14.5995150  10.8749876  60.9013329  16.0897751
  63.7514305  30.5047913  80.3603210  63.2655754  30.6161041  81.1774979
  63.2911034  29.8018513  79.9018326  62.2080917  63.2188148  38.2233734
  61.4327393  62.7165718  38.4740067  62.9390106  62.7448769  38.6200714
   1.0421361  68.6189957  17.1654053   1.4454242  67.8346710  17.5374603
   0.2014196  68.3162308  16.8222427  82.9146957   6.3865156  12.0116978
  82.1393280   5.9577131  12.3738623  83.6298676   5.7743855  12.1850519
  74.9727783  65.1171494  49.3655548  74.2992096  65.2459488  50.0333519
  75.6786575  64.6597366  49.8224411   2.6524849  35.3417473  61.5761414
   2.7840075  35.7900772  60.7407188   3.1201024  34.5122070  61.4790115
  44.9137001  23.4131908  10.9282341  45.2151794  23.9861946  10.2232456
  44.0090408  23.6832333  11.0860500  48.1877785  30.8086510  37.4446373
  48.2385406  31.7638721  37.4794006  47.4083633  30.5914497  37.9560738
  71.4333954   2.7062845  41.2412949  71.4552536   1.7751340  41.0205841
  71.9998398   2.7838237  42.0089951  48.4248810  27.5473824  20.4804058
  49.3706970  27.6711712  20.4007797  48.3133392  27.0801525  21.3083458
   8.8312092   5.1984315  23.4486217   8.2859383   5.0403438  24.2192841
   9.5422955   5.7538295  23.7681847   2.3146701  68.0949173  28.3518639
   3.0426075  67.5024261  28.5397129   1.5657909  67.7046814  28.8025608
  13.6869650   5.0474377  81.1181259  12.9380531   5.5661573  80.8243713
  14.3627911   5.2082882  80.4596329  11.9681406  48.2529564  39.9908485
  11.2093239  48.0537796  40.5392609  12.7085705  48.2534180  40.5974770
  25.0860386  39.9712219  85.9510422  25.6322613  39.8789101  85.1704330
  24.3969059  40.5822296  85.6902695  50.7589951  71.5521011  72.3862152
  51.3608475  70.8227844  72.2375336  50.7734489  71.6851654  73.3340073
  42.8290710  69.5716476   4.3404789  42.6794968  69.2497025   5.2294178
  43.7818642  69.6044159   4.2547598  67.5734940   1.1043588  31.3726311
  67.3637619   2.0296044  31.2454910  66.8471603   0.7636741  31.8947392
  51.0604477  69.2808533  20.6799564  50.3300705  68.9099503  21.1751461
  50.7901382  69.2090759  19.7645264  85.1414337  55.8884048  79.0131378
  84.5822296  56.5721817  78.6443939  84.7788467  55.0716248  78.6701736
  62.4984322  39.2688065  77.7534714  62.8112373  38.7313576  77.0257797
  61.9928398  38.6647758  78.2973022  49.6844521   9.9878616  82.0637665
  50.0532913  10.6394663  82.6600876  48.7459908   9.9948826  82.2520981
  54.5947227  42.3263588  22.4897366  54.3721123  41.5230293  22.0192738
  55.5199547  42.4712715  22.2918034  83.9161530  31.4812679  34.5504646
  83.7744980  31.5587292  33.6069756  84.4776459  30.7119656  34.6459961
  60.8922997  68.1897202  22.0958157  61.0140457  67.2519302  21.9476147
  61.4828072  68.6096878  21.4703865  60.8854828  31.0817738  66.0159912
  60.6468506  31.6674633  66.7344971  60.2975159  30.3326073  66.1123199
  73.5989380  62.6398926  71.2715302  73.1109543  62.4668579  70.4664536
  72.9354401  62.6265755  71.9613342   6.8460588  14.8073235  71.0621567
   6.9185281  14.8838081  70.1107788   6.2078629  15.4768953  71.3083496
  53.8911552   7.3984470  20.4336491  53.3903885   7.3194919  19.6217194
  53.6198463   6.6441021  20.9567032  40.4020233  21.0886307  84.6180573
  39.4456673  21.0527382  84.6362152  40.6043396  22.0133114  84.4757004
  49.2648582  53.6527519  80.3930130  48.6084290  53.0597801  80.0273438
  50.0984993  53.3240166  80.0565414  18.4847622  59.1121979  83.6221848
  19.4063740  58.9156570  83.7902145  18.4794788  59.5093498  82.7512817
  84.6010895  30.5410175  43.2607231  84.9224777  31.0347443  42.5062866
  83.6529617  30.6716995  43.2462234  77.7709579  56.9613495  25.2796116
  78.5110703  57.0377998  24.6774311  77.0117645  57.2277527  24.7610626
  37.6737709  23.1716423  79.7149963  38.6026001  23.1318817  79.4871292
  37.5177116  22.3760242  80.2237930   1.6793492  36.9517365  35.3984032
   2.0634499  37.7875977  35.1337624   2.0727677  36.3095970  34.8075485
  49.5619049  67.8601379  29.3068657  50.3793831  68.3309326  29.4691086
  49.7619972  67.2784653  28.5734825  63.1477890   5.1062512  19.7048378
  62.7341118   4.9892945  18.8496056  63.6844101   5.8926735  19.6057930
  17.1370544  67.5602646  11.4583178  16.8201809  66.6857147  11.2325201
  17.7586327  67.7766418  10.7632980  75.9994125   9.8871727  80.0042725
  75.6473694  10.3471689  80.7663116  76.2602386  10.5846815  79.4028702
  13.8823538  47.5226860  68.3971634  14.2641792  46.7402153  68.7948837
  13.5459681  48.0277901  69.1373978  40.0291901  68.2284622  49.0678864
  40.5428810  68.7577209  49.6780052  39.2485809  68.7542038  48.8933029
  37.2919273  25.5386772   6.6168089  37.3852844  26.3630981   6.1394782
  36.9318848  24.9286270   5.9730401  30.4159298  45.0386734  80.0540771
  30.9603500  45.8257599  80.0358810  29.8774109  45.1380272  80.8391571
  27.6564560  38.8386421  45.5721474  28.4344120  39.3946686  45.5291023
  27.6660671  38.3491974  44.7495995  45.5438652   7.3754392  66.2716293
  45.1646576   8.2419634  66.1247635  45.3165436   6.8782191  65.4859238
  53.5703163  37.1710014  52.4549751  54.1146851  37.0096588  53.2256012
  53.7766876  38.0702324  52.1999664  68.2106705  53.8089485  17.1626053
  67.3520584  53.7946892  17.5854645  68.6267548  54.6054993  17.4921684
  37.1722641  43.0683823  53.7514191  37.4813080  43.1912880  54.6489830
  36.2587814  43.3536568  53.7714539  46.7194290  61.1224098   2.9972601
  46.7689896  61.8747826   3.5869319  47.2906227  61.3540382   2.2649224
   3.5940773  56.3198738  12.6632824   4.4478931  55.9921989  12.3806868
   3.6908748  57.2721672  12.6628113  46.6626587   5.0828848  20.8946896
  47.1176949   5.5584421  21.5896854  46.7864037   4.1597490  21.1154633
  64.3993759  33.8372498  25.6901112  63.5856285  33.7365799  25.1962337
  64.3641891  34.7313614  26.0300446  75.9300079  15.1858110   1.7495090
  76.3110886  15.8575525   2.3149967  76.4683380  14.4094667   1.9035307
  45.6403694  10.5481462  44.8423653  45.1266365  10.4046192  45.6371689
  46.0245972  11.4170284  44.9591713  53.3873940  46.8831444  46.6392632
  53.0542412  46.2541084  45.9993019  54.1732750  46.4688530  46.9956093
  83.8384476  45.0594826  31.9481087  84.0982971  44.5412331  32.7097664
  84.0393448  45.9627151  32.1931496  46.6747665  41.8419380  42.5481377
  47.1689453  42.5291519  42.9950790  46.6864128  41.1037331  43.1573639
  32.2274017  69.9244614  82.8110123  32.5488777  69.0287018  82.9134979
  32.4600906  70.1611862  81.9132080  78.5867538  66.4937057  45.7220497
  79.2052612  66.6995316  45.0211105  78.0281677  65.8084946  45.3550339
  62.6884346  37.2072945  63.8069229  62.0638695  37.9322624  63.7830734
  62.3203163  36.5948792  64.4438477  19.1499271  22.9682808  16.0123158
  18.7282619  22.1285820  16.1948986  18.6125107  23.6116486  16.4743690
  52.7919464  23.5186844  63.3411407  52.8077469  22.7826328  63.9528656
  53.2256241  23.1862926  62.5552177  70.1381683  59.5889015  44.1139832
  69.3300552  59.0809631  44.0419617  70.6745682  59.2910385  43.3792839
  23.3456535  56.0535851  41.7783661  23.5015793  56.8767853  41.3154831
  23.1825638  56.3154831  42.6844788  81.4505234  14.8216457  42.9245758
  82.0087967  14.4935865  42.2196312  81.3393631  15.7519941  42.7288055
   5.7787418   6.8011465   2.9620249   6.2553701   6.0304880   3.2704763
   4.9147630   6.4675145   2.7202358  84.2920990   7.7371655  31.4123821
  85.1618881   7.6383543  31.0251732  84.2849808   8.6285963  31.7609978
  78.2454147  14.8559256  57.1129227  78.0256195  14.7166739  58.0340767
  77.8965607  15.7243681  56.9120789  77.8251877  46.8875122  85.9307861
  77.1726761  46.2751274  86.2705460  78.1767960  46.4553871  85.1524124
  37.9788933   0.5237955  26.4267998  37.8386955   1.4620206  26.2990913
  38.9306717   0.4220905  26.4299259  78.2530441  13.3238392  38.5274773
  78.7262192  13.5303488  39.3335114  77.7196960  12.5612268  38.7515297
  52.6955414  14.8774872  16.8623772  53.0372391  14.5124588  16.0461483
  51.9096031  14.3623886  17.0445976  39.6956520  43.0032616  33.4217873
  40.4050217  42.6660995  33.9689140  40.1264534  43.6058578  32.8155556
   7.0118518  50.9786110  45.9851875   7.4460201  51.1539116  46.8200531
   7.7269835  50.7829895  45.3797531  47.1244736  70.7324295  36.8796616
  46.6428680  71.5573959  36.8186111  47.4849586  70.7305984  37.7663841
  63.9626236  41.6788368   9.5062895  63.9283638  40.7239456   9.5632219
  63.8928947  41.8656120   8.5700817  50.3908501  15.6736145  35.9349937
  50.4836960  16.5862408  35.6616364  51.2682304  15.3037481  35.8368492
  72.3037415   5.6221380  56.7779465  71.8944321   5.5850978  55.9134636
  71.6340027   6.0061955  57.3437920  29.4765377  58.0473633  27.4447460
  29.8917656  57.2408180  27.7502060  28.9377556  58.3335800  28.1823273
  32.8494225  40.7852478  25.4383717  32.1187401  41.0305328  24.8707695
  33.4749413  40.3586845  24.8527069  17.8580704  13.7622709  79.8907776
  18.0019226  14.5249500  80.4510040  17.6728535  14.1310282  79.0270920
   2.4027302  45.9159622  81.6036606   2.9181831  46.4817657  82.1784668
   2.5695171  46.2530518  80.7234421  66.3293839  29.7623158  43.9935074
  66.6319885  28.8785229  44.2022552  65.8046494  30.0209942  44.7511139
  20.5400486  24.5961475  26.9484215  21.2702312  25.0475159  27.3718987
  20.0191078  25.2976437  26.5575809  56.3963776  31.0836468   3.9178302
  56.2946205  30.1319199   3.9274232  56.5778732  31.3143139   4.8289199
  37.5039825  61.2685699  44.1083717  36.5731201  61.3949165  43.9246063
  37.8472633  62.1543159  44.2260284  72.1311798  69.4617081  75.2996597
  72.4843216  70.1665955  74.7568436  72.9022903  68.9775009  75.5949097
  19.7608871  15.0555296  81.6335907  20.3498650  15.5573969  82.1970291
  20.3079205  14.3544779  81.2793121   2.0241725  58.6615601  19.8537464
   2.3134155  58.8275566  20.7509727   2.7496390  58.9653053  19.3081551
  53.8135490  45.0848007  75.5449905  53.9694023  45.9791832  75.2416382
  53.5509872  44.6073036  74.7580414  41.0205574  45.6714211  70.6711349
  40.7476082  45.7380562  71.5861664  41.6988373  44.9960213  70.6720963
  10.9209480  62.3317833  32.9402199  10.5988464  62.7889633  33.7170525
  10.9918280  61.4169769  33.2128677  40.6093788   8.9125862  44.6114044
  41.5127983   8.7930155  44.9042625  40.6441422   9.6738014  44.0321159
  41.9208984  57.6777344  63.1821136  42.3656960  58.5252609  63.1727600
  42.1733284  57.2656288  62.3558693  35.1913757  64.0352554  47.9118195
  35.4501762  63.2716026  47.3959732  35.2956581  63.7563133  48.8215141
  73.2708130   8.9203396  30.5775452  72.8789825   9.7936344  30.5701294
  72.5242615   8.3225203  30.5388012  20.1057930  60.2942200  71.3350449
  19.6148014  60.3225670  72.1562347  19.7844849  59.5095711  70.8908386
  71.3647308  46.3442955  18.3980808  72.1472931  46.6356430  18.8659916
  71.0217667  47.1380348  17.9874840  39.4130096  49.7296371  66.9912033
  39.9675484  49.0418701  66.6228485  39.8639450  49.9977608  67.7918320
  55.2398300  68.6418610  13.7711277  55.6387177  68.9951324  12.9759426
  55.7781258  67.8817368  13.9917688  34.0923500  15.4656963  82.5936661
  33.6465797  15.3066607  83.4256668  33.5580254  15.0083246  81.9444046
  73.3366470  22.3066177   1.2717673  74.2580261  22.5656414   1.2861874
  73.3552704  21.3517323   1.3356289  80.1083450  50.9269485  41.4283791
  79.9371109  50.0010300  41.2563896  80.2951965  50.9657631  42.3663635
  39.8449745  57.0157089  64.8267822  40.6053848  57.1724205  64.2669144
  39.4427986  56.2244072  64.4685516  60.2364464  18.6297035  19.9798965
  60.7471390  18.2359333  19.2725258  60.8788033  18.8138504  20.6652431
  59.7101326  45.7430687  31.7649441  59.7700844  46.1296005  32.6385727
  59.6792908  44.7993736  31.9221668  71.3623276  68.0465012  42.4603653
  72.0781631  68.5515213  42.8460732  71.6309052  67.1334991  42.5629578
  22.6607761  21.3359127  88.7463226  22.1557045  22.0492954  88.3561630
  23.0467281  20.8790550  87.9989548  45.5433311  68.3134079  87.0908356
  46.1785698  69.0121841  87.2471085  45.3610611  68.3608932  86.1523514
  30.5772228   5.2578893  72.6929855  30.5939598   4.3042941  72.6117020
  29.9209194   5.5410557  72.0563431  73.5295715   6.9044538   7.6394396
  74.2653656   7.1605444   8.1955395  73.8327942   6.1161890   7.1889687
  25.8990154  45.6102486  50.1948624  25.5467033  46.3548737  50.6823463
  25.1826763  45.3393402  49.6206703  70.7238464  29.6266193  66.5902252
  69.8009033  29.5435562  66.8300323  71.1833267  29.6969757  67.4269867
  69.5263672  13.2510271  87.0803757  69.5050964  13.2422333  88.0373001
  69.6824493  12.3388348  86.8358841  27.2420216  44.8531532  26.2135201
  27.9578724  44.2466927  26.4032326  26.5021343  44.2881775  25.9908123
  39.9956894  46.6556358  60.0370941  39.9953346  47.5307693  59.6493073
  40.7498894  46.6551552  60.6265144  73.4977188  67.4667587   2.3956718
  73.7231750  68.3624725   2.1444697  73.0955429  67.0922394   1.6119486
  53.0294952  62.7543755  18.7937279  53.5964699  62.5156403  19.5270615
  53.1598816  63.6966324  18.6870403  76.9366150  40.0400391  10.9073610
  77.3550186  39.6829300  10.1240072  76.6609650  40.9202652  10.6515265
  51.0828133  69.4988403  26.5351124  51.4994774  69.6918335  27.3749809
  51.7940598  69.5531006  25.8968201  15.1475105  33.5740166  53.5804520
  15.4117012  33.8640594  54.4535561  14.7097750  32.7357941  53.7287788
  52.2979851  60.6790619  24.1888161  52.5976639  59.8832893  23.7493038
  53.0634003  60.9875450  24.6737995  34.9616356  61.1378517  69.8843689
  35.1523209  60.2463150  70.1759720  35.2657661  61.6945190  70.6012039
  26.7947178   6.5967469   9.5976067  27.7262764   6.7751088   9.4686909
  26.3504105   7.2051516   9.0071268  59.3780022   1.6976576  82.5724564
  59.0685234   0.9446514  83.0758820  59.7825699   1.3152606  81.7937851
  77.3412857  49.2073669  84.7119675  77.2710037  48.8726730  83.8179474
  77.4493332  48.4250221  85.2527924  64.6427231  50.6178894  26.3693676
  64.2488861  50.8236084  27.2171917  65.5654755  50.8512001  26.4709892
  41.6753616  69.2296677  29.8539543  41.8242493  70.0549774  30.3154030
  42.4644356  68.7149277  30.0231533  52.3620148  28.7787895  14.9691420
  52.1597824  28.3417854  14.1418810  52.3499680  29.7119427  14.7562761
  26.4512653  51.7015686  76.6102753  26.9295101  51.1136017  77.1949158
  25.9902954  51.1176453  76.0079727  38.9633141  38.7798691  58.2703857
  39.6016312  39.3823318  57.8885193  39.0840225  37.9637604  57.7849770
  12.9913673  38.2178612  73.6495667  12.2338057  37.6697502  73.4448547
  13.7438374  37.6358986  73.5430679  57.4599304  30.1513481  86.1332855
  58.0554886  29.6134281  85.6115723  56.6986885  29.5904503  86.2820587
  26.5337753  55.7679710  55.9968376  25.7778339  56.3422241  55.8742943
  26.6787796  55.7615204  56.9429703  62.3653908  35.5931206  39.0969620
  62.8984299  34.7988358  39.1317024  61.9024429  35.6077156  39.9346390
  46.4168320   4.7092485   8.4388561  45.6829491   5.2028813   8.0728321
  46.4980240   3.9437180   7.8699956  35.4411469  29.7064552  56.9888039
  36.3306160  30.0103893  56.8079758  35.3787575  29.7030029  57.9439621
  47.8705521  67.3802872  79.7075348  47.3021393  67.0119324  79.0311813
  48.5840645  66.7477417  79.7913437  18.8587704  67.9036102   9.3956909
  18.9495335  67.0105896   9.0632734  19.7396545  68.1424866   9.6841631
  79.6116486  24.1331406  45.1553879  78.7640686  24.3039989  45.5660667
  80.2455444  24.5715637  45.7230034  59.0935745  12.2712278  23.7901325
  59.7515450  12.6561069  23.2111874  58.3890762  11.9968596  23.2030735
  72.8236847  11.9976530  85.3153229  73.4628601  11.3448982  85.0296707
  73.1054077  12.8093624  84.8934326  50.2977905  70.0368042  53.9388809
  49.7211189  70.6628876  53.5010490  50.2241859  70.2528992  54.8684616
  85.5046997  61.0974808  86.3120117  85.9857025  60.3140488  86.5786667
  84.5919113  60.9016724  86.5234680  31.5919361  50.1040726  68.8770142
  31.0949039  50.2798042  69.6759567  31.1370716  50.6018066  68.1976089
   5.2756977  15.5203190  16.8059235   5.8121252  14.9998131  17.4038792
   4.4433270  15.0499344  16.7597790  24.6040668  59.9599152  56.3639565
  25.3621769  60.5248871  56.5133057  23.9908657  60.1926498  57.0611267
  16.8090286  34.6143036  88.5354462  16.5614719  35.4178886  88.0780640
  17.5854931  34.3033028  88.0700302  15.0203991  45.2023201  69.5674438
  15.8687420  45.4511070  69.9343948  14.7460909  44.4476624  70.0884781
  44.8302383  48.4139977  53.4649277  44.4994545  48.9718666  54.1689110
  44.4595375  48.7904625  52.6667519  42.6190300  47.8775482  60.7813377
  43.4006767  48.0548325  61.3046265  42.9341774  47.3403511  60.0544739
  52.3690414  47.3194504  60.2169189  52.2829895  48.2100677  60.5569534
  52.6644363  46.8040237  60.9674606  58.8889046  20.7357101   5.2954168
  58.3583603  20.7022381   6.0914292  59.2986259  21.6005230   5.3168521
  66.3599548  14.9586163  48.5547714  66.8923569  14.2254019  48.8632736
  65.7787476  14.5733604  47.8990173  55.7778931  59.8842430  62.2903709
  55.3041878  59.1974754  62.7596169  55.7317657  60.6452942  62.8690758
  58.3572159  50.0462837  23.5838661  58.5579567  50.5487556  24.3734589
  58.3908119  50.6894112  22.8757076  10.1093531  61.4055481  12.8158503
  10.6016741  61.2335014  12.0131979   9.9913464  62.3554001  12.8254957
   9.2729034  57.1184616  77.3940811   9.2039785  57.1624184  76.4403763
  10.1843910  57.3447723  77.5790253  58.0714417  57.9277344  79.8655548
  58.3004646  57.0125542  79.7036057  57.2897606  58.0767670  79.3335876
  75.7488785  18.3472958  59.4598465  76.0436554  17.5215893  59.8439636
  74.8059540  18.3645248  59.6236458  10.5651255  58.5214043  57.0792999
  10.5985994  59.3787918  57.5035591   9.6913052  58.1876144  57.2824173
   0.0913735  48.7099533  51.2011261   0.4242167  49.5946770  51.3518295
   0.6238688  48.3732414  50.4804993  43.2160530  43.5190048  27.2537861
  42.6612244  43.5962029  26.4776154  44.1085358  43.4940414  26.9087048
  69.7235031  36.3779068  63.4083595  70.2576065  36.8654213  62.7812271
  68.8469086  36.3734779  63.0239334  80.8022842  52.0524254  -0.2160433
  80.9382401  51.2011452   0.1999690  80.3396301  52.5699272   0.4430264
  64.8398666  66.2288361   1.1795156  64.0029373  65.8177719   0.9631708
  65.4738083  65.7973328   0.6066725  44.3869667  69.6347656  51.4136162
  45.3398209  69.5439606  51.4211922  44.1840706  70.0982819  52.2261505
  59.8060989  24.5931568  86.0984039  60.5018768  24.6598053  86.7523804
  59.0025864  24.5072918  86.6114578  63.8594437  52.9231148  58.4209175
  63.9098206  53.7429390  58.9124298  64.3816299  53.0827217  57.6347389
  29.4378128  11.6895876  88.2635803  28.9194050  12.3985128  87.8829041
  30.3319073  11.8613234  87.9680557  76.7737656  63.3783951  13.7715702
  76.0821915  63.6981125  13.1921406  77.5309143  63.9268188  13.5661583
  59.9610481   2.7821290  69.4394684  59.0289650   2.6672773  69.2543716
  60.3984451   2.1528268  68.8659744  44.3730087  14.7837687   5.7263098
  43.8944283  14.7934380   6.5552235  44.4018593  15.7014618   5.4556818
  66.9609299  13.2862291  45.8407784  66.5843048  12.9036531  45.0482979
  67.1087875  12.5390482  46.4205093  15.7873840  64.6309967  69.0861969
  16.0241089  65.3364182  68.4840698  15.6615868  65.0674133  69.9287796
  29.8699436  14.8395853   7.1400928  30.6454010  14.7346916   7.6913590
  29.5135193  15.6926842   7.3879151  74.9744034  52.5402031  20.5761395
  74.6056595  52.0997505  19.8104649  74.9454727  53.4708557  20.3541393
  52.1147346  18.9690933  39.6537285  52.2872353  18.0368576  39.5217743
  51.2162743  19.0022736  39.9822083  65.4316940   5.7109971  27.6665249
  66.0749283   6.2174978  27.1705990  64.9071503   5.2701082  26.9981709
  20.5506096  50.5307922  55.7934494  20.8015118  50.5517998  56.7169418
  21.1320000  51.1642723  55.3728294  83.5600586  65.4003983  43.1090355
  83.8537216  65.7252579  42.2578850  83.9564743  65.9978409  43.7431870
  58.2017250  25.6570721   6.8425593  59.0931168  25.9994698   6.9090071
  57.6700020  26.4174309   6.6072764  15.9808979   6.5081530  33.9287109
  15.9496946   6.9946170  33.1049309  16.3679047   5.6646576  33.6942482
  18.1977978  42.2842827  22.3561077  17.6846886  42.1503563  21.5592308
  18.9939194  41.7712669  22.2174034  27.4217052  41.9523582  45.1190147
  28.3710690  42.0745926  45.1195450  27.1625767  42.0933037  44.2084007
  29.9282722   8.6440134  85.4249802  30.6217709   7.9842725  85.4192429
  29.8870926   8.9560881  84.5210190  61.4188614  25.8621254  69.2513809
  61.6451263  25.2901745  68.5179596  62.0028954  26.6146450  69.1573105
  73.8721542  33.4086838  31.0628376  72.9731369  33.7365227  31.0858135
  73.8191376  32.5365944  31.4538345  72.8977051   3.3923686  63.4499207
  71.9877090   3.1843665  63.6617279  73.3943787   2.6336172  63.7562675
  22.1462841  55.8390007  55.3759575  21.3166199  56.1883659  55.7012825
  22.7708054  56.0092659  56.0810890  56.6428528  63.3513184  77.5108261
  55.8360558  63.8270798  77.7082214  57.1893501  63.4741478  78.2870255
  66.2860413  65.7675323  35.0116463  65.4904022  66.2401886  35.2561684
  66.9596558  66.4452972  34.9558334  67.3266220   2.7364786  88.1984024
  67.3041840   1.7825131  88.1230469  66.4096146   3.0034146  88.1345215
  45.9611397   9.2046976  75.9601898  46.3402214   9.1258621  76.8355865
  45.0167694   9.2456245  76.1109314  28.2159023   1.8969128  46.6698685
  27.3004532   1.8231083  46.4001732  28.2123241   1.6593053  47.5971031
  36.1585541  51.6367798  57.5696259  35.9354820  51.6715393  58.4998207
  36.9276962  52.2004700  57.4865456  20.1502552  18.4569092  77.7992783
  20.1441555  17.6801949  77.2398987  19.8393822  18.1429768  78.6484222
  67.5347824  55.2363052  83.6842728  67.8922501  54.6599197  83.0088196
  66.9166641  54.6864662  84.1657639  37.5150108  68.3361740  26.9713192
  36.8357353  68.5062866  27.6239147  38.2928619  68.7754364  27.3151627
  55.1913223  60.4454613  76.7655411  55.6756706  61.2085762  76.4504395
  55.0520821  60.6179085  77.6967239  50.2862129  10.8892775  21.9321957
  50.0109749  11.1177826  22.8200359  49.5481911  11.1456718  21.3791904
  11.7680111   6.0858493  22.0688992  11.1688957   6.4133048  21.3980312
  11.3918743   6.3898587  22.8949318  21.8389301   2.9362559  80.0240402
  21.6876774   2.1435239  79.5093307  21.9464703   3.6284750  79.3717346
  55.6624641  50.6693916  60.0375938  56.2208138  51.2084084  60.5978966
  55.7133446  49.7935143  60.4203262  23.3855858  32.9221954  21.9402370
  23.1672916  33.3449326  21.1096516  23.1351395  33.5612946  22.6073627
  19.7462330  35.5120888  79.7404099  19.8369865  36.3463745  79.2800140
  19.2672157  35.7305450  80.5398178   3.6440523  17.6329651  84.2338409
   4.1667762  17.1374836  84.8643036   2.9375832  18.0139542  84.7553558
  50.5325661  38.6643486  37.0385742  49.6860161  38.9858818  37.3487320
  50.6770973  39.1276855  36.2135544  49.4376183  36.3061676  43.8769989
  50.2693710  35.8830490  43.6639519  49.3069916  36.1227798  44.8073425
  50.2837715   8.8529100  27.7944736  50.9760056   9.3972702  27.4193497
  49.7536240   8.5879526  27.0428276  27.5710583  29.2915344  18.1088028
  26.6274090  29.3612804  17.9642563  27.8302784  30.1584949  18.4209156
  24.9102688  71.2754593   2.3499546  25.3333950  71.0647507   1.5176095
  24.1820011  71.8484650   2.1101193  30.2792435  61.5586662  11.7393799
  30.1420193  61.9763718  12.5896301  31.0600948  61.9850807  11.3862820
  35.8930130  49.9760284  55.0598106  34.9887428  49.9585991  54.7464066
  35.8583260  50.4963760  55.8624725   0.1787556   8.1193409  28.3893337
   0.6251323   7.7076793  29.1292763   0.2491037   9.0586395  28.5596333
  68.2006531   4.8176832  71.5763321  67.5565338   4.5872111  72.2458344
  68.9794617   4.3122535  71.8091888   1.9388250  27.4395657  35.5043488
   2.6371109  26.8303986  35.7442284   2.3878496  28.2714405  35.3540382
  54.1226196  13.5531893  27.5157623  54.4786034  13.3785162  26.6445580
  54.6319046  14.2968864  27.8379059  53.3044891  27.2065277  36.8534279
  53.3092995  27.7291451  36.0515060  52.4247742  26.8309689  36.8892860
  84.8795853  39.2894516  78.4676437  84.1447525  39.3256264  77.8553238
  85.1804581  38.3816566  78.4273605  68.6345291  34.9734879  49.8482170
  68.1718140  34.2884254  50.3307266  68.2622528  35.7915344  50.1775246
  48.2416496  53.1634979  85.5560913  48.3992653  53.0670509  84.6168976
  48.7831535  53.9093170  85.8144760  49.1183128   8.8678560  84.7440338
  49.1776733   8.7667551  85.6940308  48.7583427   9.7458820  84.6186447
  84.1770706  23.9574318  21.1273117  84.6530991  23.3190365  21.6584263
  84.0555267  24.7088051  21.7077408  25.5361958  40.7555084  30.9253197
  25.8056183  40.9406052  30.0256634  26.1446648  40.0793152  31.2232475
  78.4275055  66.0213394   6.1177173  79.0553284  66.5280685   6.6327839
  78.7972870  65.1388855   6.0900440  23.7201099  67.0734253  78.6894608
  24.6677494  67.1199875  78.5628128  23.6056252  66.4646912  79.4192352
  27.2443314  57.5699081  46.3868942  27.5088730  58.4102859  46.7610817
  27.8294106  57.4456787  45.6395798  36.5206261  29.0051670  84.5314331
  36.9663353  28.1580772  84.5353622  35.7482796  28.8668861  83.9831696
   1.6759443  50.0771904  55.9969482   1.6923918  50.1556435  56.9507866
   1.0246125  49.3974915  55.8237305  63.5820808  22.0958099  39.3005219
  64.0913467  21.3087730  39.4940529  63.9734802  22.4432926  38.4990883
   1.5993392  38.6721115  16.5956421   0.6834534  38.9041748  16.7490425
   1.8631943  38.2025070  17.3868961  57.1255951  10.9368811  15.0596390
  56.3890114  11.5479231  15.0769682  57.5257301  11.0684061  14.2000875
  38.3527679  55.3399239  23.6993752  37.5275879  55.8166237  23.6095524
  38.9500885  55.9691658  24.1037273  12.2003860  47.0717354  28.7756462
  12.3867531  46.4647789  29.4919605  12.2277393  46.5283890  27.9880810
  61.6770668  70.9459991  37.5256157  61.1299858  70.7562103  38.2877922
  62.4553375  70.4023743  37.6480827  78.0898590   2.6968675  32.6979179
  77.5612488   3.3749330  33.1186752  77.4692993   2.2133610  32.1526108
  71.1270828  19.4905396  84.7821426  71.6614151  18.7994518  85.1734467
  71.7591553  20.0705776  84.3575592  31.5488434  37.4646683  73.6991119
  31.3643169  37.8876953  74.5376968  32.3988647  37.0430756  73.8254395
  48.5024109  71.5097427  14.0283604  49.1187630  71.1593704  13.3852596
  47.7354469  71.7602158  13.5133257  54.9315147  56.3712349  67.8676910
  54.1850052  56.9361153  68.0673523  55.4110451  56.8404236  67.1849442
  59.2235489   2.3907542  65.9553146  58.4165077   1.8943090  66.0911713
  58.9312019   3.2314267  65.6031265  63.7456055  57.8980865  26.8458290
  63.2242012  57.6419868  27.6066074  63.9630432  57.0713387  26.4151955
   6.7127199  27.6498699  13.6983395   6.5562720  26.7056026  13.6875601
   6.6368132  27.8947086  14.6205778  66.5273285  28.8229885  73.0768204
  67.0045471  27.9998417  72.9723053  66.4750366  29.1835709  72.1916809
  44.7885666  35.5077896  58.3438187  45.0498505  36.2544060  58.8828278
  43.9190445  35.7402115  58.0180321  18.8005791  19.7363548   9.7748270
  18.4737053  18.9928379  10.2813501  18.4138794  20.5029526  10.1979389
  10.9823084  29.8266430  79.2564850  10.8925409  29.5658226  78.3398895
  10.1181765  29.6679573  79.6363907  65.1509476  52.0022964  36.7439194
  64.4324875  51.7405739  36.1681175  65.6406174  52.6497993  36.2367783
  51.8811836  40.6925430  60.6692772  51.8193169  39.7828293  60.3780327
  52.5087318  41.0942497  60.0684052  84.8352203  35.4088020   5.0240817
  84.6124115  34.7749672   5.7058749  84.9297943  34.8829536   4.2298703
  58.3910141  31.8542671  67.7588120  57.9531746  32.0411682  68.5892258
  58.1714554  30.9414234  67.5724182  12.3207283  35.7962227  31.9468822
  12.4208288  36.5067902  31.3133945  13.0561361  35.2102852  31.7677593
  84.1052551  11.2536545  82.5403748  83.3031769  11.1908474  82.0217590
  84.3442154  10.3449163  82.7229233   2.8805549  46.8397255  63.3058968
   3.2746067  45.9713402  63.3887367   2.0398405  46.7653122  63.7574425
  48.6341133   8.5614567  25.5128403  48.5929070   9.3193741  24.9296627
  47.8688583   8.6540165  26.0803299  13.5498524  13.1815414   9.6074905
  13.6097813  12.7117243  10.4393034  12.9650488  12.6458950   9.0714693
  19.5833664  36.4353828  16.6365547  19.3878307  36.0450172  15.7847261
  20.4226837  36.0507927  16.8892765  28.6002998  70.0298691  80.4718323
  27.8887749  70.6672058  80.5332184  29.3679733  70.5500488  80.2345047
  72.8663864  31.7330723  12.2261772  72.5454559  32.3614960  11.5794010
  73.3630066  31.0948257  11.7140846  52.0036125  47.8852768  40.6853333
  52.3502083  47.7889137  41.5723610  52.6560822  48.4171867  40.2297134
  86.5035553   4.2086716  51.6240463  86.8229446   4.7152352  50.8773079
  85.8796844   4.7901449  52.0586815  25.7401581  19.7427120  73.2086258
  26.1603317  20.6026516  73.2224274  25.1653557  19.7692432  72.4436874
  63.5419693  35.5120468  72.7403946  63.9348869  34.8204155  73.2728348
  62.6426582  35.5795822  73.0611877  65.4480209   6.4909878  16.5262012
  65.5017319   7.4357519  16.3820915  65.9880447   6.1118503  15.8327608
  80.4443741   0.8793078  36.5785179  80.3449326   1.4741547  35.8352127
  81.3414917   0.5534605  36.5061722  63.9060783   6.1143498  85.0954514
  63.8043213   5.9316893  84.1613693  64.2146301   7.0197892  85.1302185
  68.0080032  61.2597237  41.8094063  67.6918793  60.6418686  41.1502037
  68.9515076  61.3111992  41.6564751  70.4065781   5.3497972  79.6447906
  70.2450180   6.1243801  79.1061325  69.5370255   4.9819446  79.8022461
  45.5602989  46.3366661  38.2627487  45.9485588  47.2091026  38.1968765
  46.1392784  45.8612022  38.8585243  59.0291138   7.9892573  49.2881393
  58.6643143   8.0579653  48.4058495  59.8343468   8.5057364  49.2552681
  81.5416260  62.4773750  10.4458170  81.2572861  62.9005013  11.2559690
  81.3187408  61.5543633  10.5666733  83.7658463  62.8287163  43.6022606
  83.7629929  63.7790298  43.4876862  84.6835251  62.6097145  43.7639122
  50.8677635  36.1042137  37.4175339  51.2632446  35.7864761  36.6058273
  50.9855194  37.0536118  37.3857155   0.0562866  23.2013187  39.8613548
  -0.3427421  22.8444786  40.6548767   0.8422982  22.6712399  39.7293205
   0.1184158  64.9099731  41.3545494   0.6981702  65.1817551  40.6430321
   0.3983431  65.4340439  42.1050339  70.7926178  23.5342026  56.6593590
  71.0042114  24.2256432  57.2865524  70.1480103  22.9898243  57.1114311
   2.4233279  36.9602547  45.0530434   2.5124919  37.4422798  44.2308922
   1.5884831  36.4992294  44.9710579  74.6503906   4.4084477  35.9285965
  74.9290543   5.3027825  36.1254387  73.8772354   4.5149755  35.3744164
  86.5179214  67.2398758  29.2542686  85.6987534  67.7345657  29.2325096
  86.2444992  66.3227768  29.2341290  67.4342651  69.2918015  44.3611221
  67.1330109  70.1840286  44.5326157  66.6520691  68.8282547  44.0619202
  42.9958420  51.0496254   3.3970668  43.5606155  50.3449631   3.0797145
  43.1583061  51.0805817   4.3398705  80.5251160   0.8827536  43.5054588
  79.9767303   0.9937198  42.7288017  79.9227829   0.9912059  44.2414360
  41.3702202  55.9153557  50.6203003  41.0033226  55.2309113  50.0606995
  42.3177948  55.7989426  50.5511055  49.6630821  19.4135990  40.7769127
  49.1526184  19.6638851  40.0068359  49.1894569  19.7992496  41.5139236
  62.9234238   5.5201364  65.6147003  62.2299004   4.8883495  65.4246902
  62.6880379   5.8848271  66.4678268  72.8001251  61.0611496  78.6355286
  72.6165009  60.4143486  79.3168259  72.3650665  61.8581543  78.9384155
  77.5039215  41.5309525  69.9801407  76.9545746  41.5660629  70.7632217
  76.9953995  41.0159264  69.3537292  85.2152481  38.0841293  11.7203579
  84.3065643  37.8290825  11.5607653  85.7292938  37.3267250  11.4404774
   0.7581356  21.2548180  20.1808834   1.5642086  20.8168144  20.4540710
   0.3802473  20.6720161  19.5222702  31.1256046  36.1504593  11.9057178
  31.6198235  35.3653755  12.1415539  31.7921753  36.7784233  11.6271915
  28.1011505  69.8866501  77.2497177  28.2286816  69.9938889  78.1923065
  28.4191742  70.7058640  76.8702621  59.2139778  27.6486893  79.4169769
  59.0161743  27.6144581  80.3528900  58.5568657  27.0823250  79.0124207
   8.8745823   7.2795734   1.7612554   9.7612934   7.6393642   1.7383094
   8.3716431   7.9144063   2.2714236  66.2859268  19.0178585  46.3098831
  66.4613419  18.5663567  47.1354790  66.1924133  19.9382896  46.5554276
  21.6132622  48.6023750  65.2170715  21.1833706  47.8538666  64.8033600
  22.4253178  48.2441597  65.5755157  45.6162376  59.7881126  54.4553642
  45.2789040  60.1256638  53.6256065  45.9683113  60.5581627  54.9017906
   4.7180204  26.1027946  70.7294312   4.7393608  25.7605915  71.6231155
   5.6000814  25.9466686  70.3920517   1.3813509   6.9260297   6.4323401
   1.2126831   7.1521206   7.3470345   1.9110142   7.6508579   6.1002069
   5.5218511  15.7794580   0.4382426   5.9556637  16.5609474   0.7807521
   5.8005986  15.0749664   1.0232412  52.0830383  59.5362053  43.6834869
  52.5286980  58.8764534  43.1521225  52.2744141  59.2851715  44.5871391
  79.5141449  34.8736725   7.5428448  79.4066696  35.3752174   8.3510113
  78.9770050  35.3370209   6.9001780   1.3110299  66.3095016  39.4075584
   2.1798255  66.6910019  39.2815323   1.2520363  65.6233063  38.7428055
  32.2812271  51.7906036  61.4165192  32.2354584  50.8526459  61.2311096
  31.7794685  51.8998337  62.2243156  77.9885864  25.7693367   2.5014381
  78.0955048  24.8217182   2.4188597  77.2011032  25.8759136   3.0350587
  70.7060852  13.4334564  33.6345520  71.1537628  13.9138393  32.9380989
  71.4073257  12.9776516  34.1000977  58.6262245  21.5280170  22.3437996
  57.9383011  21.5831261  23.0070915  58.1952400  21.7878799  21.5295792
  59.5285454  26.0909519  52.3982582  59.1027527  26.8337421  51.9702454
  60.2554741  25.8646889  51.8180809  47.6022377  31.9514866  72.4745483
  46.6745872  32.1836014  72.5172272  48.0491142  32.6663780  72.9278259
  56.8565331  25.0252075  62.9376030  56.8459816  25.8892365  63.3493996
  56.0328026  24.9812241  62.4520454  45.0439911  53.5014763  42.3347893
  44.4637871  52.8050194  42.0273132  44.9340134  54.2047882  41.6948776
  45.8478432  41.7916183  67.8652725  45.3267326  41.1355553  67.4023895
  45.9338608  42.5127106  67.2416916  44.6897507  62.2134857  66.0801163
  45.3125687  61.6732254  65.5938644  43.8351631  61.9773941  65.7193222
  54.4887543  14.0175123  48.4793243  54.1308670  14.5308743  49.2036247
  53.7743950  13.9692526  47.8440323  33.1069603  51.4402733   0.7322631
  32.5406151  50.6694031   0.6969744  33.7546692  51.2310066   1.4052520
  14.2117653  20.7296352  72.7977066  14.0285988  20.4281387  73.6875305
  14.0533295  19.9625397  72.2475357  10.4182901  15.4199209  72.9107819
   9.6066942  15.3709383  72.4056625  10.4416513  16.3184223  73.2399902
  12.9802370  53.3193207  14.0556402  13.7166615  53.9221878  14.1579266
  13.2202291  52.7728424  13.3073092  36.4544945  54.9656143   6.6834493
  35.6318893  55.2352371   6.2749715  36.9434013  54.5399590   5.9791641
  54.7110748  30.2090931  78.5027466  54.9222145  29.3315411  78.8214264
  54.2002945  30.0585976  77.7073288  80.3666458  61.4918175  29.7913570
  79.4212494  61.6194458  29.7128181  80.4997635  61.2446556  30.7064648
  65.1761475  60.0132751  29.8260098  64.2757492  60.2711182  29.6284447
  65.6125336  60.8310356  30.0649014  69.4020767  20.1814079   5.2941527
  69.2299728  21.0182190   4.8624625  70.1277771  19.8012886   4.7990699
  65.6641159  56.3304214  75.9966278  66.1949081  56.9882736  75.5474930
  66.2030640  56.0528030  76.7373734  83.8402176  15.1024170  25.5219498
  82.9020538  14.9344416  25.6106720  84.2194214  14.2457209  25.3257217
   3.2513373  41.6472206  46.9469795   2.5873976  42.2384682  46.5922394
   3.2416160  41.8140335  47.8894806  84.8104858  45.6774597  68.0377045
  84.1269379  45.0565033  68.2894974  85.5461578  45.1275597  67.7681961
  84.0128326  32.5895958  18.5660152  84.1261978  31.6405144  18.6172485
  83.0979767  32.7349014  18.8071918  75.3546143  58.5300026  14.9518337
  75.9901581  59.2050552  15.1897821  74.7842865  58.9534798  14.3102503
  40.5435638   4.2865701  72.4482193  40.9647942   4.2359748  71.5901718
  40.1513214   3.4225066  72.5737991  39.9270935  45.0606194  62.4925232
  40.8347397  45.3646088  62.4923820  39.8802452  44.4459839  61.7602272
  77.4164047  42.8142548  59.5127869  77.9613113  43.3080521  58.9000244
  77.4567490  41.9119987  59.1957130   2.3632507   5.4724751  26.2269325
   2.6712706   5.7409616  27.0925350   3.1620433   5.2638302  25.7425461
   5.1131392  51.3211632  42.7601509   5.9247961  50.9255600  42.4424362
   4.4804544  50.6028709  42.7598228  81.0632477  28.4614925  48.2321281
  80.6899643  29.3208694  48.0362663  80.3036957  27.9007034  48.3896904
  64.0006256  32.2523346  58.4434128  63.1260452  32.3106880  58.0587845
  64.3006821  33.1598320  58.4948654  80.8748093  22.9953938  59.6860809
  80.2763290  22.9404068  58.9410782  81.3229828  22.1496582  59.6962013
  68.4475250  12.9451494  52.8710136  68.6032181  13.8285570  53.2050514
  67.5360107  12.7606096  53.0975723  42.7934761  39.8071175  23.1349964
  42.2817955  39.0404778  22.8767662  43.3281746  40.0080109  22.3668995
  71.7999573  56.2060432   2.0943532  72.1206970  56.9501495   2.6039186
  71.2100220  56.5945740   1.4484011  21.8833504  16.6836128   8.4165592
  21.1245308  16.2566719   8.0188828  22.6372547  16.2886391   7.9785457
  51.6522255  68.5302582  31.2816944  51.2229958  67.8256378  31.7669754
  51.5225563  69.3081970  31.8241310  44.6009102  10.7570295  60.6579590
  44.8289795  10.3985395  59.8002281  44.1487274  11.5776272  60.4620399
  74.1043549  44.4103622  73.0125198  73.6816330  44.2899361  73.8628311
  75.0365219  44.2821159  73.1881485  84.6187439  24.9095440  25.9049034
  85.0699997  24.1028996  26.1537609  84.7371521  25.4915733  26.6555386
   9.8589725  13.9332561  25.3058205   8.9240685  13.7985334  25.1507854
   9.9331064  14.8604307  25.5318394   1.7027874  39.5287323  67.4774628
   0.8014260  39.3371277  67.2184906   2.0519376  40.0549774  66.7581635
  57.0902176  64.8329086  28.3854942  57.1197968  64.8497238  29.3420887
  56.9805794  65.7497025  28.1331062  37.6720657  57.4961929  52.1902771
  36.9313812  57.6105957  51.5948524  38.4287033  57.8084869  51.6940842
  23.4846764  58.1666756  20.2482491  22.9993572  57.6402740  19.6129551
  23.1284084  59.0496178  20.1496830  70.2434082  42.0336304  38.4071083
  69.5149460  41.5979843  38.8495827  70.9859009  41.4419136  38.5287819
  77.8371353  29.9783115  53.6688423  77.8818359  30.8416214  53.2578278
  77.5429230  29.3949432  52.9693031  25.7794857   8.0715427   7.3157678
  26.5642681   8.5049677   7.6511650  26.0866356   7.5717535   6.5593944
  42.6842918  35.7053108  36.0688591  41.9215469  36.1938972  36.3782692
  42.3793907  34.8001823  36.0055428  55.6143875  46.5184631  40.8084831
  54.8724670  46.2568283  40.2632027  56.3853912  46.2512665  40.3080978
  39.7106247  69.1779785  71.8861694  38.9874878  69.0953751  71.2644958
  39.3981171  69.8089066  72.5346375  43.2973137  32.0344734  14.0170364
  44.1197815  32.1527252  13.5418577  42.6289520  31.9953575  13.3329344
  15.8600054  28.9194336  82.6585312  16.6397018  28.4774780  82.3224106
  16.0325108  29.8502445  82.5168762  78.7950287  35.1352005  12.3724575
  78.1410217  34.6681023  11.8525305  78.8654633  34.6275444  13.1808853
  65.3417969  67.8289261  43.2562714  64.9083481  67.3208008  42.5705948
  65.2914886  67.2733765  44.0341301  63.9666786  55.3696365  59.3589859
  63.3328094  55.7521744  59.9657059  63.6696548  55.6507683  58.4935532
  83.7073364  48.9247665  56.2044754  82.9530411  48.9128456  55.6152992
  84.0983963  48.0561600  56.1105232  30.8408966  10.5966549  65.0235672
  31.1032066  10.7443962  64.1149445  30.7605858  11.4749708  65.3955154
  12.7618036  41.5015907  49.4733047  12.8091059  42.3074303  49.9877167
  12.8992138  40.8015976  50.1115494   2.1117733  24.2138824  37.1502571
   2.8819127  23.6846027  37.3575745   1.6878393  24.3613396  37.9956970
  44.9928703  42.3410225  12.5920038  45.8064995  42.6634064  12.2043123
  45.0975113  42.4949226  13.5309372   8.4682055   0.2811248   4.9123302
   7.8077526   0.7795734   4.4310999   9.0441446   0.9470035   5.2880058
  77.7627106  55.7852478  82.1750870  77.0582199  55.4408836  81.6261444
  78.3274460  56.2634773  81.5679550  77.2082367  60.5921669  26.3163834
  76.9749832  59.6652718  26.2645473  76.4114380  61.0545578  26.0564880
  73.9672623  63.6466141  64.9790649  74.6030502  63.2541275  64.3807602
  74.1371994  63.2232513  65.8205566  69.2597504  67.1120453  26.1266651
  69.0858307  66.8133316  25.2340546  68.8037491  66.4810181  26.6835308
  33.3681183   3.8117692  77.2580338  34.0716858   3.2276103  77.5408401
  33.8173180   4.6082044  76.9749451  48.7482796  26.5390644  77.8709564
  48.8071518  27.3074093  78.4387665  47.8987808  26.6254444  77.4383850
  54.8901520  51.2331848  17.9692764  54.8224297  51.4278374  18.9040260
  54.1164474  51.6431732  17.5825863  70.2836609  37.5011253  24.3674316
  69.5482483  38.0851364  24.5527325  71.0454025  37.9523430  24.7312737
  75.6163559  64.1775742  40.5482330  76.1200790  63.7494354  41.2404747
  75.2225494  64.9388199  40.9744301  18.0941448  70.3187256  12.2381392
  18.2578640  70.5855637  13.1426973  17.8528442  69.3945770  12.3009796
  65.3796616  13.3021507  53.7762794  65.2737045  13.8877659  53.0265732
  65.1966095  13.8524389  54.5377960  54.3479080   8.7208290  52.0953941
  54.4918289   8.4755821  53.0093803  53.4542580   8.4334726  51.9081764
  24.9963779  57.7500229  74.9190140  25.6288490  58.4648819  74.8469849
  25.2178364  57.3164139  75.7431335  17.1408596  14.2072592  15.1716461
  17.7429504  14.9214172  15.3806829  16.2800102  14.5362844  15.4303198
  13.4292040   9.0878191  13.3109360  12.5726805   9.3518267  13.6469412
  13.8495398   8.6449394  14.0480976  30.6396942  34.1993942  72.1794739
  30.7619057  33.8965302  71.2797165  30.0035057  34.9110336  72.1083221
   9.4335508  58.8183327  83.6698685   9.3860559  57.8977242  83.4120789
   9.7637358  58.7988091  84.5681000  47.3053818  46.4867325  21.4740582
  48.2218018  46.3200417  21.2535686  47.3246841  46.7519112  22.3935909
  48.0079918  59.8854065  41.4389267  47.3991127  59.9632988  40.7044678
  47.6809769  59.1404037  41.9431686  58.8309975   8.8972378   8.0501165
  58.7575455   8.9141779   9.0043440  59.7733803   8.8988476   7.8823676
   6.5579305   3.5479593  16.8859310   7.3703613   3.2834764  16.4543781
   5.8736558   3.3619671  16.2429638   3.2267826  69.3963699  14.0106716
   4.0187011  68.9124146  14.2449408   2.5851440  68.7180862  13.7998161
  55.7471962  69.7807617   8.2137575  55.6416092  70.6855621   8.5077200
  56.6259499  69.7528839   7.8352814  63.5754242  11.7544184  14.6185703
  64.4050903  11.7808247  14.1419334  63.2544632  12.6557760  14.5908165
  18.5680161  51.4661255  88.6939316  19.2689991  52.0312309  89.0187531
  18.1589851  51.1135330  89.4842453  13.1745605  26.9691982   3.9643893
  13.0665894  27.0823193   4.9087291  12.6406832  27.6630917   3.5774543
  61.5897293  35.0637321  14.6295948  62.2522697  35.4246292  15.2186813
  61.0681343  34.4825363  15.1831131  12.7554626   3.7380869   5.5050926
  13.5997200   3.6554499   5.0616603  12.9370108   4.2916398   6.2645998
  75.3139801  58.0541344  79.7936478  74.5945282  58.2485962  79.1929703
  74.8829117  57.8131828  80.6136169  46.7702103  68.5822067  52.3434334
  47.4339333  68.4964447  51.6590729  46.6435661  67.6904297  52.6673660
  84.4153519   7.0858140  57.4117203  85.3623276   7.1829472  57.3115730
  84.1250534   7.9247727  57.7696381  70.4093552  -0.0364559  32.4470215
  70.2648239   0.4193700  31.6178265  70.3349915   0.6475496  33.1124802
  75.1012192  34.2590179   4.3036971  74.5756836  33.4628105   4.3817978
  75.9961014  33.9745102   4.4893761  21.4734211  54.6500511  64.7498093
  20.7306404  55.2537384  64.7415543  21.4694881  54.2774925  65.6315231
  51.2498016  33.0631065  44.6777687  51.4631004  33.9632874  44.9235497
  50.3165283  33.0872574  44.4664612  20.6759052  28.0362015  83.5745621
  20.2852783  27.2555580  83.9673004  21.0156956  27.7357864  82.7316360
   8.5202332  21.5102367   4.9181080   9.0809660  22.1882935   5.2950020
   8.4988317  20.8208809   5.5818567  68.4209900  12.9365616  20.0468998
  68.6545868  12.0609112  19.7388439  67.5417175  12.8355522  20.4114799
  83.9252396  61.1353493  66.6521530  83.6961823  60.2145004  66.5264511
  83.8323135  61.5260391  65.7832642  20.5264359  64.9699860  22.7362251
  20.4644775  65.1348953  21.7953758  20.1660671  64.0904770  22.8494740
  47.6304092  12.8022289  20.9618759  46.8939095  13.0528593  21.5195370
  47.5738487  11.8484106  20.9047451  44.9176407  30.8386211  77.9012146
  45.0314407  29.9058857  77.7187729  45.6863899  31.2545338  77.5109940
   5.7549868  21.9885387  69.5877380   5.5832171  21.7827473  70.5066376
   5.0485291  22.5849018  69.3397446  15.4677553   3.5733798   8.5718393
  15.2250071   3.0354443   9.3254509  16.3770580   3.3354874   8.3907127
  84.0808716  41.2714310  57.1193924  84.0681534  40.5693779  56.4688606
  83.2994156  41.1196327  57.6509132  77.7066345  51.8470917  83.2540359
  77.0374374  52.3397179  82.7789383  77.3127518  50.9868965  83.3994675
  45.1349869  46.8886719   9.7766676  44.5197258  46.2543983   9.4087267
  45.9200821  46.3763695   9.9700689  36.0722809  40.0035400  50.1947937
  36.2454720  40.1925201  51.1170311  35.7217789  39.1128235  50.1945419
  13.6106901   3.1132905  87.9488678  14.5522556   3.2534082  88.0491333
  13.2307873   3.4489622  88.7607956  49.6867332  41.5917931  69.2318039
  49.7821350  41.2960281  68.3264542  49.3945656  42.5002785  69.1574554
  79.3746796  28.5464916  73.3019104  80.0359879  28.1721668  72.7198563
  79.8008347  28.5801105  74.1583557  46.2766609  35.1603889  61.7533798
  46.6812515  34.3463783  62.0532608  45.3789062  35.1171112  62.0826225
  12.0583172  44.3313446  42.5176811  11.3642740  43.7896614  42.8933334
  12.8388538  44.1053200  43.0235558  82.3399429   4.0249810  42.6192093
  82.3364944   3.6066964  41.7582474  81.8611755   3.4171407  43.1827202
   3.8646960  46.9876518  87.6831055   4.3913417  46.5974731  88.3806992
   4.4876237  47.1491356  86.9745026  50.9769440  44.6979103  73.9203262
  50.3386879  44.6564102  73.2081909  50.8750916  45.5781784  74.2822495
   6.4334936  65.6242065  11.6983624   6.7990508  64.8202362  12.0674591
   5.4857726  65.5132370  11.7741337  52.2102318  21.2080460  65.0895233
  51.2656288  21.2855644  65.2235031  52.5818367  21.2564583  65.9703140
  61.5950470  29.7673283  42.2805328  61.8618507  29.8128529  43.1986694
  60.6383324  29.7572613  42.3093452  62.0691299  67.3849792  87.3642731
  61.5106926  66.6176987  87.2391357  62.9565659  67.0640182  87.2040253
  17.7953491  61.4846878  27.4993153  17.6335602  61.7869225  28.3930206
  18.7271118  61.2659264  27.4854469  17.0531712   8.6305027  12.5862579
  17.2256832   8.2895222  11.7086449  17.4505119   9.5013361  12.5872488
  59.4114380  68.5100174  49.2413063  59.1973839  69.4429779  49.2389946
  58.8650475  68.1406403  49.9350243   0.8018813  30.0298424  51.6953087
   0.5030832  29.6792221  52.5343666   0.1924763  29.6660519  51.0530357
   4.7602139  37.5919228  39.8818893   4.2669005  38.4067001  39.7869720
   4.4271078  37.0275841  39.1841812  12.3498564  15.8179369   3.8409944
  12.4239607  16.3444633   4.6369281  13.1931343  15.9279509   3.4016650
  52.6651039  25.5768948  41.2727852  51.9702721  25.1545067  41.7777863
  52.2562523  26.3652687  40.9156647  66.0619431  53.8839531  28.3321781
  66.1554565  52.9399490  28.2043190  66.7393417  54.2691994  27.7763500
  43.6237526  44.3404083   2.0916929  44.2524414  43.6573639   1.8583765
  43.0373497  44.3940887   1.3370531  41.7511444  69.2872391  51.0357361
  42.5903358  69.5475006  50.6559181  41.3887215  70.0975723  51.3938408
  75.3959351  69.7951584  77.8668594  75.9861679  69.9613342  78.6018753
  75.5380859  70.5330658  77.2739639  79.4862747  43.1464653  80.8227692
  79.9385757  43.5315590  81.5733414  80.0887222  42.4775200  80.4974976
  57.3251190  49.9997597  45.6251106  58.0661316  49.4697685  45.9187775
  57.4799652  50.8622551  46.0102768  55.5688248  52.5293770  83.9478226
  54.7960396  52.2410316  84.4335098  56.3064537  52.1437798  84.4205322
   5.0435596  24.2928371  83.0040436   5.8005610  24.8659687  83.1252823
   4.6670270  24.5670433  82.1678238   4.3766561   1.8456824  80.2256088
   5.1054096   2.3925347  80.5190430   4.6665244   0.9492853  80.3949585
  54.1087952  30.8608379  35.2821732  53.6773148  31.6867676  35.5010300
  55.0422554  31.0416698  35.3925400  43.8062096  40.3606682  42.4340363
  44.0583191  40.9527512  43.1426353  44.6140785  40.2205925  41.9401131
  77.0880432  26.1518250  12.6739378  77.5330505  26.1694050  13.5212231
  76.1618881  26.2653179  12.8874340  17.4823647  56.6296616  30.2419357
  17.4990864  56.1577873  31.0745754  17.5714912  55.9463615  29.5775642
  60.3034172  36.5987740   6.4252291  60.3976021  35.9320107   7.1055174
  59.3935318  36.5213051   6.1382709  22.6131134  48.1742134  23.3439598
  22.1393585  48.2112503  24.1748734  22.1780815  47.4785194  22.8510189
   4.3812051  32.4825516  89.1485138   5.1536145  31.9549980  88.9452820
   4.4985743  33.2849045  88.6399002  57.2750320  63.3945274  14.1854696
  57.4120903  63.4588127  15.1306229  56.5176315  62.8167343  14.0920343
  77.4840240  51.7065125  49.4318619  78.0767593  51.0453300  49.0744667
  77.6040039  52.4677315  48.8640709  84.1025925  23.0678711  78.5930710
  84.3343048  22.1699257  78.8302155  84.8456650  23.5932846  78.8897552
  67.6217194   5.1805696  59.8557816  67.5517349   4.2316070  59.9597206
  66.8699493   5.5300145  60.3342743  52.4815025  33.1199188  88.9614716
  51.5594482  33.3567085  89.0613556  52.5130196  32.6179733  88.1470490
  31.5941525  61.9528046  23.8532276  31.0678291  61.3316612  24.3566170
  31.6037540  62.7468681  24.3876419  79.1532669  18.4319897  17.6461926
  79.8714066  18.1056576  18.1884289  78.7202682  19.0884438  18.1919174
  10.1260319  45.7993355  79.2709579   9.4480867  45.2629509  79.6819458
  10.8930454  45.2279739  79.2326584  77.4077301   8.2831554  53.4111443
  78.1715393   7.8589225  53.8021011  77.7470703   9.1024208  53.0507545
  51.9402122  25.7882595   9.8038006  51.3400726  25.3100300  10.3759556
  52.4480247  25.1056328   9.3651896  43.1966019  45.0871849   8.9563313
  43.0283737  44.7266121   9.8269167  43.1719093  44.3280487   8.3738060
  62.8193359  11.0129318  77.2593765  62.8482170  11.2645464  76.3362885
  62.3945160  11.7514057  77.6957397  71.4505692  14.0636024  42.5248222
  71.8672867  13.2994223  42.9230728  71.0934219  14.5545254  43.2648735
  68.5234985  64.8854675  27.5925865  68.5924759  64.5940704  28.5017414
  68.4071960  64.0787506  27.0906773   5.8279281  21.2017155  13.8994493
   6.3687191  21.9163704  14.2356701   5.3395534  21.5915928  13.1743870
  31.5728226  58.3982277  19.1006432  31.9387989  58.8236847  18.3252220
  32.2179375  57.7309151  19.3346386  65.9983063  56.2333145  39.4344788
  66.4848557  55.6861572  38.8179436  65.4782028  56.8147926  38.8798485
  12.3545446  17.4321632   6.2664609  12.3918228  18.1651630   6.8809166
  12.5955381  16.6680794   6.7902236  52.2002563  28.3215446  64.6940536
  52.9272118  28.4055843  65.3110733  51.5594101  27.7773438  65.1516495
   7.3465376  48.2859116  57.3735733   6.4510880  48.4632874  57.6615639
   7.3818021  47.3346596  57.2730331  77.5605850  53.7523880  59.8556786
  77.0254669  54.0838699  59.1345711  77.2627029  52.8513145  59.9804497
  36.6030312  40.7190056  58.3679314  35.9301453  40.0868759  58.1151924
  37.3962936  40.1942406  58.4755707  53.4201813  48.9506035  48.4276772
  53.1849861  48.2299843  47.8431892  53.8185616  49.6045647  47.8533401
  84.9700012   9.5075903  10.6550684  84.6071091   9.1767721   9.8334217
  85.8563614   9.1476669  10.6875381  16.1196823  47.3380661  84.0192108
  16.3008842  46.3982315  84.0087204  16.9587955  47.7413025  84.2417374
  42.8091660  50.5437393  35.5557671  43.4286270  50.5677605  34.8264351
  42.2286720  51.2890549  35.4016113  43.8521576  70.5633698  85.5914993
  44.6008682  70.3487320  85.0350876  44.2360229  70.7488708  86.4485092
  30.6963711  35.0322075   5.1517582  30.3235588  34.3837509   4.5544720
  30.6850815  34.6038551   6.0076895  46.0137177  39.6871605  87.2524567
  45.4021835  40.4027023  87.4264069  45.4949074  38.8927040  87.3785629
  52.9052238  39.2255898  49.2464333  52.7883453  39.6184692  50.1114311
  53.2299652  39.9413834  48.7001610  64.4160080  37.6640091  55.3842506
  63.9317284  37.0026703  54.8899460  63.9456253  37.7342339  56.2149391
  68.8211288   3.5738411  39.4755783  68.9090805   4.5264864  39.5066071
  69.4208908   3.3004191  38.7814827  13.7378187  12.4485712  75.9402466
  13.4085283  13.2254496  76.3921967  12.9608955  12.0554628  75.5426483
  55.9861984  59.8495674  11.8587704  55.7958679  60.7376595  12.1609287
  55.5839539  59.2816200  12.5159340  52.3509254  42.1395569  70.4592361
  52.3613586  41.3721275  71.0312347  51.5407219  42.0529137  69.9569550
  62.8287735   9.6174784  46.8378105  62.2235489   9.0287561  46.3868790
  63.3376884  10.0218945  46.1351852  27.4303665  55.3234596  13.3026638
  27.8311920  55.3788528  14.1701336  26.6616440  54.7672997  13.4290895
  84.8374100  29.0620747  79.6426620  85.1830750  28.7665424  78.8003998
  83.9746780  29.4209023  79.4348831   5.1719651   3.0777457  14.2940292
   5.4835658   3.0382986  13.3898277   4.6542172   2.2801955  14.4039507
   5.5301590  60.1957359  14.0951328   6.4018826  59.8218994  13.9663734
   5.0450845  59.9491119  13.3076611  75.9123077  51.5984917  60.4934959
  75.3242111  51.4177856  59.7602043  75.6450729  50.9795418  61.1729927
  61.5252113  13.8382196  30.2272873  61.3581009  13.8221416  31.1696510
  61.6036758  12.9162645  29.9821892  76.3729630  41.0084267  38.2279358
  76.6416245  41.7620201  37.7024345  75.4252167  40.9559517  38.1044273
  65.8642426  63.8150406  64.0750580  66.7969666  63.9989433  63.9634933
  65.8389969  62.9813042  64.5446091  76.8069382  63.0294189  23.4449844
  76.8189545  63.4193382  22.5708847  77.5495987  62.4255295  23.4480934
  78.1694031  46.5152321   4.8370233  77.9482574  46.7947655   3.9486606
  78.7874985  47.1761017   5.1491776  83.8498917   5.5143051  76.4742203
  83.5398865   5.4640656  75.5700073  84.5877075   4.9054680  76.5086365
  42.2770996  68.9124756  73.2016525  41.6553078  69.0249329  72.4826508
  42.2419434  69.7405853  73.6804352  36.9220886  51.8843307   4.6249852
  37.3977699  52.7124863   4.6891332  36.0855484  52.0544548   5.0579848
  51.9437447  32.8739433  32.5091133  51.5304756  32.1568642  32.0282440
  51.6260376  32.7749138  33.4066010  85.5839844  52.0172310  52.3206367
  86.5392532  52.0452995  52.2667160  85.4006729  51.8705940  53.2486076
  13.8120184   1.0708927  56.9458733  13.0712786   1.0817231  56.3397217
  14.4834404   1.5982049  56.5130157   0.6025366  62.0807190  16.9257755
   0.0506349  61.3615074  16.6185760   1.4957050  61.7978973  16.7295761
  33.7504082  34.8717804  60.6988106  34.2523346  34.1182098  60.3882713
  33.3335609  35.2226753  59.9118271  31.1422176  23.3765202  12.3281145
  31.4930458  22.5782967  12.7230682  30.3247604  23.5376053  12.7993326
  61.7525101  15.1615496  83.2723312  61.3217850  15.9204779  83.6656952
  61.0327492  14.5955105  82.9934540  25.3835068  39.8379631  16.5013180
  24.4958324  40.0043526  16.1841755  25.9233570  40.4908218  16.0557060
  35.9934769  35.8727455  78.8501511  36.4524155  35.7691422  78.0165634
  36.6568375  36.2183380  79.4474411  34.7790527  24.4570179  17.0843639
  34.5191116  24.9441395  17.8662701  33.9902191  24.4350262  16.5426159
  72.4490051  20.5174046  45.2240944  73.0439682  21.0268764  44.6739197
  72.8141479  20.5930119  46.1056786  45.8650055  20.0842571  79.2195282
  46.5150909  20.0497150  78.5177917  45.0520973  20.3351326  78.7808075
  55.7975502  11.7203884  22.3093071  55.4672661  12.1990032  23.0696163
  55.4400635  10.8379488  22.4079685  44.2096252  19.5499935  62.5276947
  44.1870575  20.3624439  63.0333099  45.0588913  19.5660210  62.0864220
  19.2997494  22.3808498  69.1534958  18.8496513  21.5540619  68.9800949
  19.0579185  22.6011276  70.0530624  46.0210419  63.7694054   7.1043758
  46.5137291  63.7116699   7.9230094  45.1805115  63.3557930   7.3010173
  80.0901413  57.1564903  48.6207848  79.6788025  56.9639893  49.4633865
  80.2019806  58.1071358  48.6204796  62.5993919  12.9666996  66.5769958
  61.6904716  13.0812073  66.2995377  62.7010040  12.0204878  66.6799011
  75.0047913  55.2335052  40.9312401  75.8796997  54.8471260  40.8927155
  74.8622971  55.5915604  40.0550423  10.0227289  49.2124748   9.1234379
  10.5176535  48.3931618   9.1263285  10.6726475  49.8841667   8.9168730
  14.8490219   8.4011097  80.0214233  14.3372574   8.6503553  80.7909775
  15.7512884   8.3566780  80.3379288  74.4767456  34.6268578  45.3189354
  75.4271927  34.5784531  45.2162743  74.1330490  34.0362091  44.6486778
  42.2781334   1.3061388  29.4059677  42.1983452   0.8892983  30.2639370
  42.3880081   2.2367711  29.6011162  74.6924820  50.0434837  26.3446064
  75.5234451  49.9459229  26.8095913  74.2194138  50.7138443  26.8376160
  42.1224098  56.8076363   2.1750596  41.1730461  56.7166023   2.0934682
  42.2439842  57.6246185   2.6587911  33.0222168  52.6675911  15.8136244
  33.3775749  52.4949455  14.9417620  33.3173294  53.5541649  16.0213013
  16.9393024  62.1812401  11.2706985  17.4977818  62.4555511  11.9980822
  17.3903446  62.5001068  10.4889574  79.4228210  69.2420273  83.5327301
  79.8962250  68.4138641  83.6118622  79.8514557  69.6944656  82.8062286
  53.7836761   5.1018043  51.2113762  54.2517662   4.9105577  52.0241165
  54.4520798   5.4635100  50.6294479  81.8539581  26.4434471  81.8200073
  82.4608002  25.8281784  82.2316132  81.3522339  25.9092731  81.2042465
  39.0878258   1.5807743  68.9638443  39.6357002   1.0087271  69.5012665
  38.2474937   1.1256667  68.9095001   6.5371594  44.3140259  19.5821514
   7.1073799  43.8766174  18.9498920   6.5229845  45.2284012  19.2993927
  60.5307388  29.2781410  29.3575745  61.4803658  29.2548885  29.4754868
  60.2169380  28.4802380  29.7831497  59.7985306   2.9872394  22.6460762
  59.0785027   3.4822023  23.0369778  60.4641495   3.6467505  22.4505520
  85.7225876  16.3373470  24.1624622  85.9498825  17.2607269  24.2717247
  85.1036453  16.1576748  24.8701782  18.9597034   8.9731808  59.7390213
  19.9116879   9.0179596  59.6498451  18.8008556   9.0946035  60.6751060
   1.2664696  41.1492310  20.1648102   1.5819652  41.2643852  21.0611553
   1.2363772  40.2004814  20.0415192  30.4645901  49.6426544  20.2010727
  30.0391617  50.0918083  19.4706593  30.0273094  49.9855080  20.9804764
  47.4264641  59.7389297  18.0012798  46.5234222  59.4645042  17.8417988
  47.7750015  59.9330750  17.1311874  18.9591160  42.9825935   1.9463515
  18.2290821  42.3788414   2.0833371  19.2255859  43.2403412   2.8288426
  63.2426605  28.9591980  30.1811886  63.3215637  28.8206234  31.1250134
  64.0981216  28.7114830  29.8303967  34.5843925  68.4783173  77.1182938
  33.9067459  68.8626022  77.6744919  34.0995941  68.0269852  76.4272766
  57.4556122  31.4570484  53.0343666  57.8136787  32.3446999  53.0442276
  56.9723396  31.4028778  52.2098999  28.8653584  57.6706085  82.3239059
  28.6974220  57.2094955  83.1457367  28.6210957  58.5783577  82.5043488
  84.7108688  35.8869133  59.1658478  85.0921478  35.0467148  58.9110489
  83.9855042  35.6547775  59.7456665  84.5614243  50.4344597  49.7246513
  83.9254303  50.3739586  50.4374542  85.3251953  49.9537354  50.0436897
  83.9806290  26.7471638  14.3126745  83.5191879  27.1022587  15.0724182
  83.6551132  25.8506126  14.2322454  54.1225853  33.7702255  14.1739807
  54.7316666  33.9775238  14.8826971  54.5668411  34.0701942  13.3809547
   8.6924400  46.2926979  14.8843994   9.3955154  46.9406700  14.8390980
   7.8880701  46.8067093  14.8136034  65.7545013  22.2137661  79.0484314
  65.4609146  21.3668251  78.7126770  65.0340881  22.8123779  78.8511963
  75.9555283  13.9621897  55.2892761  76.5438004  14.7169914  55.3102684
  75.7817917  13.7682400  56.2103767  78.5363770  70.0242538   4.7792096
  79.3516083  69.7263565   4.3756123  78.0807266  70.4936371   4.0804281
  61.8615608  20.6312504  75.0905151  61.0105247  20.2079754  74.9773712
  61.6592407  21.5652714  75.1443939  31.2809143  38.9562111   3.1895709
  30.6464062  38.2404099   3.2250912  31.8007603  38.8552589   3.9869413
  19.0180321  18.8836689  12.7093344  18.3454895  18.8367882  13.3888340
  18.9626369  18.0408592  12.2589626  24.5264168  59.4253693  71.6282730
  24.7424850  58.5403595  71.9220505  24.0533791  59.8133049  72.3644562
  39.9695091  61.1007576   0.4620137  40.3079758  61.9587021   0.7181364
  40.5184402  60.8374863  -0.2766330  74.3106918   9.6946259  43.8728523
  74.6938324   8.9192076  44.2829323  74.8962860  10.4103317  44.1199989
  47.1696701   0.3012970  60.1462631  47.0236473  -0.3308849  60.8500061
  48.0037155   0.7162474  60.3663063  64.4367065  26.9595890  27.1766911
  65.0456924  27.6217442  27.5036755  63.9483795  26.6800766  27.9510555
  45.3931351  41.3402405   6.7214966  44.6962433  40.6950226   6.8409381
  45.1144905  42.0930481   7.2429047  61.3387718  10.3154278  43.8367310
  61.4372787  10.1045456  42.9082642  61.7053566  11.1954632  43.9226685
  81.5221634  51.0741425  68.0626144  81.5204163  50.6230507  68.9068527
  82.4156723  50.9678955  67.7361298   3.9084325   0.4204291  14.4684305
   3.6246638  -0.4936831  14.4787321   4.8410921   0.3793217  14.2570333
  65.3702698  48.7572975   0.6029397  65.1603546  47.9241943   1.0249678
  64.6585770  48.8951683  -0.0221279  35.2242012  53.5621872  69.9398499
  35.2603111  53.5411873  68.9835587  34.7215500  52.7830925  70.1777191
  55.5037308  62.1565971  63.8745728  54.8365860  62.7079468  64.2834244
  56.2621613  62.7320747  63.7753487   5.1586666  71.7456665  61.0074425
   5.9116225  71.2742386  60.6510048   4.9231925  71.2587585  61.7971954
  57.7740135   3.1480663  49.4979248  57.8515320   2.8403423  50.4009933
  58.6313019   3.5243597  49.2986946  10.8384371   3.2675903   9.9403496
  10.7788620   3.7669523   9.1259041  11.3376045   2.4852908   9.7056761
  57.8192062  12.7671642   9.8819094  57.9776649  12.6574621  10.8195057
  58.3860130  12.1178064   9.4656181   2.2065394   3.5035598  78.6811752
   2.5014837   3.5319514  77.7709961   2.7488403   2.8276355  79.0877075
   0.9207891   8.0740623  50.2164917   0.0217036   8.3629360  50.0601959
   1.0452070   7.3413081  49.6133156  39.2628174  39.6254845   1.7212546
  39.2975578  40.5604744   1.5192082  38.9266396  39.5862617   2.6166189
  12.9231510  34.3153992  16.9847794  12.6628036  33.4415741  16.6934299
  13.8743801  34.2632904  17.0779438  84.9352798   7.0138011  22.1973953
  85.8453064   7.2013292  22.4274464  84.5921402   6.5326834  22.9503975
  11.4861917  34.2777748   5.9490480  11.9571953  35.1018639   5.8254786
  12.1485386  33.6704483   6.2787137  12.0453167  66.6378174  59.0188293
  11.9318371  67.0601425  59.8702927  12.7623997  66.0180206  59.1525612
  69.8006363  56.5263443  22.9910641  68.9420166  56.9054871  23.1788273
  69.6316986  55.5897408  22.8887711  82.9315109  58.3347702  62.7129211
  82.0935287  58.3033371  62.2513733  83.0830765  57.4329948  62.9958839
  60.6983795   0.8172830  20.5376339  60.5840225   1.3033633  21.3542614
  60.0060463   0.1564770  20.5532761  69.6480408  54.5684128  30.0279751
  70.1952362  54.2778358  30.7576103  70.2687302  54.9098587  29.3842468
  40.8702812  14.1275530   9.6053200  40.5643883  15.0216398   9.7578659
  40.1038094  13.5799217   9.7751818  21.5022831  44.8326721  40.6754494
  21.2766590  43.9472580  40.9607048  21.5228558  44.7785416  39.7200050
  16.8774071  27.1406441  75.4168549  17.1425934  26.3341236  75.8589325
  16.3901920  27.6286030  76.0807419  54.9981346   7.8560157  54.6094170
  55.9531174   7.8597713  54.6744728  54.7000580   7.5819521  55.4767532
  75.7745819  24.3476696   8.9848309  76.1540527  23.9656906   9.7762375
  75.0235901  23.7886696   8.7854338  18.6645851   1.4955820  20.8147106
  17.8774414   1.9776274  20.5611973  18.9063072   1.8620362  21.6653061
  82.4666290   3.7243333  39.9510117  82.2513962   4.1836500  39.1392632
  83.2063599   4.2119985  40.3132439  31.9031773   5.5211182  78.8238983
  32.5123787   5.6107435  79.5567474  32.3828621   5.0058599  78.1753235
  37.5432472  23.9769783  74.3812943  37.7517471  23.8178692  73.4607315
  36.7647362  24.5333958  74.3578415   6.5540977  60.9961853  50.7055626
   5.7146335  61.4026489  50.9207802   7.1786537  61.7215576  50.7064743
  30.4686756  27.9548492  85.5480270  30.7132130  27.7464371  84.6463623
  31.2974701  27.9555054  86.0269165  82.5531464   9.2670250  67.7358398
  83.3220215   9.4134941  67.1848297  82.8664627   8.6961050  68.4373550
  75.3047409  14.8932981  85.5847244  76.0877609  15.3948135  85.3575745
  75.1341171  15.1169653  86.4996567  52.8875237  26.6134796   2.4275279
  52.7366753  27.5575562   2.3806591  53.2841606  26.4767265   3.2878835
  13.4567947  49.2112122  29.9764328  13.7569427  48.3878326  29.5914783
  12.5071898  49.1994858  29.8566685  44.9581947  35.0123215  82.2998581
  44.7436066  34.0832253  82.3833389  45.8493690  35.0218697  81.9506454
  51.1143951  29.1284733  42.4770660  51.5230141  28.8270798  41.6656342
  51.2250900  30.0791359  42.4622383  68.9836121   4.0435038  11.1373816
  69.3788300   4.9110980  11.2229004  68.7866440   3.7803683  12.0363779
  44.8457222  12.0773220  57.7535858  44.2952652  11.5093012  57.2145309
  44.2616653  12.7827368  58.0319748  46.3820076  15.9023399   0.7071737
  47.0754356  15.5515985   0.1482700  46.1598053  15.1802044   1.2948618
  44.8256035  15.2504168  79.3171387  43.8737755  15.2413225  79.2162857
  45.0501938  16.1782646  79.3870773  47.8479576  14.3620863  40.1235161
  48.7591286  14.6260567  40.2512474  47.6196327  13.8932886  40.9262161
  77.2630692  28.6770172  43.0196762  78.1042480  29.1337833  43.0236244
  77.4940567  27.7492981  43.0667229  24.8242035  50.5991669  66.0885696
  25.6306114  50.2785149  66.4924469  24.1327572  50.0614929  66.4746323
  52.8292084  20.8031979   9.8276606  52.4575119  21.2396793  10.5941839
  53.7509384  20.6722069  10.0501156  29.5715199  41.4016380  56.2108269
  29.7977982  40.4806862  56.3407364  28.8707962  41.3864479  55.5589142
  84.9731140  57.8546143  26.3450890  85.0517426  58.8059464  26.4159126
  85.0477371  57.6772614  25.4074287  29.9789734   5.8489652  15.2860985
  30.5866070   6.5479398  15.5278568  29.2169991   6.3063512  14.9305344
  57.9317436  66.4026794  22.9845448  58.6425133  65.8899460  23.3694324
  57.8218384  67.1442337  23.5797348  21.2706947  60.5379524  67.4337769
  21.9473667  60.9045906  66.8646393  20.9969883  61.2718582  67.9839554
   7.9519691  30.6732235  29.8256989   8.6982031  31.1773415  30.1500912
   7.3480945  31.3324471  29.4836597  75.1895294  26.5605183  68.0051651
  75.1728439  27.4953270  68.2103119  74.6445312  26.1572552  68.6808777
  41.1266174  39.8084450   8.4059439  41.1337509  40.6013107   7.8697114
  42.0426178  39.5324516   8.4375916  83.4649887  10.1438684  26.5973816
  82.7523270   9.5167742  26.4745274  84.2550201   9.6046076  26.6332092
  52.8566132  13.3265772  77.1495056  52.5439148  12.5226269  76.7346344
  52.4473801  14.0305624  76.6463470  37.3896408   3.4334655  25.8606224
  36.5669174   3.3136411  25.3862801  37.1265869   3.5294631  26.7759476
  72.5410690  21.0159340  13.4126158  72.5771332  20.0624332  13.4885664
  73.1679077  21.3319225  14.0633497  79.2752609  14.4868078  65.7906570
  79.4761963  14.2247534  66.6890945  80.0311279  14.1946383  65.2812119
  64.2893677  26.7682457  44.9902229  63.4830246  26.7933998  44.4750481
  64.9576950  27.1275730  44.4067345   9.8227949  67.6060715  81.3166580
   9.8733749  66.7517242  81.7453384   9.1401081  68.0748520  81.7966690
  29.7357597  64.0198441  71.0406570  29.2519550  63.2926178  71.4321976
  30.0013275  63.6951790  70.1802521  43.1382141  62.2058029  82.1487427
  43.1157455  61.5064888  82.8019638  43.2899323  61.7535820  81.3188629
  49.1066437  12.2543983  69.4966965  49.3509636  12.4239779  68.5868759
  48.8916283  11.3218842  69.5171356  40.8152542   3.8435452  69.6649246
  40.9759445   4.3932877  68.8979874  40.0129585   3.3661742  69.4535751
  45.9155693  37.5058632  20.5670452  45.7119522  38.3420181  20.9861069
  46.8708496  37.4512024  20.5931950  48.3632126  59.1998177  62.3874321
  48.8717194  60.0092163  62.4376526  47.6282578  59.4139633  61.8127899
  56.0704346  36.8332024  60.8984871  56.2106285  35.8936653  60.7808304
  56.4791985  37.0327415  61.7407036  18.8256512  40.4029884   9.2370014
  18.9708214  41.3476143   9.2902489  19.6451797  40.0169182   9.5461216
  66.0715790  65.1553726  74.9732971  65.7171402  64.3032379  75.2272110
  66.9237595  65.1991882  75.4070129  46.0857925   0.7929209   7.7366295
  46.0621986   1.1838644   6.8632236  46.9764786   0.4531381   7.8229713
  35.1736107  68.3243561  28.4035378  35.4137878  69.2504959  28.4318619
  34.9181747  68.1155701  29.3020878  65.8581390  60.8009186  86.1401901
  65.5166855  60.9141273  85.2531586  65.4736099  59.9778099  86.4416199
  15.3061314  66.2718506   8.5998936  16.1098442  66.0323029   8.1384888
  14.6067057  65.8609009   8.0917988  30.0859547  59.9266739  40.2556381
  30.1885033  58.9781799  40.1777229  30.3286762  60.2654152  39.3939133
  64.4571228  46.0531921  61.1359253  64.6737595  45.2847290  61.6638985
  63.9918709  45.6995239  60.3778381  67.1350479  26.9037132  31.2037926
  66.3380737  26.3752556  31.1614265  67.8474426  26.2646790  31.1848736
  40.2247887  42.2964935  85.4197998  41.0102768  42.5599403  85.8992157
  39.8876419  41.5447464  85.9070816  37.0125885  65.3154068  75.3562317
  36.2179222  64.8784256  75.0499802  37.6379433  64.6044540  75.4965973
  84.5237808  66.8092117  85.4846115  83.7511444  67.2643051  85.1496964
  84.7850876  67.3152466  86.2539444  79.1573715  52.3910942  61.4856834
  78.7724762  51.5489998  61.2428589  78.6604309  53.0357323  60.9819717
  49.8027687  66.0041733  45.6460876  49.6029472  65.2286148  46.1703148
  49.8259773  65.6842117  44.7442436  46.3647537  27.0367432  82.0391617
  46.0370178  26.5244026  81.3000259  46.7383423  27.8220978  81.6393127
  60.1615906  15.2103701  67.8383331  59.6144142  15.9539032  67.5853729
  60.2199402  14.6756105  67.0465851  54.4991608  15.6687155  37.8723068
  53.8976784  15.8707390  37.1556206  53.9290085  15.4356709  38.6050072
  37.3501701  10.6610346  12.2217970  36.5294228  10.5766363  11.7365360
  37.8587151   9.8908148  11.9680719  38.7235107  28.5576515   1.9280052
  39.1289024  28.1108017   1.1848943  38.3931770  27.8501892   2.4817252
  57.7812386  10.8639183  65.1038437  58.0265923  10.3211975  65.8531647
  58.5991058  10.9929686  64.6235580  74.1657028  39.9055672  77.3815079
  74.5104218  39.3448868  76.6865005  74.5862579  39.5843353  78.1791153
   1.2123293  70.0044479  75.8369446   1.3903762  70.3249283  74.9527359
   0.9615484  69.0889206  75.7138977  68.0809631  51.5716286  84.3347931
  68.9391174  51.7603035  84.7145386  67.4686279  51.6757240  85.0631104
  33.9941139  63.5768433  26.1479301  33.1388435  63.6239777  25.7206974
  33.8603439  62.9832649  26.8868504  56.9487801  55.8627319  18.6129971
  56.5663719  55.0760841  19.0018139  57.8735809  55.6460609  18.4945488
  79.3900299  17.1166611  13.9787416  78.4879379  17.3910885  14.1435347
  79.5502243  16.4233646  14.6189823  25.1202774  10.7984400   2.5381341
  24.7019005  10.0360546   2.1381826  24.9264221  10.7157097   3.4718406
   6.7957177  64.5651474  44.9718437   6.2776818  65.3697281  44.9945679
   7.5347056  64.7721634  44.3997650  68.6417084   2.2098000  83.5462799
  69.3557281   2.4982178  82.9777603  68.8365021   1.2903684  83.7277527
  73.4095230   1.1856261  29.8046608  72.6422195   1.3284968  30.3587971
  73.7850342   2.0580559  29.6859646  43.0256577  50.4597397  43.8165131
  43.2737770  49.5363274  43.8610001  43.3114090  50.7429543  42.9479675
   9.0514412  64.8187943  52.0521965   9.5585909  64.4527969  52.7768211
   8.8887539  64.0739288  51.4734573   8.0390100  54.8694725  51.0548172
   7.2604671  54.5314178  51.4973373   7.7289605  55.6410065  50.5806541
  21.7528934  45.7785835  78.8352585  21.3684120  44.9036713  78.7810669
  21.5870876  46.0577126  79.7357178   4.5559597  33.9042435  10.6742601
   4.4563913  34.5617218  11.3627663   5.4741077  33.9695969  10.4116478
  72.0734863   4.7955441  77.4932556  71.9263229   5.6932964  77.1955719
  71.5794067   4.7301598  78.3104706  52.9481277  39.9297295  33.2463531
  53.7898712  39.6352806  32.8985062  53.1744881  40.6228905  33.8664474
  50.4780693  34.4660149  49.1844940  49.7562599  34.1308632  49.7163811
  50.5936584  33.8100853  48.4970169  41.3333511  63.8570938  54.2003517
  40.4417381  63.9039497  54.5454140  41.8405952  64.4375458  54.7678108
  13.1267023  36.9070625  88.1209793  12.7646933  37.4939537  88.7848587
  12.3666258  36.6201553  87.6148148  12.4045506  57.9908295  42.4511414
  12.7930841  58.3451042  41.6512909  11.6146927  58.5144348  42.5860138
  20.2797680  46.7410774  86.8517380  20.6707191  45.8765564  86.9782181
  21.0050793  47.2909050  86.5553589   2.0969028  59.7624855  57.3646889
   2.2118347  59.1271324  56.6580467   1.6669767  60.5092163  56.9478035
  76.4344177  37.9458961  37.7370491  76.5981827  38.8706245  37.9222298
  77.3060074  37.5653343  37.6286621  77.8788681  55.1286926  89.0538635
  78.5626450  55.7971725  89.0965195  77.0950699  55.6049538  88.7798767
  68.5018463  70.8147430  84.0160522  68.6752853  70.5863800  83.1028214
  68.9832306  70.1602707  84.5221786  27.8196964   5.6031809  17.8072948
  27.3184185   5.9977770  18.5209103  27.2203884   5.6105561  17.0609665
   1.0078189  16.7318897  71.5878143   1.6315049  16.8345337  70.8689880
   0.6696020  17.6144352  71.7393265  30.0657997  65.0159378  73.6679459
  30.4408588  64.2652206  74.1283646  29.9465961  64.7102661  72.7687225
  14.4031219   1.7770953  18.3814201  13.7764835   1.1823639  18.7935505
  13.8600340   2.4471443  17.9663048  69.8934326  12.0354023  66.6017380
  69.2465439  11.5446529  66.0948486  70.7283936  11.6154823  66.3950043
  28.8564034  54.5255852  83.3723221  29.0319595  54.0631561  84.1918182
  28.7922535  55.4463577  83.6258850  26.2865829  46.0967560  89.2145081
  26.7251434  45.7156487  88.4538193  25.3546772  46.0536842  89.0002060
  21.1374912  20.3027306  13.4305153  20.3374557  19.7840405  13.3460474
  21.3425236  20.2762852  14.3651237  23.4146137  67.6157227  59.6605568
  23.3562260  68.5157471  59.3399696  22.9329262  67.6243591  60.4876785
  33.7802467  41.3771172  53.3834305  33.3531609  40.7675629  53.9853210
  34.6919174  41.0867615  53.3553810  32.6221695  70.2937012  29.7732754
  32.0046310  70.9063263  30.1727276  32.9360161  69.7599030  30.5032024
  29.1611595  45.9679489  28.6968384  30.0936279  46.1731339  28.6287880
  28.7905769  46.6988106  29.1915531  48.2611160  24.0650253  57.6230431
  47.9529686  24.3253345  58.4910965  47.9451866  24.7551575  57.0398293
  20.4339161  40.3331490  30.1047077  20.0924091  40.2619820  30.9960766
  21.1171780  41.0010071  30.1626053  46.1086960   6.8052716  57.4872704
  46.1617508   7.3142972  56.6783752  46.9425621   6.3372960  57.5308952
  86.4833603  25.2124615   5.2863746  87.1084061  25.4545441   5.9697118
  85.8764954  24.6116734   5.7188072  29.1350441  46.3898239  31.8998394
  29.2834644  47.3023224  31.6517467  29.4887486  45.8824310  31.1693096
  72.0588150  56.9350166  66.5774536  71.9987869  57.8893776  66.5346756
  72.3333664  56.6726761  65.6988068  63.1632195  47.2862587  57.6776466
  63.3225479  46.4379120  58.0913620  62.2248955  47.4363861  57.7927094
  39.4932480  17.5350075  82.2540665  39.2350388  17.4324970  81.3380737
  38.8993797  18.2027874  82.5970230  67.7269592  32.7451134   9.2227459
  67.4824829  32.2051926   8.4711142  68.6345062  32.9968224   9.0517702
  35.4901352   6.9094329  12.7555513  35.6456642   7.2936220  11.8927412
  34.8366966   7.4814076  13.1581631  44.9710846  41.0412865  51.4706688
  45.5147209  40.5470428  50.8571472  45.1643791  40.6565514  52.3255653
  75.0120239  68.1600800  11.9019709  75.4936905  68.0305023  12.7189379
  74.1164703  67.8911896  12.1067009  25.4476147  24.6386013  75.5493393
  26.3488884  24.3870468  75.3477020  25.5090370  25.5556030  75.8168640
  65.7220230  45.6224213  80.4147568  65.1646881  46.2475548  79.9512863
  66.4859924  46.1340752  80.6808395  69.0850983   9.6676273  50.1576729
  69.6564941   9.5137310  49.4053078  69.5909271  10.2463169  50.7281876
  73.1746674  13.0299625  22.5021191  72.6163177  12.4619608  23.0330181
  72.7490387  13.0508623  21.6450100  63.3550568   9.7620869  62.4569473
  63.8813019   9.3180122  61.7920456  63.9929390  10.2380533  62.9887276
  59.1037407  42.5716896  64.5331879  59.0109406  42.1500854  65.3875122
  59.6403809  43.3454666  64.7049866  59.5290031  50.0487213  10.2758160
  60.0097923  50.5211105  10.9554644  58.7762604  49.6728439  10.7322426
  52.0922623  42.7294388  20.7879257  52.1915588  43.0586472  19.8946228
  52.9768066  42.7561684  21.1527481  10.4464960  47.0795746  73.2044296
  10.4238615  48.0173607  73.3948975   9.9798784  46.6752777  73.9358978
  67.4294586  19.0707150  78.1684265  66.8286209  19.5876331  78.7051086
  66.9729080  18.2409973  78.0292892  26.7970181  63.1987953   9.7471704
  26.4956017  62.2903900   9.7338581  26.8814335  63.4095345  10.6770592
  41.8639107  69.4987869  18.1200447  41.9239311  70.0253906  17.3229771
  42.5005455  68.7957153  17.9911118  33.5130615  10.8582172   0.1380667
  32.7212067  10.3215866   0.1730298  34.2313957  10.2306786   0.2182039
   0.9612384  70.5270462  12.1229115   0.6076205  70.2445602  12.9663496
   1.7668360  70.9937820  12.3451700  74.9659805  37.5555420  60.0118141
  75.1432571  37.9149971  60.8810654  74.0292435  37.7008972  59.8790054
   1.8773623  69.7752686  37.1883659   1.4854432  69.9116058  38.0509453
   2.1105216  70.6542511  36.8895912  23.4219532  36.6675301  57.4013214
  22.8693047  36.1194000  57.9584274  24.2770081  36.6609268  57.8315163
  67.1711731  15.9280128  43.4985428  66.5553436  16.1403923  42.7971992
  68.0128326  15.8236055  43.0547714  64.0633011  33.3524094  79.4279480
  63.4120979  33.7989998  79.9689865  63.9347534  32.4228630  79.6167679
  30.4627342  38.5703011  48.1180649  31.4005375  38.4673119  48.2797852
  30.2593975  37.9078674  47.4577065  37.9942055  40.1194954  62.7980728
  37.4182892  39.4908485  63.2332191  38.4508858  39.6050720  62.1324539
  62.5378418  65.9029160   5.4899611  63.1637840  65.1812134   5.5497365
  62.4191933  66.0398331   4.5500627  57.0569000  27.5250683  63.7573967
  56.6005173  28.2209415  64.2303772  57.3299484  27.9331627  62.9357300
  79.7708740  32.9554482  40.9415436  80.0825577  32.1622391  40.5057564
  78.8262329  32.8264999  41.0267067  62.8550835  56.9363213  52.5561829
  62.5043030  57.3331146  53.3535156  62.6122055  56.0127487  52.6214142
  43.9099007  17.4835072  77.1800079  44.5023460  16.7922649  76.8843307
  43.1910553  17.4693642  76.5481186  32.9758873  68.0127792  74.9073257
  32.4284782  67.2769928  74.6331177  32.3531952  68.7057648  75.1269989
  61.2994843  57.5726547  28.4765873  61.1322289  58.3604393  27.9592361
  61.0081596  56.8525162  27.9173336  41.8396797  64.6901321  10.0500641
  42.4749107  65.3232880  10.3844643  40.9878998  65.0904388  10.2245703
  26.9381828  19.8661499  81.6788101  27.1238461  20.3904629  80.8997955
  27.3899689  20.3230457  82.3882904  10.8072739  62.4278717   8.3428164
  11.6600723  62.1779594   8.6984978  10.1986790  61.7839165   8.7049818
  73.6096649  47.0352592  52.2114525  73.7017212  47.8259583  52.7430153
  73.4704208  47.3596573  51.3217278   0.1314380  41.3362045  48.9864044
   0.9958426  41.7472763  48.9788971  -0.1847733  41.4270058  48.0875206
  83.2356415  12.7124090  61.5888367  83.1459961  13.6654005  61.5869293
  83.8767242  12.5307684  60.9016304  33.0918007  33.8338470  81.3206253
  32.5114479  33.0735283  81.2840347  32.5557022  34.5259552  81.7076950
  70.2851028  21.6201038   1.9885399  69.7096634  22.1253071   2.5628877
  70.4469528  20.8069134   2.4668252  30.8035793  15.6231070  85.3161469
  29.9876766  15.2313185  85.0046387  30.6201038  15.8695660  86.2226944
  60.5435295   0.8937125  85.6861572  60.7653275   0.2003353  85.0646515
  60.7589149   0.5252745  86.5429459  72.2780609  69.0807648  55.8569107
  72.4052963  69.6925125  56.5820389  73.1642456  68.8717804  55.5615578
  78.8288651   1.4486367  41.4410172  78.7095566   2.2796144  40.9811554
  78.9199677   0.7997050  40.7432938  68.7922592  11.6544294  58.6293373
  68.1989441  11.8139114  59.3633499  69.2582779  10.8530617  58.8678055
  21.6194439  40.8643875  59.1600342  21.8146172  40.3728218  58.3622208
  22.4384918  41.3121834  59.3718605  46.5908165  10.8613634  81.3535461
  45.8699341  10.2884579  81.0921249  46.6686325  11.4907713  80.6365891
  21.5188618   2.5918865  13.0272264  21.8681908   1.7033184  13.0954056
  21.1257114   2.7610304  13.8834133  10.9385443  66.0724640  50.5794029
  11.7309217  65.6519241  50.9133453  10.2295313  65.6952972  51.1002464
  44.3572388  69.0647659  10.3610373  45.0966797  69.2784576   9.7920065
  43.5853233  69.3262634   9.8590431  48.2681847  39.2801285  70.4456100
  48.9022446  39.1415062  71.1491547  48.6426506  39.9883957  69.9218063
  29.3656559  25.6853333  63.5604210  29.5336475  24.9347229  64.1301498
  29.7731018  25.4493885  62.7270241  26.8287830  56.4445992  18.8243027
  27.2482929  56.3176308  19.6752567  27.2773933  55.8312874  18.2422142
  11.7984552  18.5634842  77.6210861  10.8922033  18.2870998  77.7572937
  12.1231394  17.9873333  76.9290848  78.9415817  57.2067032  50.9737587
  77.9948425  57.3460350  50.9516029  79.0617523  56.4738045  51.5776176
  15.3896923  28.8940868  69.8336792  15.8268919  28.0431442  69.8650742
  16.1003819  29.5312862  69.9052811  23.9147415  63.8770599  39.9603996
  23.4509258  63.6289635  40.7601204  23.2361145  64.2445755  39.3941574
  14.9360619  59.8763084  36.4210930  15.0888224  58.9372215  36.3161736
  15.0193110  60.0288162  37.3623886  50.1750908  29.1279945  75.9966812
  50.4977341  28.8975334  75.1254654  49.2293816  29.2239819  75.8842087
  84.5662384   4.5078869  54.6544952  83.7325516   4.8690743  54.9557343
  84.3647690   4.1173530  53.8041267  61.5231667  19.4135971  43.8907738
  61.9808273  18.7180119  44.3629379  62.2033997  19.8332176  43.3640556
  18.1298485  43.2193222  54.8868790  17.7478161  42.8419228  54.0945053
  18.8865757  43.7156219  54.5749817  44.5675468  68.7190018  15.9216881
  44.4906883  69.0059891  15.0117655  44.3947792  67.7780075  15.8914452
  30.9216690  63.9026299  82.7186890  31.8640480  64.0601578  82.6609268
  30.5574532  64.3449707  81.9519348  74.8008270   5.8411040   2.8781414
  74.6662369   5.0250068   3.3599110  74.0915604   5.8597040   2.2356279
  41.7774658  21.9833183  66.9378357  42.5854607  21.6246700  67.3049088
  41.9729004  22.1130352  66.0098190  22.5436878  35.9701614  73.9439774
  22.5087528  35.6317215  74.8386612  22.9946194  35.2875099  73.4471054
  79.6110077   9.5974379  80.4547577  78.7364578   9.3741484  80.7734146
  80.1986542   9.3322763  81.1622772  23.8853931  62.5396805  58.5846062
  24.6746025  62.5699615  58.0438080  23.2277470  63.0133591  58.0753326
  72.2902603  51.1286621  35.4708939  71.8406296  51.0500984  34.6295280
  71.6029739  51.3822289  36.0869904  83.8421936   0.4248575  29.4687576
  83.1101685   0.1038429  29.9953671  84.6073456   0.3226611  30.0347309
  50.7877922  63.4990959  78.6130676  50.7518806  63.4167213  79.5660400
  49.9144592  63.8030930  78.3658600  66.5709991  32.7715263  24.0529289
  67.2064056  33.4254456  24.3442726  65.8252411  32.8828735  24.6425686
  60.3695030  29.5155659   5.9316425  60.1130333  30.0568027   5.1849704
  59.5516129  29.1198006   6.2327394  67.8985291  10.4680414  40.7898178
  68.6303940  10.9909286  40.4624138  68.3110886   9.7020988  41.1890106
  37.6545067  46.5724907   1.5384626  38.0990944  47.3130760   1.9508979
  38.0647850  46.4963722   0.6770048  11.3945856  69.0524368  29.8257236
  11.9967947  68.6310806  29.2125053  11.6212769  69.9814606  29.7838535
   8.6442804  27.4149265  47.9958839   8.6685085  26.9146404  48.8115807
   8.0916271  26.8950138  47.4123611  54.1216087  27.7737389  69.8660126
  54.8013573  28.4223175  70.0490952  53.5040550  27.8625755  70.5919342
  66.0251694  16.0685253  23.7947712  66.7682571  15.8594561  23.2287788
  66.3436279  15.8975277  24.6810970   8.7398033  44.6791916  42.7286949
   9.2659264  44.2771912  43.4199409   7.8339701  44.5183220  42.9929237
  18.5843372   8.9900293  77.0048141  18.1947670   9.0643835  76.1336441
  18.1882420   9.7029142  77.5059509   3.0986288  64.2844238  64.2896500
   3.1336958  63.9394302  65.1818237   4.0154524  64.4122238  64.0460587
   5.7463689  61.1957893  29.4622307   5.4273863  61.6181641  28.6646843
   6.6808200  61.0609856  29.3045597  40.8312454  28.4388218  72.2844772
  41.5130005  29.0062618  71.9246826  40.3199501  29.0115604  72.8561172
  65.2756195  46.1628036  36.7227135  66.1852646  45.9498062  36.5143394
  64.9937515  46.7342110  36.0083771  21.8918095  12.5212536  43.6277237
  22.1857986  11.7591839  43.1286774  22.1705761  12.3416252  44.5256424
  75.4410248  53.4687958  85.7263412  76.2592926  53.3951607  86.2175140
  74.9874115  52.6422157  85.8913651  33.8643837   5.6757135  34.6746712
  34.2007408   5.9293742  33.8151627  34.5088005   6.0175071  35.2944603
  31.3286476  13.4386320   9.7309570  30.7378750  13.6288347  10.4596834
  31.1443882  12.5269337   9.5049343   1.7988111   2.2853909  59.5905228
   2.2977121   2.2785404  58.7736473   1.4462250   3.1734033  59.6483917
  24.8038960  20.4252872  78.7401505  24.2600346  20.2885342  77.9644318
  25.5342274  20.9603043  78.4293442  22.2860260  45.6959991  18.2683182
  21.6384468  45.7989464  18.9656525  22.1023865  46.4143639  17.6629601
  62.5720825  62.6447487   3.6929142  61.9194565  62.3487892   4.3275161
  62.0627670  62.8786545   2.9169528  73.7736740  44.0267067  46.7754898
  73.4872894  44.3048477  47.6454659  74.2557449  43.2143936  46.9303627
  55.3868484  10.2820463  64.0384827  55.5662613   9.7284279  64.7984543
  55.9844818  11.0233974  64.1357803  48.6629753  24.9878521  80.0309067
  48.8418159  25.5690842  79.2917099  47.7246971  25.0871792  80.1921463
  36.5994720   0.3399295  20.3390675  37.1798515  -0.2762220  20.7859993
  35.7304268  -0.0549470  20.4102478  15.1650972  46.1173325  25.8342953
  15.8026333  45.8153419  26.4812756  14.3282995  45.7689362  26.1419029
  75.0830460   7.1271510  44.6533966  74.6601181   6.2847333  44.4869766
  76.0192032   6.9457583  44.5701256  36.7421494  64.6965256  24.6022587
  36.0569229  65.1672592  25.0767078  37.3240967  65.3837128  24.2777061
  58.8320656  35.1871719  11.4750376  59.0186119  35.0346870  12.4014177
  58.0996094  35.8033981  11.4764853  15.6575365  67.8724442  39.3330727
  16.4358940  67.3181229  39.3889618  15.9880381  68.7624283  39.4552307
   6.2596226  38.2005997  86.4559555   6.4061222  39.0897903  86.1332932
   6.1990061  37.6655807  85.6645584  66.6243210  40.4506035  47.5652008
  67.1960983  39.7189713  47.7976112  65.8381577  40.0364952  47.2092514
  13.2638645  35.9703636  55.0648613  12.3229828  35.9883347  54.8897896
  13.3446026  36.2680054  55.9710197  23.9162369   8.2075624  16.7044373
  23.3895702   8.6244631  17.3863811  24.4920368   8.9034443  16.3875217
  65.4074707  61.1843109  33.4588432  65.6987839  61.5280685  32.6143303
  64.8789825  61.8883934  33.8346024  61.7621956  17.4825802  13.7168131
  61.3776817  16.9653893  14.4245529  62.3520470  18.0928936  14.1593380
  81.9939651   6.5781002  42.9094963  82.8448105   7.0077963  42.8220329
  82.1609497   5.6657515  42.6729202  41.1695137  70.0112991  89.2977142
  40.7857094  69.6184921  88.5137253  40.8160095  70.9006042  89.3176346
  44.4274788  57.2719078  23.1915245  45.1686478  57.7542114  23.5579720
  44.0207710  56.8475571  23.9470043  37.7487679  67.6264191  20.6982880
  38.4368095  68.1314850  20.2650051  37.1321335  67.4120026  19.9982758
  62.3017235  14.8090248  58.0029373  61.5815125  15.0389214  57.4158440
  61.9909821  15.0598536  58.8728561  68.2708359  51.2465706   5.2149234
  67.6686020  51.2399330   4.4709501  68.9870682  50.6701698   4.9484458
  49.4869537  20.1174507  81.8895798  49.1241417  20.2941971  81.0216141
  50.1784859  20.7704010  81.9976196  32.0322037  25.6563950  81.7203369
  31.4377956  26.0251350  81.0669327  31.5407639  24.9334412  82.1102829
  44.9734726   6.9122396   6.3595757  45.3582420   6.7581015   5.4967756
  45.0892677   7.8505373   6.5093079  46.1531868  21.5190392  12.2431383
  45.7606735  21.8655739  13.0444365  45.9439735  22.1698208  11.5731039
  44.4371910  43.9696693  23.3741951  44.9726601  43.3319778  23.8462715
  43.6534996  44.0710068  23.9143677  61.8970337  51.1626549  21.3101692
  61.2851791  51.5807610  20.7043190  62.6773834  51.7163048  21.2825756
  70.8085632  60.2132607  72.7553787  71.3647385  60.2495155  71.9771881
  70.1190414  60.8555069  72.5871124  17.6127548  16.4870243  11.2766447
  17.2495136  16.3420067  10.4029980  16.8927307  16.8748016  11.7740641
  85.3580704  20.7148190  39.5998306  85.3837662  21.1218262  40.4658089
  85.4955673  21.4398804  38.9902306  41.2283401  54.2490654   3.5333891
  42.1644058  54.2580833   3.3335581  40.8015099  54.3845024   2.6873949
  77.0051804  53.1520920  80.4113159  76.5094528  52.5647621  79.8407593
  76.9220200  54.0123329  79.9998550  84.2201691  44.3869972   5.4316139
  84.5742950  44.9042549   4.7082391  84.5140839  44.8443375   6.2194533
   9.6052542  53.9981194  85.2932739   8.7325983  54.3914146  85.2979660
  10.1451502  54.6071281  85.7971115  35.2450905  16.0825710  74.9475250
  35.4326057  16.4845676  74.0993118  34.6799507  16.7142792  75.3922653
  54.2494621  65.1748123  18.0907040  54.7860260  65.9420853  17.8916473
  54.6458321  64.4670105  17.5826302  77.6839752  10.7117920  20.7453728
  77.9836349  10.0030680  21.3147087  76.7462769  10.5524235  20.6378479
  11.8040590  61.4635506  45.5804710  11.8599548  60.7850075  46.2532883
  12.1508121  62.2492027  46.0032539  54.5240364  29.0112877   7.3337226
  54.7129326  29.7544651   7.9066434  54.2828407  28.3034649   7.9312534
   0.5444837  31.4898682  36.6474342   0.9057280  30.8377647  36.0470200
  -0.2591647  31.0900936  36.9799423  74.0481720  46.6619263  27.1014557
  73.6376953  47.2377090  26.4563065  74.9862900  46.7365189  26.9265099
  69.5639801   9.8758383  71.6534729  69.5570984   9.9020634  70.6966553
  70.4855194   9.9823523  71.8893814  25.6630859   8.3253393  29.2259064
  25.9105968   7.5679836  28.6954517  25.2876835   7.9481139  30.0215225
  20.8178406  13.9763327  17.0703983  21.1665077  13.4388084  17.7815456
  20.4031792  14.7176657  17.5116615  45.6708412   1.3320519  36.9011459
  46.0727806   2.1636560  37.1523705  44.7433472   1.4412349  37.1110611
  48.0700836  68.1522675  65.8745499  48.2198486  68.1351013  64.9292908
  48.1074028  67.2332840  66.1396942  84.1643524  18.8832798  12.6228561
  83.2516556  18.8520508  12.9096355  84.1988373  19.6206532  12.0134935
  60.9581108  14.4590797  26.1449623  60.3108597  15.0059671  25.6997471
  61.2213669  14.9729567  26.9084129  53.7364388  26.0441246  77.5292892
  53.1670380  26.1588612  76.7684708  54.3060951  25.3118057  77.2938538
  52.3624573  12.0876865  34.4073677  52.9696960  11.3552189  34.5121727
  52.3796730  12.2808323  33.4700127   3.2921786  66.9776077  32.5336685
   3.3062913  67.4625778  33.3587952   2.3620052  66.8664093  32.3370857
   9.3350363  17.1847935  24.1619244   9.3506699  18.1415234  24.1363087
   8.9038029  16.9743862  24.9901752   0.3230533  21.5633087   4.5113606
   0.4444781  21.2462082   3.6164103   0.8856992  22.3354397   4.5702882
  47.9914970   2.6956642  80.2459335  47.9086266   1.7641616  80.4500580
  47.5792465   3.1407106  80.9863510  16.1173878  39.9401283  13.7661486
  16.9794559  39.9732323  14.1808472  16.2958527  39.6768646  12.8633347
   9.2261820  36.2585640   5.0213981   9.9459639  35.6552238   4.8366613
   9.4227571  37.0340042   4.4957724  64.5002670  10.8283720  45.1604347
  63.9077644  10.8810034  44.4105034  65.3760681  10.8279305  44.7741661
  82.9013901   3.6682899   8.2871313  83.3748093   4.4314723   8.6182728
  81.9943619   3.8138249   8.5561266  63.2486572  37.7312012   2.8988366
  64.1939774  37.6151428   2.8032498  62.9809647  37.0335083   3.4969976
  44.0928116   3.9003575  66.9409180  43.4303894   3.2575777  66.6874161
  44.7343712   3.8758523  66.2309647  14.3297453  52.3976402  30.3857613
  13.5838346  52.6417580  30.9337177  14.1847124  51.4738007  30.1815166
  80.0811920  45.1356010  69.6485291  79.2951431  45.0782166  69.1053238
  79.9165115  44.5316887  70.3726883  11.1755400  60.4315186  10.3664474
  10.8431463  59.9459724   9.6114693  11.9931822  59.9892006  10.5945940
  76.6090622  19.6391029  32.3047447  77.5528336  19.4893589  32.2490730
  76.3623810  19.2960815  33.1636505  82.4768448  43.9412079  69.0160828
  82.7604904  43.7374268  69.9072876  81.6800537  44.4590797  69.1308517
   3.6444051  28.7866840  11.4905643   4.5948091  28.8830357  11.5512352
   3.3766751  28.4986229  12.3632460  81.2984009  27.1045094  24.7110558
  81.7772064  27.7183533  24.1541271  81.5393219  27.3528309  25.6035366
  60.0701790  69.7569809   3.0350902  60.7250137  70.3388672   3.4208872
  60.5787354  69.0333939   2.6689985  13.4652128  34.1320686  57.5521507
  12.9340811  34.0411377  56.7610359  13.8820715  34.9891624  57.4635658
  77.5898285   2.7848809  66.2276459  77.5199814   3.5027089  65.5983047
  78.5195236   2.7538352  66.4533386  47.2577820  51.8223000  48.5762978
  48.1958923  51.9839287  48.4760170  47.2041893  50.9345970  48.9303398
  15.4296227  32.2856140  83.3303146  16.0245895  32.4924202  82.6095657
  16.0064602  32.0508728  84.0572205  22.4746647  64.8300476  59.8850327
  22.9174366  65.0095291  59.0555916  22.0854321  65.6680527  60.1349869
  37.5135727  12.2659807  72.5136795  36.7664299  12.7473707  72.8690338
  37.2456093  12.0292931  71.6257553  37.1856880  42.2796097  60.9311066
  37.2587929  41.6034698  61.6046944  36.9125099  41.8062668  60.1452599
  68.3982162  60.6785851  86.7723236  68.7699738  61.4831810  87.1337891
  67.5283585  60.9336662  86.4649048  48.2687073  10.1873569   8.4729853
  48.8990288   9.5250950   8.1895523  47.5655098  10.1414948   7.8251858
   7.5685563  53.4573708  71.7226334   8.1413498  52.8461838  71.2593918
   8.1674633  54.0368919  72.1934814  77.8336411  65.6608276  64.3460312
  77.5887299  64.8278275  63.9430962  77.6382828  65.5437775  65.2757416
  70.8543854  70.6835403  65.1425781  71.1895981  69.8250427  65.4011154
  71.3014603  71.2998581  65.7226791  73.4354782  53.2672310  56.0630646
  73.7767410  53.9030113  55.4341316  73.2709808  52.4805794  55.5431137
  13.5553503  56.5274620  68.7431717  13.7931986  57.4417496  68.5890808
  13.9544153  56.0502815  68.0156555   4.1046185  15.3654604  49.5840416
   3.6266091  16.1129951  49.2249756   3.6551809  14.5996656  49.2265549
   5.4448695  60.5069122  45.0514908   5.0337763  60.8583832  45.8412399
   4.7729053  60.5892029  44.3747902  56.3163223   5.0114794   0.7274061
  56.2105904   5.9567122   0.8350522  55.9398575   4.8247676  -0.1326206
  73.3816376  45.3495712  29.3485813  73.6610031  45.8667564  28.5931282
  73.9175415  45.6739807  30.0723209  32.1603508  47.9291344   6.4854088
  32.9149933  47.7849159   7.0563254  31.4159660  47.9926338   7.0838170
   9.6780367  13.7682486  84.0986328   9.5873613  13.7867422  83.1459122
  10.1760387  14.5586395  84.3072128  11.8820229  67.2520447  56.2988243
  12.0254107  66.8795929  57.1688538  12.6204891  67.8469009  56.1682625
  15.0122957   9.5588541  57.2059555  14.7503624   8.7093344  56.8510780
  15.9670830   9.5626631  57.1381416  23.2784500  33.1115723  15.6326199
  24.0995388  32.8352509  16.0396709  23.5394936  33.7729874  14.9918270
  38.4034119  54.9152184  77.5536957  38.6629372  55.1960945  78.4311829
  37.6910591  55.5077324  77.3134537  53.7187920  62.9969482  73.7907104
  54.5910988  62.8084030  74.1367722  53.8732719  63.2650223  72.8848877
  78.7989044  63.6514740   4.3119459  79.2216568  64.2082367   3.6580870
  79.5176086  63.1577950   4.7068839   4.8046079  28.5545406  25.1804848
   4.7665234  27.6405029  25.4621220   4.3782682  28.5590649  24.3234863
  84.8283463  34.4774704  69.6920166  83.9344101  34.1453285  69.7743530
  85.2494659  33.8808937  69.0731583  72.0675735  34.7692795  60.1647530
  71.7422409  34.8189697  59.2659073  71.3204193  35.0274429  60.7045135
   0.7246268  62.0605736  56.4485855   1.1225528  62.6710205  57.0692635
  -0.2088880  62.2710304  56.4707146  14.3718386  39.2716446   0.6981979
  15.0990906  38.9451485   0.1683511  14.7924242  39.7190781   1.4324609
  30.0685101  45.5809822  48.1385880  30.5177231  44.8449211  48.5541039
  29.9961395  45.3286514  47.2180862  78.8707275  56.0594826  77.3269882
  79.3426437  55.7552872  76.5517502  79.5553589  56.3828773  77.9125824
  66.3841476  16.3238411   9.9136276  66.2224503  16.7471085   9.0704603
  67.1063080  16.8216362  10.2969322  45.8266411   1.2660533  64.2551193
  45.8770332   0.3233809  64.4134293  46.2641830   1.6594377  65.0101318
  54.4015808  19.1526546  37.8996582  53.5873947  18.9405708  38.3561172
  54.8934937  19.6870365  38.5231094  60.3625641  32.7153320  37.5375214
  59.9845734  31.9786587  37.0572433  61.2890701  32.4924011  37.6276283
  77.5002213  50.9051781  56.3077583  76.6378632  50.5097237  56.4349976
  77.3139038  51.8055000  56.0414009  20.6212864  64.5159225  19.5693436
  20.4582787  64.0377502  18.7563190  20.4840565  65.4346771  19.3384838
   3.5709722  13.7585564   9.4932098   2.6870875  14.1137905   9.5869570
   4.0047822  13.9747438  10.3186207  55.7140121   0.4589877  34.7767525
  56.3456268   0.2299131  35.4585266  56.2443848   0.8410952  34.0775146
  65.9761658  31.5072384  13.1378107  66.2934341  31.0068207  13.8895779
  66.3546677  32.3788109  13.2532787  25.0104561  37.4155617  23.2858582
  24.1336975  37.0426636  23.3779316  24.8584023  38.3212242  23.0158901
   6.3370275  60.0076332  85.8155670   5.7882109  60.0094299  85.0313339
   7.1856503  59.6840630  85.5132904  49.3749313   4.0665169  58.0938492
  49.3998718   4.9172759  57.6558762  50.2027435   4.0189610  58.5720749
  67.3792648  21.4988823  76.4806900  67.8394699  20.8902721  77.0586472
  66.5075684  21.1174259  76.3764343   9.0817518  65.3749008  10.4289370
   8.1403542  65.3374939  10.5980568   9.4809885  64.9951935  11.2116642
  65.6884689  48.9413681  10.5572748  66.2393112  48.9967079  11.3381386
  66.0898743  48.2510757  10.0294437   9.4960213  57.5270042  74.5543365
   8.9130392  58.1482430  74.1179581  10.3755398  57.7998009  74.2930679
  30.3503036   8.8119383   4.4156451  31.1227646   8.4146948   4.0134826
  29.6108303   8.3449383   4.0266452   4.5760193   6.8835917  73.9122009
   4.4283566   6.1183600  74.4679413   5.4445338   7.1979842  74.1633453
  47.0861511   1.7413323  10.2948523  46.8504181   1.7067504   9.3677788
  48.0307808   1.5872343  10.3076992  55.7015381  71.5568314  62.4986572
  55.5228996  70.7042236  62.1019554  56.6454239  71.6766586  62.3939934
  22.5287361   1.5504874  22.6825504  22.1676922   0.6969523  22.4430580
  23.4236183   1.3613662  22.9647732  40.6700974  47.1967773  36.9340324
  40.4829979  47.1541901  35.9962654  41.0568466  46.3457565  37.1399956
  78.0447235  64.4247208  80.6893311  78.9042282  64.1041031  80.4160385
  77.4710770  64.2347107  79.9469986  65.5166779  14.4347391  11.5879154
  65.2766037  13.6069098  11.1716280  65.6602783  15.0370903  10.8579941
  61.7277832  15.4866343  63.8293266  61.7406006  14.5315924  63.8922844
  60.8699646  15.6906157  63.4568024   7.5613656  49.3718452  43.0420799
   7.1782546  48.5076790  43.1926422   7.4499750  49.5229912  42.1034737
  50.6180267  62.2127571  29.8427792  50.4632187  62.3600578  30.7758236
  49.8382111  62.5632629  29.4123497  77.5056000  16.0270748  39.8301430
  77.4116821  15.0754509  39.7874222  77.4108200  16.2356186  40.7595291
  58.3586922  36.4223785  84.7400818  57.6217461  36.8228493  84.2788162
  58.9832764  37.1376991  84.8602676  44.9823303  45.2082367  46.0163269
  44.9731331  44.8939362  46.9204102  45.8372002  45.6272621  45.9171143
  50.4133797  18.2645836  35.1954460  49.5427780  18.6287746  35.0353012
  51.0155182  18.9686737  34.9547844  52.0700073   8.6427288  50.6699600
  51.9880753   8.5654421  49.7194099  51.7730255   7.7968960  51.0055161
  66.9193344  55.2693558  66.7130127  67.3272400  54.4942589  66.3269043
  67.6555481  55.8098679  66.9994965   6.0889826  28.7652779  47.7964249
   7.0106077  28.7565670  47.5380363   5.8272915  29.6827793  47.7193565
  54.5120125  40.3295288  74.8312378  53.7992058  40.9681625  74.8143997
  54.8739357  40.3977966  75.7147446  75.8092880  70.1139679  88.6504440
  76.7368851  69.8838882  88.5969849  75.7446976  70.9550858  88.1981430
  62.4455490  23.2182312  46.1279106  62.7891693  23.5037613  45.2813721
  61.9028511  22.4571743  45.9217491  68.9427338  50.2297287  41.7220573
  69.3945694  50.3997231  42.5486031  69.1532288  49.3187599  41.5169716
  18.9996014   0.0385284  43.2648621  19.5329952   0.1681366  44.0490341
  18.3596230   0.7498752  43.2902412  80.2849808  47.5008926  79.4677887
  80.2690506  48.4132195  79.7569809  80.7169800  47.0310287  80.1811142
  54.8717041  57.9669609  34.5176582  54.1754532  58.1879234  35.1362381
  55.6797791  58.0667343  35.0209351  31.1570206   9.3571415   0.6877760
  30.9405136   8.6466131   0.0840334  30.6113853  10.0895405   0.4012362
  82.4573593  15.1369009   7.7278304  82.4862061  14.2440071   8.0715456
  82.8123169  15.6769428   8.4339399  78.7046204   5.8458452  23.3451614
  79.1033936   5.1899428  22.7733173  78.7396088   5.4553413  24.2183819
  49.7571030  39.3266830  43.9927711  49.5763512  38.4004517  43.8325920
  49.2426758  39.5399590  44.7712975  18.3445129  59.1789970  37.7622528
  18.5056381  58.7560997  38.6057167  17.3953362  59.2988968  37.7318840
  51.4089394   1.2417701  20.4495163  50.7192345   1.2864348  19.7872906
  52.0544319   0.6376069  20.0826893  74.1915131  29.6145401  11.1203814
  75.0698471  29.5743637  10.7420387  73.7029037  28.9290085  10.6648159
  79.9754639  35.9423828  52.2732086  80.4259491  35.2445068  52.7488785
  79.5582733  36.4672356  52.9563751  78.3042221  14.3362894  52.4824867
  78.0660324  15.0627193  51.9064674  77.9377060  14.5755272  53.3337593
  52.3260803  66.4660797  29.0436420  52.3085365  66.9280167  29.8818169
  53.1248970  66.7752914  28.6164246  83.1344452  41.4397469  46.3818207
  82.9392853  40.9964485  45.5562134  84.0903168  41.4424820  46.4320869
  80.3664093  38.4309044  80.4001389  81.1712799  37.9195251  80.3170547
  80.0404053  38.2238159  81.2759628  51.3549156  47.2084312   8.4768524
  50.7250061  46.4914589   8.5503263  50.8202934  47.9777908   8.2806492
   6.7437854  22.8349686  59.1762352   6.1616087  23.5032387  59.5377808
   7.6012554  23.0360928  59.5511017  29.2408237   1.7467808  24.4087448
  28.4307613   2.2497225  24.4928799  28.9921265   0.9756274  23.8991337
  50.2217064  54.7321434  54.4831696  49.4483604  54.7938423  53.9224892
  50.7862282  55.4483185  54.1922340  86.0399933  17.3641148  27.9957962
  85.5926590  17.9439716  27.3794441  86.8952942  17.7721062  28.1308346
  71.5367050  21.0914764  10.4893675  72.1048126  20.4955044  10.0012054
  71.7678757  20.9451866  11.4066401   3.0578308  27.9475555  71.9434280
   3.5298779  27.3433132  71.3704605   2.8498809  27.4280910  72.7200546
  17.5653553  61.7701492  49.2619820  18.4368629  62.1609001  49.3253746
  17.6077538  61.2152100  48.4832153  36.3928757  38.1670761  63.6994019
  35.7441635  38.3932915  64.3659058  35.9299469  37.5762558  63.1053848
  73.8503723  71.3870239   9.1722288  73.4780350  70.9164352   9.9179811
  74.7926788  71.3949280   9.3402624  64.4865646  11.2099876  31.2900257
  64.7036514  12.1101551  31.0475330  64.0016479  11.2934284  32.1110764
  73.3371277  18.8069172  73.6989441  72.5877151  18.2693195  73.4428177
  73.1408386  19.0800362  74.5951080  32.5880089  62.2520447  76.8229523
  33.5043678  62.4886589  76.9662247  32.1571617  62.4479103  77.6549606
  58.2835503  59.8267479  54.6168861  57.5940361  59.9026794  55.2764587
  59.0226936  60.3098335  54.9863777  15.3589983  59.4390717  19.3869629
  15.6348066  60.0769920  18.7287712  14.4025450  59.4629745  19.3576565
   5.7058959   8.6688213  18.6627140   5.7515669   8.6230259  17.7077007
   4.7732105   8.5876465  18.8620625  71.6696167  35.8021545  69.5605621
  70.7964401  36.1432381  69.7540970  71.7982788  35.0984879  70.1965866
  54.5069580  55.9825630  47.7268181  53.6745186  56.3467293  47.4257240
  54.2615471  55.1996536  48.2198257  51.9954567  52.4522438   5.5848804
  51.1993484  52.9655533   5.7225647  51.7764206  51.8585281   4.8667183
  81.6459503  50.3000298  13.1034575  81.8467102  50.2046089  12.1724243
  82.4219742  50.7204552  13.4739447  30.7561989   3.1557348  35.3513870
  31.3540649   3.6023939  35.9507904  30.1772060   3.8473747  35.0310211
  61.7758217  19.4115562  36.1783257  62.3892288  19.4257832  35.4436417
  60.9109001  19.4248772  35.7684898  15.6812944  16.6745834   9.3017035
  15.3211432  17.3456364   8.7218666  14.9581766  16.4512253   9.8877449
  46.0802917  55.4516373  30.9163132  46.8739510  54.9263763  31.0184956
  46.0237083  55.9600029  31.7253838   6.2294989  36.2817001  48.7569656
   5.8997402  35.6411896  49.3872299   6.7673779  36.8767242  49.2793274
  77.1059113  50.2456093  19.2273636  76.8421097  49.9123344  18.3697109
  76.4813690  50.9464569  19.4144344  15.3337383  53.2624817  76.9672699
  15.1788387  52.3281898  77.1063461  15.7691259  53.5548782  77.7680054
  42.4210052   1.9814005  72.0047836  41.5698280   1.6592340  72.3013306
  42.4087830   1.8523540  71.0563965  57.7453651  19.0451660  40.2958412
  58.2420387  18.8502884  41.0905571  57.3549042  18.2076931  40.0460243
  26.1518097  67.2370300  44.6226654  26.1283245  66.6344376  43.8793182
  25.9558277  68.0935516  44.2429352  42.7027893  61.1942978  14.2287903
  43.0865440  60.3205719  14.3033867  43.3865776  61.7217789  13.8159657
   0.2195054  36.1265450  14.0787897   0.8527263  35.7913971  13.4440165
   0.4783501  37.0376396  14.2171278  77.9522324  35.8015862  48.8823700
  78.0409241  36.2361603  48.0341339  78.3440628  34.9381561  48.7512627
  67.4191208  54.7213326  52.7190552  66.7746811  55.0495262  53.3461189
  67.2782516  55.2486115  51.9326973  56.9989891  11.4661818  42.4015427
  56.3096504  10.9291000  42.7921638  56.6355782  11.7492199  41.5624657
  16.1743984  55.5294876  40.9066887  16.7989464  56.0501175  41.4117775
  16.7093410  54.8578720  40.4836044  57.3511696  64.8137894  31.1208572
  57.4430046  65.4344788  31.8437328  58.1045952  64.2300339  31.2092266
  72.1249619  25.1191406  43.3587227  71.2297516  24.8112068  43.2173042
  72.3739166  24.7506504  44.2063484   8.7606649  42.5697823  10.0628595
   8.8103933  42.5143509   9.1085606   9.4504719  43.1883926  10.3031130
  36.9007454  36.2571335  58.8355103  36.5487900  35.3721352  58.7398987
  37.8497086  36.1447830  58.7800560  77.3225250  48.9058151   0.9251481
  77.0674133  49.7121277   0.4768079  76.4971161  48.5316467   1.2332529
  30.4936790  51.4244499  71.3137741  30.6160679  52.3541183  71.5060501
  29.7164116  51.1766205  71.8144455  28.4295559  51.0771179  44.7458839
  27.5225983  51.0169182  45.0459404  28.3630867  51.3898582  43.8436584
  13.7096043  16.6275635  78.7743149  13.2087479  15.8154497  78.8507614
  13.0760841  17.3187275  78.9671249  58.9949532  43.9673233   1.0830992
  59.2665215  43.1588249   0.6485722  58.0950966  43.7985306   1.3623847
  39.4060898  68.6856689  18.7866383  38.8786812  69.0630417  18.0826054
  40.2136383  69.1995544  18.7827740   6.5530701   3.6515813  81.3878098
   7.1740298   3.1267226  81.8929520   5.9819155   4.0466433  82.0465546
  11.2716818  38.6367416  19.4832611  11.7139053  37.8389626  19.7734642
  10.3667984  38.5290947  19.7762260   7.7986927   7.1510625  11.9841337
   7.4111576   7.4371252  12.8113079   7.0668039   6.7773218  11.4933300
  17.2741871   3.4917088  67.4001770  17.2035351   2.7663252  68.0207062
  17.6103954   3.0897758  66.5991516  35.0465050  41.9769630  17.7266922
  35.7584114  42.6064644  17.8413467  34.3489761  42.2974625  18.2984982
  10.0191908  56.9855652  67.6431046   9.0679302  56.8966103  67.7015991
  10.1937332  57.8829269  67.9268494  61.8257141   1.6932080  80.4095154
  62.3054581   1.4271201  79.6251144  62.3693886   1.3906958  81.1369324
  69.3134460  62.9213219  69.6265793  69.3342819  62.4665031  70.4685669
  68.4336472  63.2952538  69.5780563  86.6004868  40.8730965  29.6856003
  87.0174026  41.6913109  29.9556828  85.8581161  41.1486740  29.1478481
  82.9656754  68.6606140  88.1166153  82.9957886  69.6024933  88.2844925
  82.3314438  68.5641022  87.4062119  83.0960388   8.6971188  87.0970306
  83.1935272   9.2677937  87.8592987  83.8200684   8.9416132  86.5206299
  50.9104652  16.8183155  73.9015045  50.1915855  17.0148239  73.3008194
  50.9258537  15.8625774  73.9520950  63.5229454  68.1933975  52.0051079
  64.1546097  68.8732834  52.2396011  63.3452492  68.3416290  51.0763016
  25.6937962  68.7096252   8.9648552  26.3977852  68.3663864   9.5151453
  26.0839405  68.7810898   8.0936995  59.8444939  31.0873241  50.7038765
  60.4861259  30.8795586  50.0246315  60.0779724  31.9697552  50.9920311
  73.9592361  69.2539749  24.5701733  73.4844284  68.4388123  24.7323284
  73.9136734  69.7270432  25.4010544  49.0824356   1.1379066   0.9145733
  49.0046310   0.2100406   1.1364808  49.6156616   1.1501870   0.1197455
  74.0572052  42.0824623  57.5538445  73.4347000  41.9159698  56.8460350
  74.5179901  42.8773880  57.2855072  72.0641556  42.7825966  85.6511078
  71.4415588  42.8708687  84.9294357  72.7927780  42.2854424  85.2793808
  62.2612686   2.2676256  54.1336746  63.1490097   2.5217719  53.8815689
  61.8512688   1.9863313  53.3157501  57.9619522  41.3581734  74.5957718
  58.8270378  41.5901909  74.2580948  57.5364532  40.9009132  73.8704529
  60.6225128   6.0431185  43.3907433  60.1648865   6.4943719  42.6813927
  59.9354362   5.8319383  44.0228539  43.0781136  29.7113285  66.0397873
  43.0561638  29.1598091  66.8218231  43.3717613  29.1257267  65.3418808
  68.9303589   0.6252950  58.9231377  69.5995102   0.9947361  58.3469658
  68.5328369   1.3858873  59.3470573  71.1179657  13.1627913   5.4687600
  70.7117538  12.4633570   4.9568882  70.5770874  13.2287636   6.2557349
  66.7648849  61.8843689  45.2144127  66.3636093  62.1146469  44.3764496
  67.6554871  62.2303658  45.1566010  50.8802681  33.8712387   6.1177530
  51.1304054  33.8650932   5.1938343  50.0491562  33.3971176   6.1440363
  68.5976791  32.9054337  68.1006470  68.3808975  33.7665176  67.7431946
  68.9872665  33.0918694  68.9548645  75.2061157  25.6224613  80.5708084
  75.7389221  25.0673256  81.1401749  75.8339996  26.2169380  80.1602020
  83.6708908  25.0332851  88.4857864  84.5262833  24.6037197  88.4817505
  83.8340759  25.8881931  88.8842010  38.7684860  22.6371803  48.0260048
  38.5067520  23.1376324  47.2531700  38.4061775  23.1283245  48.7633972
  25.2761059  46.6438370  44.2901611  24.4661617  46.4651489  43.8123589
  25.7686749  47.2300758  43.7157631  52.4134712  57.3024178  24.8731995
  52.1950340  57.8476944  25.6289711  53.0431557  56.6656685  25.2112503
  43.2308922  60.0976372  42.6427231  44.0879364  60.2588768  43.0373268
  42.6554413  60.7476158  43.0459785   1.2261866  63.4245453  11.7698622
   0.3147649  63.2851906  11.5127172   1.6341937  62.5631142  11.6821146
  74.0606537  70.1128159  51.0725555  73.6382217  70.0300522  50.2176094
  74.5752029  69.3108902  51.1641121  15.8712330  56.7047920   7.2558441
  16.1332703  55.8391533   7.5692759  16.6957092  57.1766624   7.1383290
  21.6760807  36.4556122  54.8628616  22.2659512  36.9672127  55.4165306
  21.9949532  35.5563889  54.9399681   8.9871435  37.9902496  85.1417160
   9.3932581  37.4492455  84.4645004   8.1589556  37.5508041  85.3346558
  52.6628609  33.1746063   7.9673977  52.1354141  33.2275620   7.1703849
  52.1844864  32.5667610   8.5312366  65.9547958  41.6950378  14.5587349
  65.4895630  42.5183411  14.4105339  65.3374252  41.0179024  14.2820282
  85.2336349  33.4667397   2.7864146  86.0978394  33.2875023   2.4159451
  85.0774078  32.7417488   3.3915744  75.8736420  65.8100586  24.4051647
  75.8264923  64.9737473  23.9419136  75.0568390  65.8549118  24.9022121
  39.3440018  57.9007874  86.3303070  38.8554802  58.4722519  86.9227676
  38.8525620  57.9305267  85.5094299  83.9329376  44.7156715  87.9219589
  84.7996292  44.3503914  88.0998459  83.9975433  45.6303444  88.1966171
   9.8738451  42.1169891  14.8263884   9.9370222  41.4182396  15.4775333
   9.3032160  41.7595253  14.1460695  27.8080654  60.5712814  81.2202454
  27.9021778  61.4375610  81.6163940  27.9184761  60.7238083  80.2817459
  17.0589123   2.0683239  59.6278915  16.8201656   1.1442204  59.5553322
  16.9651566   2.4104416  58.7388458  59.6767006  31.7911739  71.7224121
  59.6046715  31.6479187  72.6660843  59.8243217  30.9183540  71.3582382
  54.6490860  48.8137131   5.9582767  54.6185532  49.7680588   5.8910074
  54.5214500  48.6350708   6.8899570  50.8296852   0.5999281  36.6688042
  50.4024734   1.3564692  36.2670975  51.7422295   0.6623949  36.3866882
  54.4871788  34.1736946  44.4568024  53.6875801  34.6879845  44.5680809
  54.6903648  33.8536453  45.3357315  76.3847351  13.7084599  16.5677814
  76.8773804  14.5170155  16.7083645  76.3808823  13.5924635  15.6176434
  59.2161369  53.6042290  34.6290092  58.8564110  54.4800873  34.7693520
  58.4800720  53.0141830  34.7911301  83.9848404  40.6024284   3.4158955
  83.6215134  41.4342308   3.1120343  83.9412994  40.6565399   4.3705726
  29.9634876  18.4175663  85.1740341  29.0263233  18.6002007  85.1062164
  30.0631256  17.5381584  84.8094177  42.5818443  65.7806854  37.9937248
  42.1682091  65.1587372  38.5923195  43.3449364  65.3139267  37.6530571
  76.9330902  51.2673340  69.9859467  76.7577438  51.7495651  69.1779022
  77.0286179  50.3570747  69.7057114  30.1253910  54.0990410  13.9157772
  30.7452621  54.8061218  13.7367992  30.3820820  53.7675896  14.7762899
  64.3569794  63.3207092  81.3387985  64.7083969  64.2061691  81.2455215
  64.8995667  62.7854500  80.7597198  38.7951393  31.8189259  57.5360069
  39.1174316  31.3752060  56.7514877  39.5408974  32.3345222  57.8429871
   7.2069516  67.5865326  54.9617844   6.9144154  66.6903305  54.7960052
   6.8100643  67.8164902  55.8019218  15.3189144  60.7017288  13.3984280
  15.3155365  61.6354752  13.6089916  16.2456818  60.4798546  13.3083944
   3.1772203  28.4967041  39.0290680   3.3048725  29.3637981  38.6442528
   3.7720540  27.9278545  38.5403786  33.4999542  41.2618752  38.5057297
  33.1684036  41.8691673  37.8442879  33.7241707  41.8187828  39.2512627
  12.6007929  57.5287285  13.2139263  12.9860163  58.1053467  13.8737345
  12.3658428  58.1129837  12.4930420  81.6842499  24.5641823  37.1074791
  82.2372360  24.4692192  36.3319664  81.2541351  23.7141361  37.2005005
  57.6040573  51.5415535   1.9848124  57.0484619  50.8324928   1.6611192
  56.9884338  52.2064552   2.2932706  68.7806015  52.5729446  43.8593063
  68.7103882  53.2173042  44.5636520  69.1954041  51.8140259  44.2694473
  78.7430954  71.0097504   0.6662571  79.6407547  70.8296738   0.3869371
  78.3704910  71.5298386  -0.0457184  86.2537155  53.7787170  43.9651413
  85.8151474  53.4334755  44.7427635  87.1402512  53.4207420  44.0113907
  58.1634636  25.3065453  82.8044357  58.2007027  24.3502464  82.8227463
  57.2504616  25.5067806  82.5981216  49.7595863  36.9302063  57.5913734
  50.4747353  37.5641708  57.6450348  50.0941086  36.2396507  57.0191345
  18.5019112  58.4839058  88.7834930  19.2548466  58.8450813  88.3156586
  17.7764072  59.0647240  88.5543137  37.3534584   9.9888544  66.9748154
  36.9025993   9.2409868  66.5828323  36.6937599  10.4005661  67.5329590
  75.7119827  57.4499016   2.0093219  75.4590988  58.2387848   1.5297986
  76.6654205  57.5043907   2.0742571  12.2491837  44.2585678  66.6171265
  12.2744398  43.3335800  66.8620529  12.3924026  44.7279396  67.4389648
  74.1084900  21.9493885  15.2981749  74.5906677  22.6118031  15.7930880
  73.8534317  21.2996082  15.9531298  62.8544579  31.5278435  38.9686546
  63.3790512  32.0576706  39.5689163  62.0116882  31.4280033  39.4113770
  59.6477470  22.4987812  35.1475639  58.7348785  22.6041241  35.4155350
  60.1181793  22.3250599  35.9628830  46.5553360  44.7896690  17.4828720
  45.9393349  44.1427383  17.1389904  46.0418587  45.5941811  17.5558720
  41.3431816   9.7579775  62.6824913  40.7686234   9.9001303  63.4347610
  40.7529831   9.4929552  61.9770393  15.2797327  13.4407263   1.9381518
  16.0389423  13.8929405   1.5702711  14.5254908  13.9104786   1.5822254
  27.9555721  42.7230911  23.5944996  27.0706635  43.0721397  23.4880486
  28.2391548  42.5137978  22.7045498  54.0925713  30.2076149  58.0026474
  53.9585876  29.2603130  58.0326805  53.5263519  30.5516148  58.6935081
   6.5667028  47.3806267  11.9718723   7.4673095  47.1292267  11.7670870
   6.2499924  46.6868248  12.5502863  33.0328712  44.0818253  82.3804474
  33.5266151  44.8412933  82.6897278  33.2115250  43.4000511  83.0281372
  52.7771568  43.0538445  28.5751572  53.6145248  43.5174789  28.5846367
  52.8710022  42.3761826  29.2446346  71.8363495  35.5744896   1.8687040
  71.3810425  35.9807281   2.6061983  72.7646713  35.7212563   2.0501113
  79.1503143  10.5189285  53.1967125  79.4997711   9.6486549  53.3883705
  79.8334351  11.1214571  53.4908791  66.3392868  29.2822342  83.5570068
  67.2507019  29.4573879  83.3227615  65.9654846  30.1467342  83.7277298
  45.8318176  45.4029999  41.8640823  45.6706619  46.2590103  41.4672089
  44.9968758  45.1648102  42.2670326  57.0562630  22.2903385  36.9535522
  56.9875641  21.5950565  37.6078415  56.3212357  22.8728485  37.1449814
  76.0764771   4.3273616  78.7132950  75.9586411   4.2736516  77.7648926
  76.3485565   5.2315993  78.8700104   0.7947569  56.6565018  18.7062588
   1.4891975  56.0070076  18.5960808   1.2450408  57.4355545  19.0326843
  20.5353031  33.2118835  48.4048615  21.2491894  33.2074814  47.7672272
  20.9739342  33.2005386  49.2555695  30.3138161  57.7507439  58.4221153
  29.7903175  58.5026817  58.6991959  30.6190166  57.3571281  59.2395210
  21.0135117  27.7186203  72.7566452  20.2828102  28.1344872  72.2990799
  21.5052986  28.4475517  73.1348419  68.1524506  31.0336494  33.6885681
  67.5543671  31.3517475  34.3648376  67.5800934  30.7630939  32.9706306
  34.8562851  11.1694832  68.4009476  34.7228699  10.3329449  67.9552612
  34.3734322  11.8032093  67.8704071  38.9480896  35.8397903  16.8110218
  38.5607452  36.6274948  17.1927471  39.8435555  35.8253403  17.1488991
  63.3250809  37.8172531  57.7268906  62.3954582  37.5891876  57.7319946
  63.6472893  37.5282326  58.5806351  65.7649536  50.8627663  44.8628235
  65.6771393  51.7482338  45.2156143  65.0854263  50.8040352  44.1912384
  69.2414093  60.0093994  33.6122856  69.0803757  60.1996841  34.5364571
  68.7474899  59.2070694  33.4433479  11.8828125  26.2075062  77.6855469
  11.5444183  26.8451176  77.0569153  12.7176056  25.9236832  77.3129883
  63.7896919  28.8743687  22.6091499  62.9066048  29.1569099  22.3713207
  63.6933403  28.4982815  23.4840813  21.6565075  52.8950996  55.0300980
  21.7543030  53.7469749  55.4555130  22.5440845  52.5377655  55.0026970
  16.6955166   4.9424090  83.3532333  17.3610878   5.2575679  83.9647293
  16.8523750   5.4403620  82.5509491  44.8691292  12.6137600  13.3534870
  45.6668854  12.1008348  13.4828138  44.8350906  13.1986446  14.1104431
  60.8597336  23.3270416   2.2905421  60.0532722  23.6182632   2.7160332
  60.5802612  23.0321903   1.4238305  63.4945869  41.9478073  79.1451569
  62.9878044  41.1395683  79.0667114  63.1103745  42.3994408  79.8965759
  40.7273636  18.1385403  78.0636215  40.9748192  17.6686096  77.2672729
  40.5843544  19.0399590  77.7751312  54.1813393  10.0601997  34.0780869
  53.7410736   9.7892265  33.2724991  55.1138306   9.9594126  33.8869553
  83.7986679  15.4030867  22.6224594  84.3932877  15.6172705  23.3413353
  83.8737259  14.4539013  22.5242577  72.5074997   3.6957281  67.3296432
  71.7854767   3.1674654  66.9892654  73.2903290   3.1744578  67.1516418
  80.8701630  67.4170914  25.8594875  80.9814682  68.3362503  26.1023712
  79.9250870  67.3107605  25.7510624  22.8515911  48.5808220  17.1013165
  23.0353088  48.4526749  16.1706944  22.0359383  49.0814934  17.1177025
  83.4274063  29.3898468  13.3829288  83.6422653  28.4822121  13.5980320
  83.9341202  29.9101524  14.0064325  56.4228897  23.4606800  84.5976028
  56.3326454  23.9249649  85.4297791  57.1574783  22.8626690  84.7354050
  73.9378052  52.0368423  30.5562916  74.4993973  51.2633095  30.6062317
  74.4470367  52.7300415  30.9762802  74.5421066  63.3496780  86.4704895
  75.4331589  63.0092354  86.5502777  73.9848862  62.5720215  86.5018997
  45.4093018  70.5421066   2.6651103  45.6027794  70.7661209   3.5753937
  46.2521553  70.2720184   2.3005760  16.4302540  35.8540726  60.9617691
  17.1617222  35.3120308  60.6661797  15.6577654  35.4502792  60.5662422
  17.9976349  53.4052048  28.7716141  17.5129528  54.0391617  28.2430153
  17.4873791  53.3254433  29.5775356  15.5515213  66.5587921  67.0787964
  15.2728653  67.3763046  67.4914169  16.3717422  66.7804413  66.6379547
   1.8158786  51.2967758  65.8704987   2.5492828  50.7190971  65.6592255
   1.3022614  51.3366203  65.0637512  85.9021454  36.5997200  68.6164169
  85.3391342  36.6009293  67.8423004  85.6195526  35.8342857  69.1169052
  35.9546242   2.7801187  19.0401287  35.6968117   2.7839589  18.1183090
  36.2486343   1.8838463  19.2028713  49.4109039  69.9291840  16.0033569
  49.0885849  70.4278183  15.2525520  48.6253662  69.7266617  16.5114384
  69.1667480   5.7874222  26.4018383  68.4031982   6.3646402  26.4085579
  69.8221893   6.2511969  26.9229355  66.2909088  18.6591969  34.0085373
  66.4829636  19.5304775  34.3552628  67.1498337  18.2840328  33.8143005
  35.6167412  46.9184227  62.5690384  35.1687965  46.1986732  63.0134888
  35.7459869  46.6039734  61.6742477  71.2961655  47.9207191  44.4061737
  70.8561096  47.0743027  44.4846611  71.6874161  47.9071693  43.5326881
   1.3937291  41.8715782  39.9379578   0.4953422  42.0030022  39.6348724
   1.9383560  42.1921158  39.2190208  28.8797245  30.3082676  14.4443064
  29.3826923  29.6361198  13.9844456  28.8958378  31.0635605  13.8565092
  74.4664612  54.8687859   5.7211838  74.2107010  55.4627724   6.4268746
  73.7471085  54.9207573   5.0918517  65.6829758  56.3085289  54.2625656
  64.9681396  55.6906052  54.1095543  65.3363113  57.1523552  53.9727173
  68.9448624  67.0219574  34.7594223  69.3307190  66.8992691  35.6267700
  69.4231949  67.7627716  34.3870926  69.5986404   0.5743029  18.5081158
  70.4646530   0.3257796  18.1848679  69.7685242   0.9880546  19.3543892
  78.0278015   6.3527985  61.5993004  78.0265274   5.4943581  61.1758499
  78.2053604   6.9697990  60.8893585   5.8337221  20.9525394  85.0830078
   5.6423922  20.5493126  84.2362366   5.8450737  20.2205906  85.6997375
  55.1375809   3.2598867  21.0148773  55.1009064   3.8542280  21.7643070
  56.0092773   3.3960707  20.6436195  46.9259605  65.5870743  45.1669121
  47.5012627  65.3124542  44.4528732  46.7055435  64.7747879  45.6228027
  76.4622803  57.3021736  49.0562401  76.5765839  56.3527069  49.0153046
  76.9192581  57.6320076  48.2825432  65.6372681  15.1045504  38.2423058
  66.1633453  14.3476639  37.9842491  64.8196869  15.0055122  37.7544632
  86.1471863  53.6880302  13.6326418  86.5860367  54.1904564  14.3190908
  86.8590088  53.2601624  13.1567554  59.2475624  33.7696304  87.5164795
  60.1737823  33.7035065  87.2841492  59.1934280  34.5524559  88.0646439
  63.5367203  26.2466640  37.8183899  63.2941971  27.1341915  38.0824203
  62.7059135  25.7728672  37.7795982  46.3301201  35.1709213  74.0613022
  45.6465683  34.8268242  74.6362686  46.1857414  34.7273483  73.2254562
  57.3781891  13.9154873  49.2487526  56.4685364  13.8226681  48.9656448
  57.8760376  13.3736238  48.6365738   5.0824404  47.2457428  76.5092850
   5.8122344  47.2531891  77.1286240   4.8803034  48.1703491  76.3661880
  69.4998093  45.3426971  49.5304680  69.4503021  44.9395027  48.6637421
  68.7874298  44.9368477  50.0244713  47.0437088  64.9780121  11.7027626
  46.3449402  65.6279068  11.6280184  47.7348671  65.4246140  12.1917162
  34.8998413  59.3752556  56.9104309  34.3795967  58.6346245  56.5989151
  35.6516876  59.4055328  56.3187866  55.1451988  41.4512711  40.7782822
  55.1319504  40.8875694  40.0047874  56.0672188  41.4868927  41.0329247
  64.2536697  23.7549953  73.6043854  64.7336884  22.9270020  73.5887756
  63.9966011  23.9000092  72.6938248  75.9806976  31.6332703  22.0057793
  76.8637238  31.7219467  22.3644447  75.7686386  32.5053673  21.6730537
  38.5085182  34.4230843  28.2430878  38.3967476  35.2346725  28.7381248
  38.7303238  34.7112312  27.3576469  69.6568604  20.5676765  50.0516663
  68.7805634  20.8763599  49.8213463  69.5049973  19.8673420  50.6862526
  86.3643875  48.5613823  70.9679565  86.8318024  47.8962440  70.4626389
  86.2125473  49.2723808  70.3453369   9.6083755   4.9264398   0.2033727
  10.1188641   5.5419993   0.7294138  10.1888742   4.6911178  -0.5204200
  22.8273659  52.0011787  44.3347206  22.4230785  52.2979279  45.1500244
  23.2680874  51.1845016  44.5693169  83.1215134  21.7770195  41.2935600
  82.4072800  22.1469593  41.8124390  83.9058914  22.2224293  41.6138611
  20.5608406  29.8603611   8.3661432  20.2297592  29.3389549   7.6348758
  20.9953632  29.2254505   8.9356270  67.3566666  71.1433334  26.0495300
  66.8612900  71.9603043  25.9913311  66.7202988  70.4615097  25.8341503
  74.5639191  49.9766769   5.1670213  75.2518768  49.4727745   4.7322497
  74.3871994  50.7045784   4.5710688  49.7575264  50.3169289  68.1513519
  50.1516609  50.6070137  68.9739990  49.6218529  49.3767509  68.2691956
  69.6781693  39.1280365   7.3370194  69.1119232  39.8829651   7.4972639
  69.1497269  38.3730469   7.5958014  68.6830750  41.6321030  45.4100685
  68.1875153  42.2730026  45.9198685  69.1747894  41.1347504  46.0635910
  80.8448486  17.1172829   6.3808060  81.6225586  16.6482601   6.6831570
  80.1596832  16.4496136   6.3492112   8.8247614  32.1311760  79.1546478
   8.6862240  32.8498421  79.7715378   8.7341757  31.3394814  79.6849747
  61.2195244  45.8436356  52.5068321  61.4661140  46.2048950  51.6554146
  61.2445831  44.8950882  52.3808899  65.5352020  36.5272560  15.0809278
  64.8640060  36.1941490  15.6765509  65.8836288  35.7458687  14.6516628
  34.4625587  64.6983261  74.5993652  33.7062187  64.8994827  75.1504745
  34.4038849  65.3216705  73.8753204  73.1174774  50.1526833   7.3523946
  73.5026321  49.9009438   6.5130424  73.5102386  49.5521317   7.9858828
  19.8666573  41.9203949  15.8780346  19.5157204  42.8090591  15.9359446
  20.6127720  41.9179840  16.4776516  79.0461044  31.3168087  80.3775024
  78.8376694  30.5381546  80.8937302  78.5049820  31.2354164  79.5921402
  55.5701714   5.4332876   7.4725738  55.5020027   6.3864956   7.5271502
  56.0761871   5.2745862   6.6757083  81.4754562  65.7171097  52.7483597
  81.9467773  66.4971695  52.4557800  81.6253281  65.6870651  53.6932755
  13.2063122  54.9968224  11.1722383  13.8392324  55.7104073  11.0919752
  13.6871614  54.2176514  10.8931179  38.2448044  39.2706146  27.1874809
  38.2423668  38.6435738  26.4642639  37.3470078  39.2571716  27.5191612
  70.9629822  62.2012901  25.7646179  71.8220825  62.6214600  25.7241859
  71.1364441  61.3368454  26.1372776  39.7975769  70.9460373  37.2398186
  39.7594681  70.1043396  36.7855873  39.5690804  70.7396545  38.1461449
  46.5593796  48.7285881  87.1282272  45.6932068  48.5985413  87.5143204
  46.6529999  49.6790695  87.0646057  41.2981033  51.2680206  39.8633423
  41.3428688  50.5922852  39.1868782  41.6975861  52.0383072  39.4592323
  85.3661346  45.4455185  46.6583595  85.0017014  45.2374878  45.7980423
  84.7637177  46.0937119  47.0232887  75.7937469  21.9250927  87.7485046
  74.9876938  21.4158421  87.6638336  76.4948196  21.2897205  87.6034851
  85.5388107  57.0681000  20.3845043  85.7753143  57.6632652  21.0958939
  86.3168945  57.0391884  19.8277416   1.4883001  17.0003262  59.6436119
   1.2562041  17.9036694  59.8588600   1.6251616  17.0074348  58.6962700
  44.5008659  38.5857315  26.6791630  43.9452553  38.0875854  27.2786465
  43.9024391  38.8950310  25.9991226  68.6587296  34.8285484  82.6483688
  68.4851608  34.1693306  81.9764099  68.9939651  35.5825539  82.1632614
  10.1470366  46.9951401  66.5929031  10.7508869  46.4058266  67.0449066
   9.3434181  46.4846535  66.4937210  43.5110283  68.1502838  54.0580711
  44.0238419  68.1824951  53.2504730  44.1629410  68.0515823  54.7519722
  28.0065460  42.2774086  53.7431564  27.1825428  42.3035812  53.2567787
  28.6591759  42.6095695  53.1267319  56.7694206   7.7118244  42.7680092
  56.7838364   6.8219018  43.1202316  56.3583832   8.2351179  43.4560776
  82.7032928  30.8253212  52.7182808  83.1751099  31.1352425  51.9452553
  82.1877518  31.5799885  53.0027618   2.7687104  51.0186310  39.2542877
   2.3997347  51.4126968  40.0447311   2.6939814  51.7023087  38.5885277
  60.9122200   8.7535114  11.0570374  61.0237198   8.9880304  11.9783411
  60.6774864   7.8256736  11.0727844  71.5146561  34.2069740   4.7870455
  71.5296783  34.1385117   3.8324149  71.0826797  35.0433769   4.9604220
  55.4175835  47.9037628  13.9509411  55.4906769  47.1877289  13.3199244
  54.8564148  48.5475731  13.5187035  54.7789116  63.5744209  27.3685093
  55.6496162  63.7630501  27.7185478  54.4266090  64.4313431  27.1281090
  25.7731400  46.3105736   8.0475702  25.1199265  46.5420341   7.3872890
  25.2631912  45.9495468   8.7727213  30.9050007  70.9278030  19.6131878
  30.8569031  70.0671082  20.0292568  30.4152107  70.8269882  18.7969952
   1.1207563  26.1359711  57.8340416   1.1897451  26.3021812  58.7741737
   0.8266657  26.9685745  57.4645615  81.0246964  25.3865147  22.5576916
  80.9994202  25.9799156  23.3083363  81.7591019  24.8004074  22.7403297
  44.2836113  -0.0064092  73.4841461  44.1590652   0.9303962  73.3321075
  43.6402092  -0.2273893  74.1575241  79.6627274  13.0084305  68.3048019
  79.5895538  12.2856045  68.9280167  80.4127045  12.7772036  67.7568054
  56.1182365   2.2903070  38.0217552  56.1866989   2.5965805  37.1174660
  56.9128647   1.7751203  38.1609573  66.6960983  65.9229965   3.9428840
  66.1780396  66.2711182   3.2171669  67.5351257  65.6875153   3.5468915
  32.8995705  35.7790298  58.2068977  32.9670029  36.4502754  57.5278435
  32.0845375  35.3181648  58.0080109  50.0205345  26.6928444  48.0791969
  49.3363342  26.8029881  47.4189148  50.4074135  27.5635757  48.1707687
  62.1952744  26.7407627  43.2958031  61.2468300  26.8644428  43.2584763
  62.4983444  26.9441566  42.4109230  78.0650864  33.7879715  58.0198784
  77.5175781  33.1352806  57.5834579  77.5128403  34.5681114  58.0712662
  26.4027424   3.8891666   3.2860351  26.5587158   3.2227957   2.6168160
  25.9061985   3.4340038   3.9661114   9.9918938  38.4213791  76.7103882
  10.7698956  38.0694122  77.1428986   9.7691736  37.7669029  76.0483551
  29.7310829  41.2053223  75.0122070  30.6560631  41.3383446  75.2194519
  29.3542385  40.8489151  75.8166962  59.0216026   0.4304029  23.0880165
  59.2098007   1.3410577  22.8610325  58.4747429   0.4869706  23.8715839
  73.0874939  22.8493958  34.3348656  73.6852570  23.5537415  34.5854950
  72.8219299  22.4538631  35.1650810  82.6439514  50.1659775  32.7510872
  83.5444717  49.8511124  32.8295403  82.6470566  51.0137329  33.1955338
  55.6701965  34.1816483  77.1166000  56.3437805  34.0151062  76.4572220
  55.1237640  33.3958359  77.1045609  64.4291534  51.9126053  30.5699596
  63.6368523  51.3837967  30.4758816  65.0515289  51.5228958  29.9559479
  28.2563801   0.6331547  86.1818008  28.4499741   1.5608929  86.3161697
  27.9773083   0.5766333  85.2679291  63.0294762   6.9808178   8.2481613
  63.6633759   6.2771678   8.3870039  63.1478729   7.5615988   8.9997644
  22.7720852  21.8660736   8.4324818  22.2536221  21.0716991   8.3044262
  23.5579853  21.7269306   7.9040580  42.8707008  10.1381502  73.6156235
  42.0168915   9.7056150  73.6030426  43.3894920   9.6629953  72.9665298
  60.0839767  45.4678192  18.1931705  60.0086327  46.4170990  18.2902527
  60.3692398  45.3414955  17.2882404  10.7825317  -0.0282324  74.8032684
  10.7400150   0.8598496  74.4486771  11.1548710   0.0808255  75.6783066
  25.7858906  36.2757263  10.5451078  25.7860184  35.4838295  10.0073938
  26.4180489  36.8546143  10.1190853  70.6241608  48.6398773  52.5402374
  70.2110291  49.4614906  52.8057747  70.7694321  48.1687241  53.3606911
  22.5268631  31.4936752   6.6222863  22.0054836  31.8187046   5.8882895
  21.8804092  31.2313328   7.2776546  11.6516037  18.8884563  66.4943008
  10.7233438  18.7269058  66.6630173  11.6905870  19.1125431  65.5645142
  56.7531242  38.9431763   2.0720639  56.6136932  38.0492477   2.3846152
  57.2341881  39.3720551   2.7797885  55.9560204  32.8564148  10.6968241
  55.1286278  32.5251694  11.0460100  56.6290474  32.3875771  11.1902418
  68.7337418  19.6688366  32.8304214  68.7346573  20.0048504  33.7267075
  68.8412857  20.4466076  32.2829361  13.2313557  40.3580475  80.1860428
  13.8996210  41.0150452  80.3809967  13.6905270  39.5211334  80.2565308
   1.3397990  57.2197227  33.6439514   0.7286494  57.8530502  33.2676201
   2.1627960  57.7013664  33.7271881  48.4759674  46.9714584  10.6110630
  47.9106750  46.4173050  11.1491985  48.7963142  46.3893051   9.9220705
   1.7313308  33.0496330  72.4000702   2.3455272  33.7402306  72.6492081
   2.0139389  32.2852097  72.9020920  79.4613342  17.7114658  58.5355110
  78.9892197  16.9472694  58.8661842  79.5416718  17.5547218  57.5946541
  64.2355652  30.8830299  46.2539711  63.7712097  31.6928844  46.4654884
  64.8385010  30.7544060  46.9861984  65.8027191  65.4058380  38.0508461
  64.9489594  65.8219070  38.1700897  66.0163116  65.5569839  37.1301079
  76.3031158  39.2043877  66.4427948  75.8412857  40.0286865  66.5960007
  77.0900192  39.2665024  66.9842377  71.1706161  40.0357933  50.1445160
  70.8461380  39.1427994  50.0282936  72.1230011  39.9527092  50.0965462
  52.8333282  13.2390518  52.6290092  53.6406136  12.7331762  52.7217903
  53.1286316  14.1419287  52.5113716  76.8190002  44.5481682  49.1989365
  76.5139389  43.6448326  49.1143913  77.7290039  44.4678993  49.4847450
  73.2204590   5.3534045  50.8214531  72.8368683   4.4765840  50.8048744
  74.1650391   5.2011003  50.8498077  74.1778946   7.5557160  57.9349594
  74.9040298   7.6649046  57.3209190  73.7182007   6.7750802  57.6259003
  58.5637474  37.8793678  15.5693388  58.6638069  36.9877167  15.2359095
  59.3044090  38.3585434  15.1977978   8.7504110  11.6413412  14.2296734
   7.9319878  11.4699869  13.7637844   8.5236254  11.5470800  15.1548300
  80.5005341  15.4193649  25.8655758  80.8021469  15.4940567  26.7709389
  80.4366608  16.3238907  25.5590057  78.6432037   9.5920687  15.1804447
  78.0953064   9.4186411  14.4149647  79.4003677  10.0623331  14.8314562
   9.0185289  45.8832283  75.1090622   8.2137547  46.1717529  74.6785736
   8.7534428  45.1241150  75.6284027  27.5218391  58.1191483  -0.1141741
  28.2855549  58.4033241   0.3880354  26.8577404  57.9271088   0.5478886
  21.1413918  61.8052025  35.3681679  22.0963440  61.7407494  35.3801956
  20.8551865  61.0312500  34.8830795  58.7478905  29.4440289  77.2728577
  58.2353096  30.2043343  77.5474930  59.1723099  29.1389618  78.0747528
  40.6753693  50.7578430  27.8799915  41.0840454  51.3784332  28.4833832
  40.1268616  51.3004494  27.3134670  56.4685707  22.3920555  25.7253742
  56.5796318  21.6052475  26.2590694  55.5306435  22.4231205  25.5367832
  66.6932602  27.3846951  24.8530693  66.3296280  26.9647083  25.6325684
  66.6814117  28.3197899  25.0572491   1.4276031  62.7413025  75.5660782
   0.8641808  62.1585732  76.0752029   1.5824099  63.4891815  76.1430893
  82.0858231  51.6329842  19.8609123  81.1633072  51.4289169  20.0144024
  82.1416702  52.5827904  19.9657001  31.5877914  34.0378304  49.4626236
  30.7585449  33.9424667  49.9311180  32.2568016  33.8319931  50.1155319
  85.3944397  10.8378439   1.7537451  86.1685104  10.4184246   1.3780799
  85.7180557  11.6676016   2.1044619  83.9887466  35.3941803  24.9905548
  83.9653854  35.4807091  24.0375614  84.5565186  36.1075821  25.2819805
   1.9118968   9.9017591  64.8329391   1.9127729  10.4654455  65.6065598
   1.3176973  10.3359737  64.2208786   7.8144941  67.0426865  49.5576057
   7.0491986  67.2533875  50.0925446   8.4187613  66.6128082  50.1628265
  10.5555220  37.4919281  87.3814697   9.9614487  37.4962349  86.6309433
   9.9937506  37.2927895  88.1304626  17.6662807  47.2396889  30.2230225
  17.4730072  48.1540184  30.0159397  18.5237656  47.0808334  29.8284111
  28.4795418  68.4683685  72.1976776  28.2800846  69.2585144  71.6955719
  27.8051472  67.8415833  71.9358215  40.8804207   3.5750332  84.3107300
  41.0289345   4.2387495  84.9842758  39.9444199   3.6335046  84.1191177
   1.6372551   9.8284798  14.0306091   0.8091354  10.2242584  14.3022871
   1.8134953   9.1620836  14.6947536   1.6823472  14.9749756  85.6367340
   0.7895142  15.2587824  85.4404297   2.2328329  15.4924202  85.0489807
   4.8852305  35.9965858  75.2560959   5.0174975  35.4239883  76.0116577
   5.0399623  36.8786697  75.5940628  85.0835342  43.7776985  60.6564140
  85.4695587  43.2389984  59.9657516  84.4523163  43.2003288  61.0858879
   2.8483698  38.8172607  70.4981155   2.0450900  38.2986336  70.5428238
   3.2317357  38.5924530  69.6503372  64.8587646  56.1045647  25.0775318
  65.6184692  56.6750336  24.9606819  65.2272720  55.2227097  25.1300945
  31.1980057  68.2579727  72.1225357  31.3236637  67.4266052  71.6650772
  30.2566433  68.4221497  72.0667572  68.1519928  64.3550034  58.4348221
  68.3654022  63.4634018  58.7100372  67.3473358  64.2621002  57.9247894
  65.2941132  50.3776894  64.1359100  65.1272202  49.6793556  63.5028915
  66.2476425  50.4586716  64.1573410   4.3127608  62.4256439  51.1458702
   3.4116354  62.5906296  51.4233322   4.4189363  62.9503899  50.3523941
  72.5166245  33.1212921  86.9102859  71.8074341  33.4040298  86.3329239
  72.1754532  33.2591324  87.7939377  84.0497208  58.1219444  77.4711151
  84.4771500  58.2451096  76.6235504  83.1138535  58.1258011  77.2702026
   1.9632256  52.6627846  41.4355698   1.7650645  53.5961838  41.3598557
   2.7057946  52.6237068  42.0383072  48.7404861  62.1276741  80.6583252
  48.0817947  62.5675926  81.1957550  49.5424118  62.1709671  81.1791687
  40.5686569  33.2478294  78.4786453  39.9927216  33.3240623  79.2393875
  41.3612061  32.8327103  78.8189011  72.7920914  14.9292212  46.2290192
  72.0585938  15.5441875  46.2227859  72.3928452  14.0822392  46.4276543
  46.8459320  40.5592041  73.1191025  47.6029892  40.2205772  73.5970459
  46.5748520  39.8346176  72.5554352  55.2018356  51.3221703  31.0203056
  55.7199860  51.1355324  30.2374134  55.8046112  51.1705017  31.7482414
  81.5229797  34.5723190  15.7655087  81.2406006  33.7019577  15.4845028
  80.7686310  35.1359406  15.5936928  59.5393677  61.4922791  25.0612774
  58.7795982  61.8287048  24.5860958  60.2893066  61.9187546  24.6466141
   5.4866691  52.9870605  29.6000137   5.4262748  53.5914841  30.3397789
   4.6878395  52.4624290  29.6535378  34.1270447  56.8794899  55.5940247
  34.5277634  56.0194397  55.4676285  33.2843285  56.6926155  56.0077133
  81.2201996  40.9400253  80.3556213  82.1717224  40.9032478  80.4529953
  80.9340363  40.0319710  80.4545364  54.9661331  16.7165546  20.3653870
  55.8988991  16.9006729  20.4762192  54.9301224  15.7853060  20.1469612
  85.4739990  48.2367744  18.0104332  86.0643997  47.4995193  18.1657085
  85.3330460  48.6174393  18.8773003  72.0383682  30.3954163  34.6609917
  71.3486862  29.7317982  34.6472664  72.0470657  30.7131748  35.5638657
  66.9206314  45.5422783  52.5201988  67.5967026  45.0455742  52.0592766
  66.6850967  46.2451820  51.9146538  27.8288708  55.5290871  26.1388741
  27.2329865  56.2076530  26.4562016  28.6826477  55.7741623  26.4955730
  34.7997322  65.4179840  35.3583565  35.4703865  66.0996475  35.3159981
  35.0343170  64.8074341  34.6594772  54.3195496  56.7873840  38.2053795
  55.1636772  56.5740585  37.8076706  53.7001839  56.1883049  37.7885818
  55.0522423  20.7788887  72.2585602  54.6435661  21.1019650  71.4555435
  54.3167419  20.5282898  72.8175507  20.4941101   6.0965047  83.2100067
  21.1196518   5.3898711  83.0500031  19.7594261   5.9023623  82.6279602
  24.4995327  60.6333885  41.8294182  25.0908108  60.4852753  41.0913887
  23.7071419  60.9951897  41.4326134  60.4191513  49.5993385  43.4299469
  61.1205788  49.3698692  42.8203773  60.0101166  50.3738251  43.0438194
  15.2457600  28.2502880  57.1141586  14.7880802  28.0622063  57.9335403
  15.3138103  29.2047977  57.0914726   5.4271193  19.1497059  65.3014221
   5.6938324  19.6350250  66.0821609   4.8013482  18.5014400  65.6245193
  34.5774422  19.8422432  83.9542999  33.7425652  19.9093094  83.4909363
  34.3355217  19.6145325  84.8519974  51.6801643  59.8197098  48.3636322
  51.9995613  60.2338905  49.1653023  52.3254395  60.0573769  47.6977730
   2.4788692  18.4752274  32.7696953   2.0207012  17.9372902  33.4154015
   2.6221733  19.3114204  33.2129555  32.3861847  63.6925545  34.9126930
  31.7198277  64.0399017  35.5056076  33.0434036  64.3863373  34.8582153
  14.0556011  41.2726135  56.7431221  13.6262693  40.5221214  56.3324242
  13.5057468  41.4790268  57.4989548  34.2033653  46.8375854  70.0568771
  35.1167259  46.6837807  70.2984314  33.7476387  46.9349899  70.8929749
   4.6060266  57.6989861   0.1999315   4.6602139  57.1965141   1.0128393
   5.4530864  58.1398582   0.1339519  17.2640018  65.5337219  17.7542648
  17.9403763  66.2100830  17.7901402  16.5522213  65.9330826  17.2541523
  76.6894913  48.3054314  39.3263817  75.9933777  48.7861710  39.7742081
  76.6056290  48.5624657  38.4081612  60.6183853  66.4038620  70.1957474
  60.1964989  67.2189026  70.4676895  60.7903976  65.9384918  71.0143280
  39.6610603  17.2522564  14.3170681  39.7155800  16.3980846  14.7456131
  40.0514374  17.1127167  13.4543018  39.8729553  53.9295425  14.1499414
  40.4775314  54.5317307  14.5836287  39.3366203  53.5761642  14.8596601
  47.9798508  65.3066940  16.8509865  48.9306870  65.3001862  16.9609604
  47.8459625  65.5654831  15.9392109  71.3153763  68.2227249  66.6373978
  70.8602600  68.4443283  67.4497986  71.3473587  67.2660599  66.6340714
  56.2995415   7.3442631  73.9616470  57.2560043   7.3447104  73.9991455
  56.0301666   7.8734846  74.7123795  43.4380264  29.4929790  28.4610081
  43.4637299  28.5874500  28.1518307  44.3456039  29.7916431  28.4032402
  66.3277359  37.2323875  59.8360977  66.0522079  38.1465225  59.7677040
  66.6589890  37.1483269  60.7302094   8.1039581  55.4739952  41.6762352
   7.4139481  56.1288757  41.7823067   7.9826260  54.8765450  42.4141808
  69.0868073  68.7064972  23.4346256  69.6418457  69.4589844  23.2298527
  68.3485413  69.0778198  23.9176579  20.8037319  61.2107391  30.9536533
  20.4141159  60.3522339  31.1191807  20.6934242  61.3463974  30.0125580
  78.7424698  12.4598217  43.9299660  79.0392303  12.4005327  43.0218658
  79.5364456  12.3357601  44.4500008  69.8835297  38.4967804  11.7989397
  69.7992706  38.7985878  12.7033987  69.9186554  37.5426598  11.8671112
  45.1494293  64.1464615  39.9784660  45.8661041  63.5491791  40.1926270
  45.3923302  64.5176163  39.1302490  73.0367737  37.5002403  71.4625473
  72.6159134  36.8196449  70.9372864  73.1696472  38.2257652  70.8524780
  61.9265671  51.3783913  74.9715881  61.0179176  51.3768311  74.6706085
  62.1758194  52.3025589  74.9760132  15.3608217  70.1940460  14.6382914
  14.5791960  70.5108719  15.0909653  16.0622940  70.2782745  15.2841024
  31.7715321  45.1667213  12.8631573  31.6162643  44.3406906  12.4051161
  31.3340912  45.8255348  12.3238630  30.8843918  45.3988457  17.6621304
  29.9651451  45.4950714  17.9110394  31.2975101  46.2120667  17.9523678
  67.2678604  59.1139221  45.8369446  67.1750259  60.0469666  45.6444817
  67.1032333  58.6792297  45.0001793  61.0606422  38.7564774  14.6349354
  61.9641266  39.0558929  14.7363920  61.1234741  37.9978065  14.0546732
  14.9656658  50.3139000  37.5450821  14.8096333  50.6309280  36.6554871
  14.2390594  49.7149048  37.7167740   3.6919417  24.6389084  51.7366333
   3.2981062  23.7693329  51.6661911   3.6128912  25.0095615  50.8576546
  12.6984358  24.4597874   2.5240004  11.8343000  24.4757004   2.1126020
  12.8765831  25.3745384   2.7424612   1.1423961  36.3413963  74.0329208
   1.1669710  37.2982674  74.0278625   1.4671766  36.0980453  74.8998260
  68.4736786  53.0906639  72.1356125  67.8022995  52.5978432  71.6638031
  68.6354675  53.8592491  71.5885010  24.2561588  63.5743141  32.5625877
  24.1565418  63.4682579  31.6165123  24.8499947  62.8696060  32.8213882
  35.3304367  35.8364983  24.4238605  34.8431473  35.0996895  24.0552235
  36.1109428  35.4385529  24.8094463  63.1952515  47.1255722  43.0442924
  63.2623558  47.7579308  42.3288498  64.0706406  47.1077347  43.4310799
  66.1542816  61.8448524  59.0829544  66.1803284  62.6746101  59.5594559
  65.6427536  61.2622375  59.6443214   1.6348635  35.3485489   0.2257835
   0.8103110  35.6822090   0.5793611   2.3118315  35.8217926   0.7095060
  44.6039276  36.9881783   7.9693389  45.2410393  36.3551178   7.6383543
  43.8529587  36.4565544   8.2332706   3.9063492  16.2987366  22.8066120
   4.6874719  16.6863041  23.2014179   3.5493677  15.7309656  23.4895706
  66.5085754  40.2860413  30.1642857  67.0495300  40.7385254  29.5170937
  66.5584564  39.3632126  29.9150276  66.2943497  43.5802155   6.4406328
  65.9647903  44.4779968   6.4004736  66.5185013  43.4483452   7.3618250
  26.9327183  63.1876068  12.7384233  27.8642673  63.0904884  12.9359522
  26.5097885  62.4795074  13.2241812  78.1299667  29.6317043   2.7011979
  79.0589066  29.5102272   2.5048692  78.0817032  29.6054707   3.6568205
  15.3114100  40.2827835  85.0363083  16.2453709  40.4768143  85.1156845
  14.9330282  40.5847092  85.8620834  42.0920792  51.6701927  87.9998093
  42.8090172  52.1735039  88.3857040  41.6902237  52.2693977  87.3707733
  40.6432762  67.9090500  44.3397217  40.5775566  67.8617554  43.3859558
  39.7358971  67.9611435  44.6400337  43.7059097  34.8408127  77.8283997
  43.7474632  34.0187149  77.3398743  43.1895561  34.6311264  78.6066284
  16.1920300  47.2545738  48.7318573  16.3000393  48.1941185  48.8795738
  16.4935055  47.1170921  47.8338394  78.0564499   7.9226332  25.2715912
  78.2644119   7.0931053  24.8416309  77.3946915   7.6946692  25.9245377
  50.3886490  46.8937263  64.6012802  50.2763519  47.8265457  64.7842255
  50.1149788  46.7938271  63.6894913   0.9845857  68.4940033  87.3700562
   0.9477731  67.5568771  87.1785507   0.2790101  68.6374741  88.0007782
  80.6907349  33.6355820  74.5250397  80.6060944  34.3616791  73.9071045
  81.6338120  33.5470924  74.6629028  34.2417641   5.3254123  80.3707123
  34.7627678   5.8336182  79.7490082  34.6425400   4.4561744  80.3647842
  18.1282291   5.5874615  18.0077095  19.0133476   5.9349194  18.1175632
  17.5561047   6.2816458  18.3348408   1.5169468   7.4368744  53.0148811
   1.7647593   8.2837839  53.3857765   1.4032216   7.6088114  52.0801430
   8.9523449  61.8712196  36.5639267   9.3813810  61.0298157  36.7194901
   8.1947002  61.6567421  36.0196800   6.4905519  41.1880264  17.1779442
   7.4400649  41.1213493  17.0768948   6.2387629  40.3755379  17.6169167
  37.8611794  13.1691294  16.3351078  37.0869064  13.7308521  16.3698483
  37.7936134  12.6195726  17.1159115  41.1299171  38.7853966  53.8084259
  41.7869644  38.3371544  54.3409615  41.0757027  38.2650604  53.0068359
  44.3609009  70.4378510  79.0531082  43.9806595  71.2277145  79.4375076
  43.6171722  69.8469086  78.9352798  74.5652008   2.8569446  89.0369568
  74.4268875   3.2386854  88.1701355  73.6828003   2.7126613  89.3787003
  75.3222046  11.3240967  49.8219757  76.1546783  11.7393646  49.5966454
  74.7905350  11.4083481  49.0304794  19.5381832   8.3642054  15.9663315
  19.8000145   8.6568527  15.0933857  18.6193333   8.1140642  15.8695030
  59.6284904  49.6153946  57.9053040  59.7498970  49.6491890  56.9564362
  59.9616165  50.4559593  58.2194786  10.4447975  44.1917038  46.5286369
  10.3899679  43.6122971  45.7686920   9.7700834  43.8682518  47.1256065
  25.7259254  54.3037529  76.5179062  26.0628242  54.7335777  77.3040237
  25.9378033  53.3784981  76.6413651  80.0682907  55.5212631  34.4388733
  80.3304901  54.8061409  33.8591461  80.3036728  56.3161201  33.9602966
  77.7278290   4.6973081  72.6923294  78.1574173   5.2398343  73.3536530
  78.0858459   3.8206809  72.8322449  69.3840790  11.4203148  29.6342812
  68.8582306  11.4559145  30.4333076  68.9764938  10.7310772  29.1098232
  33.9552765  35.9149055  18.6832275  34.4648438  36.0526009  17.8847179
  33.9181862  34.9636040  18.7826271  29.8118687   6.2370763   9.5491304
  30.0768108   6.3224831   8.6333017  30.3476048   5.5196533   9.8875427
  80.1555481  39.9480438  23.0071011  79.2791367  39.8298683  22.6408100
  80.6544800  39.1991425  22.6808434  40.9014740  15.2610006   3.2877378
  40.6761017  14.5030489   3.8271346  41.6586609  14.9747772   2.7768786
  19.9825077  10.7514305   3.2791157  19.5883369  10.0447025   2.7678463
  20.7469902  10.3503494   3.6925552  40.6754837  54.2929306  10.9772558
  40.5133324  54.0032272  11.8750362  40.0619469  55.0155067  10.8442459
  84.8759232  19.6110687  86.7625580  84.6574783  18.8566818  87.3097458
  85.6232224  20.0171413  87.2017365  82.1361313  36.1290054  57.3189049
  82.3442535  36.9506760  56.8741837  81.9772873  36.3823700  58.2281914
  58.5635033  27.6989861  32.6416931  59.2446938  28.3292694  32.8761101
  58.4528427  27.1628132  33.4268684  76.6464615  30.4707012   9.9402485
  76.7882843  29.8916435   9.1913767  77.5187302  30.7999229  10.1570129
  71.9454575   7.7459736  51.1518211  72.6507416   8.3892174  51.2228851
  72.3939056   6.9007168  51.1259956   0.3883832  63.5682220  21.9859200
   0.2378493  62.6565437  21.7360992  -0.4854471  63.9142723  22.1673088
  34.2291298  48.9073944  16.0865917  34.7138977  48.2893372  15.5395679
  33.3779030  48.9910088  15.6568747  11.1448421  57.5235710  19.2218132
  11.3421230  57.7268562  18.3074894  11.8356886  56.9162369  19.4865894
  74.0806427  23.8331509  45.5493393  74.7571716  23.3742428  46.0472755
  73.3827591  23.9932098  46.1846161  47.8579788   0.5391157  46.3488770
  47.6170540   1.3679903  46.7625847  48.4074020   0.7924426  45.6071281
  48.6173172  59.3182716  37.9047775  48.3089943  60.0814323  38.3933983
  48.3345184  58.5684509  38.4282494  11.1746998  21.7254524  83.5917816
  11.9960108  22.0991840  83.2723999  10.4932890  22.2260761  83.1431274
  51.5952263  60.0159645  82.5786438  52.3454781  59.9210854  83.1654663
  51.8514290  59.5468941  81.7845612  62.1560555  46.7925339  50.0746574
  61.5620613  46.3402405  49.4756317  62.2793694  47.6569328  49.6824341
  71.5575104  22.2637882  64.2769775  70.6445999  22.4776764  64.4695511
  71.5827637  22.1556988  63.3262405  32.3443184  67.5888672  25.4735451
  32.2689667  68.4012451  25.9741497  33.1979713  67.2334290  25.7208748
  57.4565201   3.8912745  63.1786957  56.5723343   3.7839026  63.5292931
  57.3948898   3.5824621  62.2747803  45.2694817  69.8579483   7.5560136
  45.6177292  70.7487335   7.5943155  46.0413132  69.3038254   7.4400277
  29.8830681  38.9545631  87.8548584  29.8250999  39.8950996  87.6867447
  30.6320438  38.6639519  87.3344650  10.8994188  31.1168766  11.3223047
  10.2918034  31.1073074  10.5827484  11.6554871  30.6151257  11.0176125
  74.5705872  14.6101179  58.9039421  74.0902328  15.3832378  58.6076736
  75.0522842  14.9084997  59.6754150  64.0817184  18.2133350  41.1365623
  64.6459808  17.4510460  41.2660027  64.1664352  18.4186993  40.2054977
  50.0158577  56.3088951  64.9299316  49.5506096  55.6205482  65.4052734
  50.2048454  55.9234238  64.0744019  62.6986313  46.7898827  11.7848988
  62.7620621  47.7426376  11.7180643  62.7968674  46.4795685  10.8847399
  84.9863052  52.3438835  17.1754684  85.3497009  52.7489357  16.3880005
  84.9581375  53.0526543  17.8181820  61.1437912  46.3162727  80.8385468
  61.9409065  46.8204079  80.6751862  60.5877495  46.4949608  80.0801773
   1.6240643  32.5675087   0.1546060   2.4940810  32.2848778  -0.1272140
   1.6290230  33.5167389   0.0314503  51.1983795  66.5614319  77.3090973
  51.6785927  65.9507217  77.8682632  51.6376038  67.4018173  77.4397430
  50.6182823  31.2448711  82.2300949  51.3750420  31.0422916  81.6800842
  50.4382629  30.4302063  82.6992950  76.9463196  30.9514446  32.8151093
  76.2926636  30.9621029  33.5142899  76.8096466  30.1139545  32.3722038
  18.7876034   5.1097679   8.8560944  18.4079647   4.2651396   8.6137953
  19.4458885   4.8956690   9.5171957  52.3453522  23.8576546   6.0858831
  51.7105675  24.5566120   5.9285979  51.8308678  23.0518398   6.0389471
  40.4024963  48.3554955  64.5372696  39.7717171  48.0668335  63.8777084
  40.8409805  49.1062851  64.1369247  77.7305527  21.7628880  35.6864471
  78.6312027  21.7585430  36.0105438  77.2203827  22.1425076  36.4018822
  46.8858261  11.8323812   1.4804544  46.3403168  11.1091013   1.7895143
  47.2201958  11.5355206   0.6341082  21.4668388  64.5432663  69.1805725
  22.3332787  64.2288361  68.9224014  20.8673248  63.8528862  68.8973846
  32.0919991  29.8158493  88.2096329  31.2913361  29.4449577  88.5805893
  32.0824280  30.7319622  88.4869003  11.2431183  38.6707954  40.1998634
  11.1415224  39.4482918  40.7488708  11.9974070  38.2127113  40.5705910
  56.1394501  24.9705448  53.7082710  56.4869003  24.4391289  52.9919548
  56.7575264  25.6969471  53.7892265  65.6452408  52.8132133  56.3574371
  65.5533981  53.4385757  55.6386032  65.8676529  51.9866943  55.9289093
  79.6034775  30.2446613  84.0022125  79.5029144  29.3134689  83.8047256
  78.7111588  30.5906925  83.9858475  21.6222782  48.6301498  52.0694008
  21.1102200  48.1029968  51.4561005  22.4292679  48.8320770  51.5958748
  32.5109406  66.2137756  32.7243309  32.6127052  66.8341522  33.4461403
  31.6858063  65.7650223  32.9087334  74.5668411  52.5519028  75.9887848
  75.5152359  52.6106300  75.8733444  74.4507294  52.3470802  76.9165802
   3.0743122  33.0800438  75.5672150   2.3294632  32.4857025  75.4767075
   3.7176795  32.7554321  74.9371796  76.5104294  30.9844303  70.4212952
  75.9882965  31.7105961  70.7623138  76.6254196  30.3996506  71.1703262
  65.4105530   2.8851988  83.3616638  65.6645050   2.8869810  82.4387665
  64.5738373   3.3497219  83.3807373  76.2766800  41.6934700  77.3016357
  76.0279770  42.5954819  77.5035095  75.5134048  41.1728592  77.5518494
  63.6620102  48.7047501  51.9369392  62.7188187  48.6678467  51.7779999
  63.7588463  49.3230896  52.6611710  61.2951202  48.4241638  47.7867928
  61.9827881  48.7349701  47.1979446  60.4893265  48.5015945  47.2759743
  45.4837303  44.7798424  26.3530922  45.7789688  45.6646004  26.1379910
  45.6770782  44.2656326  25.5692329  72.3342972  57.6213608  23.7814693
  72.2729416  58.5093307  23.4293690  71.4421692  57.2791061  23.7249069
   3.6841393  63.9496918  36.0740967   3.4250927  63.8706551  35.1560097
   3.9942470  63.0758018  36.3115425  15.9681883  16.8241272  22.3515530
  16.6704330  16.8899498  21.7044430  16.2985897  16.2037086  23.0012817
  48.0359459  57.3438492  26.3321972  48.6175728  56.9683266  26.9932003
  48.5329208  58.0737343  25.9627190  23.8146820  66.4237213   5.9342585
  23.3510170  66.1984024   6.7407799  24.6884155  66.0496521   6.0477977
  23.0190868  64.0700150  10.3225555  22.1849556  63.6982536  10.6093493
  22.8953686  64.2445450   9.3895674  22.7681789  42.5780640   9.1863909
  22.4766655  42.0711098   9.9441853  23.4205379  42.0207863   8.7620010
  -0.1353334  23.0021019  26.7261257   0.5061235  23.6634960  26.9855919
  -0.1398755  22.3758793  27.4500427  48.5292664  34.7565956  30.4192467
  49.1766396  34.8332825  29.7183456  48.4730034  33.8167152  30.5915432
  69.9667740   8.4483919  66.5437393  70.4428024   8.9798698  67.1818314
  70.0692062   7.5496011  66.8566513  71.0172577  33.8171577  49.0287819
  70.9600220  33.6840248  48.0826149  70.2066193  34.2726288  49.2560349
   4.7567000  53.8438301  43.8743591   4.8927412  53.0277557  43.3929596
   4.6747971  53.5718842  44.7884560  54.7211342  32.0614929  85.3600464
  54.9161072  32.8223152  85.9071960  55.0238037  31.3129158  85.8741074
  53.6139069  14.7353649  40.4186516  53.2052002  15.3240633  41.0531807
  52.9075127  14.5066156  39.8145752  38.6209106  59.0406418   1.7945032
  38.4743423  59.4127541   2.6641483  38.7640152  59.8002739   1.2299578
  15.7881069  36.7371063  87.5137100  14.9290867  36.7481880  87.9358368
  15.5951223  36.7743797  86.5769043  62.4713440   1.5974982  71.6910019
  62.7279549   1.5745701  70.7691193  61.8595200   0.8677132  71.7875290
  65.3116608  14.8651400  51.4269257  65.1128159  15.7952614  51.5344696
  65.7924652  14.8169804  50.6006432  58.8270760  19.2771130  35.9919586
  58.0208473  19.7823544  36.0966568  58.6900520  18.7705917  35.1913986
  36.9209328  50.1854820  24.0925560  36.9197845  51.1407738  24.0321255
  36.8719788  49.8879662  23.1840858   7.5235076  37.2767982  81.8483124
   6.9327245  38.0296516  81.8687210   7.6130381  37.0677299  80.9185257
  42.7757912  66.3378525  41.3889160  43.2797775  66.1995010  42.1908417
  42.5816345  65.4554596  41.0728188  13.7665672  32.5280571  66.1308289
  14.0738754  33.3334579  66.5469131  13.4044304  32.8147125  65.2924271
  12.7850647  60.8546867  40.3966942  13.6293402  60.7283249  39.9637222
  12.1869583  60.2707176  39.9303436  50.4187546  25.0191269  82.5923157
  50.0435486  24.4967213  83.3012238  49.7552338  24.9987526  81.9027176
  45.1200104   5.1498423  31.4208260  45.6300468   5.0507936  32.2247429
  45.1986427   6.0779204  31.2001038  14.1240616  14.5884418  59.0750771
  14.2541780  14.2443943  58.1913719  14.4230680  15.4963646  59.0250587
  63.4684944  37.4869652  21.5334034  64.2895889  37.9262314  21.7549381
  63.5393944  36.6253242  21.9442272  15.9236460  15.4249496  82.8241043
  15.8623943  15.4614038  83.7786407  15.4659624  16.2104626  82.5245514
  43.0272598  45.4686394  38.7735672  42.9348793  45.5988235  37.8297691
  43.9406624  45.6880836  38.9573441  62.6382751  26.2681217  62.1747513
  62.5395737  25.4353065  61.7133331  62.0003929  26.2243366  62.8870888
  49.6836929  36.9102249  40.0559731  49.0342636  37.4498596  39.6051254
  50.2353363  36.5634422  39.3547859  84.8264008  71.0075531  70.4339218
  85.3285294  71.6286011  70.9615631  85.4043045  70.2501831  70.3409119
  24.6467113  17.3924370  77.1007996  25.4011269  17.4530163  76.5147781
  23.9549389  17.8782063  76.6516800  45.3744278  69.0115128  75.9276352
  46.3169098  69.1536865  76.0156403  44.9767418  69.7425385  76.4005966
  64.9778137  17.1999855  58.5307579  64.9404907  16.2690868  58.7504501
  64.0917511  17.4126186  58.2376480  18.2248974  34.6949539   2.0697937
  17.7892456  34.6477890   1.2187860  18.3884563  33.7819061   2.3060668
  45.9638100  21.5338058  27.5593758  46.0451851  22.4581528  27.7943115
  46.6848450  21.3772926  26.9495831  20.9927387  38.3675880   9.3309193
  21.6803303  38.8794327   9.7569056  21.4623489  37.7881012   8.7310076
  22.5864143   9.1723537  79.8935242  23.4466953   9.5913630  79.9176025
  22.3612709   9.1408768  78.9637146  51.1715965  19.3597794  51.0281105
  50.6672096  19.5465317  50.2363091  50.7023697  19.8187599  51.7248116
  23.1772327  30.6224480  18.9594822  23.6201973  29.9636097  18.4247398
  23.2990170  30.3214607  19.8599300  20.3457413   7.1308527  78.0302658
  20.4261379   7.6312499  78.8422852  19.6061382   7.5320568  77.5739212
  73.3072510  13.7330637  25.7081089  73.4465561  13.6749506  24.7628841
  73.4896622  14.6482248  25.9212723  55.1377563  67.5942917  85.2529526
  54.9838562  66.7994003  84.7423782  56.0873375  67.6237946  85.3698196
  54.8732529  68.0447769  69.0815430  55.3428650  68.8097000  68.7490005
  54.8010063  68.1989136  70.0234833  62.3884773  65.5560379  84.5067368
  61.7368088  65.0095444  84.0675278  63.0268631  65.7628860  83.8241653
   1.2832600  58.5820885   2.9537210   0.6880904  58.2985382   3.6476986
   1.6310893  57.7682495   2.5891466  61.8349075  13.1052427  44.3671875
  61.6796188  13.7333841  45.0725632  60.9923210  13.0360117  43.9183197
  36.0528946   0.3660877  42.5146103  36.1652832   0.6780679  43.4125366
  36.3373070   1.0992910  41.9689407  85.5189514  45.8807907  74.1946640
  85.7600250  46.0951347  73.2934570  85.0404205  45.0547600  74.1245880
  39.8801003  68.7158051  68.1417465  39.5251961  68.3824310  67.3176422
  39.4750137  68.1695633  68.8153610  53.5075302  33.1934700  60.0929146
  53.0109596  32.3820305  60.1988220  53.4505005  33.3888321  59.1575966
  46.1545715  42.0019531   9.6044331  46.9157372  41.5047035   9.3050947
  45.6284828  41.3659210  10.0891218  81.6324921  22.8026104  70.8912888
  80.8442993  22.8331089  71.4335632  82.0421295  21.9658527  71.1109772
  35.3555450   1.7365359  65.5194092  34.9282036   1.7297968  64.6629257
  35.1371460   0.8870694  65.9027405  77.1350403  15.4727716  11.2468491
  77.6689148  16.2241726  10.9887772  77.0454102  14.9562693  10.4459591
  79.2571564   3.6014895   3.9208202  79.7246780   2.7978909   4.1486011
  79.3932648   3.6988235   2.9783587  69.6152802  27.3719368  52.1209869
  69.1885300  26.5384445  52.3194962  69.6568146  27.8261585  52.9625244
   0.7807885  20.4370651  77.4915695   0.7358533  19.9497051  76.6689606
   1.6426799  20.2240906  77.8493652  49.1980438  58.8736267  52.4763451
  49.4185219  58.6045418  51.5845985  50.0381393  58.8953133  52.9346008
  61.7445412  52.6458244  43.3795853  61.8778343  53.3731041  42.7717018
  60.8975601  52.2766953  43.1293831  40.0107040  41.4981689  71.3053818
  40.5662689  41.0444641  70.6715622  40.1169586  42.4261208  71.0959778
  74.7990112  14.1664438  50.1343460  74.9744110  14.3718081  51.0526581
  75.6271591  13.8177271  49.8045006  41.0166435  47.3028069  19.7204399
  40.3740845  47.8076935  20.2188778  41.6592751  47.0230141  20.3723392
  57.5640411  44.8823853  17.0559082  57.7260323  44.5541916  16.1714439
  58.4267464  44.8893394  17.4705429  58.1402054  71.3354416  79.0319214
  58.1027870  70.9625320  78.1511459  58.0167885  70.5861740  79.6146774
  43.3470955  57.1131020  28.9193459  44.2086525  57.3322716  29.2741985
  43.2976685  57.5965500  28.0946846  79.4447479  44.1307716  49.6361160
  79.8347015  44.5563202  48.8725204  79.7560272  43.2267036  49.5914879
  64.7519073  61.2505951  78.2290192  64.0181885  60.9645119  77.6849136
  64.7155151  60.6821823  78.9983139  46.4834938  28.9893970  10.4881248
  47.1218262  28.4100666  10.0720272  46.3574638  28.6188641  11.3616543
  17.2840195  37.3239517  72.9238281  16.9839478  37.6223640  73.7823944
  17.9109211  37.9910011  72.6440582  58.7497330  14.2854719  88.3725128
  58.2142296  14.8543892  87.8195190  58.7915993  14.7398081  89.2139740
  60.2353325  61.9621620  39.5719719  60.4368515  61.4235229  40.3371429
  59.7105064  62.6837502  39.9185295  63.8157234  29.7233734  12.6999531
  64.6562576  30.1492958  12.8682356  63.9868164  28.7920780  12.8401289
  62.0824776  43.0449257  57.0112190  61.9688301  42.1541214  56.6798782
  61.3519058  43.1702232  57.6168594  83.7871704  52.0239563  44.6166992
  83.2273407  51.8856544  43.8527031  84.4059296  51.2939415  44.5955238
  36.5994835   5.9985466  78.4056702  37.3858414   6.0842853  77.8666687
  35.8746605   6.1302214  77.7945023  16.5351696  55.8486862  80.3794479
  16.5750961  56.4538231  79.6388702  16.8900661  55.0280647  80.0376053
  63.9542274  52.3172073  18.2141514  63.1463432  52.5455322  17.7543488
  63.9777374  52.9096260  18.9656277  59.0945625  27.6492386  84.8396225
  59.3841286  26.9652119  84.2358932  59.8947754  28.1230507  85.0663300
  21.4625893  68.4658127  75.5561142  21.0820312  67.7366638  75.0664749
  22.3844643  68.2297668  75.6593552   7.8076997  57.4457092  50.0613632
   8.3811674  58.1703835  50.3107986   8.2561722  57.0274162  49.3264275
  14.0404882   7.6899180  19.7013855  13.4069099   7.6951532  18.9839001
  13.5172834   7.8622484  20.4841938  42.4080124  53.6730614  20.1441402
  41.5678139  53.4629707  19.7365131  42.2605705  54.5139198  20.5770912
  79.6772079  57.1258621   0.4113033  80.1922760  57.5965118   1.0666091
  80.3154984  56.5806656  -0.0486738   2.2017999  30.3901062   6.1273074
   2.9162474  29.9891300   6.6222968   1.9833198  31.1810303   6.6201954
  77.5333633  66.4286575  39.5395164  77.6603928  66.2360535  40.4684944
  78.2554626  65.9789047  39.1007385  36.2683029  50.4935341  70.0800247
  36.2346268  50.5593033  69.1256790  35.3505936  50.4662552  70.3507538
  65.8567734   2.9066865  55.4172249  66.7065582   2.6702032  55.7889442
  65.8589401   3.8637984  55.4044113  11.1605530  54.9718132  61.9502449
  11.8896713  55.1100159  61.3456650  11.5769215  54.7136497  62.7725716
   1.5505283   1.6403190  17.5965309   1.4975255   2.5773065  17.4081783
   0.7921714   1.4647181  18.1535683  17.7045765  49.5387573   1.2679548
  18.3373508  49.3147621   0.5855656  17.0299320  48.8631210   1.2001072
  62.0654182  48.5887299  64.6087189  61.7561455  48.2258072  63.7787361
  62.6415291  49.3097954  64.3549652  14.7043285  34.7670517  85.2297745
  13.8292074  34.6583862  84.8575058  14.5956593  34.5669174  86.1594925
  62.9880791  51.6303406  81.2104797  62.1609383  51.2955742  81.5568924
  63.2497292  50.9870415  80.5517349  19.3249397  24.2123871  82.2080231
  20.0638523  23.6385193  82.0057449  18.5524044  23.7047310  81.9596100
  64.4608536  62.6510277  18.1974964  64.3969879  63.4179688  17.6283283
  65.3779297  62.3835640  18.1369972  82.9252396  39.4106102  10.5987377
  83.4353409  39.2255783   9.8101969  82.5106964  38.5759430  10.8171740
   8.4343977  35.9440727  65.8931427   7.9949956  36.0010262  66.7416229
   9.3665361  36.0070000  66.1014481   6.9508433  42.7178764  55.3364983
   6.1667557  43.2363777  55.1559563   7.1611934  42.3025894  54.5001221
   8.8920879  56.6455498   6.7150159   9.8111086  56.8640442   6.5604396
   8.7075825  55.9365234   6.0990014   5.3948340  41.1926041  61.2703476
   5.7714753  41.5067368  62.0923538   5.5292234  40.2451286  61.2919502
  63.3287888  35.9313507  16.7201920  63.8101883  35.1498718  16.9918156
  63.0297928  36.3253708  17.5396919  48.6162605  28.4011440  30.9044800
  48.1300774  28.2927113  31.7218533  49.2327499  29.1108208  31.0848351
   6.9625297  38.6736908  37.8279381   6.9358706  37.8448486  37.3498764
   6.1741576  38.6626053  38.3706856  48.5017319  49.5753212  31.7150898
  49.0264168  49.5143127  30.9168320  49.1451797  49.6582603  32.4188843
  45.3636703  40.0692482  21.7387753  45.5537148  39.9623222  22.6708069
  45.8084602  40.8810883  21.4952393  24.9445724  70.0908203  39.9048958
  25.8056412  70.2300873  40.2991028  24.3470726  70.0293121  40.6501732
  78.5786591  70.0993195   8.5270720  79.0418167  70.7028046   7.9460974
  77.7033691  70.0251083   8.1468153  31.3328629  61.2458038  34.2513618
  31.6369114  62.1351204  34.4327545  32.1189880  60.7760468  33.9728622
  22.9710255  25.3398895  83.3743210  23.3412132  25.7616367  84.1497726
  22.2499580  24.8085327  83.7118912  82.8398438  31.3375740  45.7597122
  83.7134399  31.1389523  46.0967865  82.5950317  30.5610199  45.2564659
  56.3812447  39.4340401  88.2318115  56.8306427  39.4798393  89.0757141
  56.2137756  38.5008736  88.0999680  39.7375717  25.9571857  47.8907852
  39.4714699  26.5262928  48.6129608  40.6779251  25.8320179  48.0184631
  64.2471008  66.0711288  24.1828880  64.1229095  65.2460556  23.7137775
  64.5368958  65.8086243  25.0565815  32.8849945   9.7051229  85.8770676
  32.2841682   9.0439301  85.5334625  32.3291664  10.2883511  86.3939133
  17.5507259  50.8211594  52.7141151  17.9598312  50.2755013  53.3857727
  17.9421539  51.6859856  52.8369484  72.0093536  35.8103333  25.7651310
  72.7291336  35.7034569  25.1432552  71.3458939  36.3022614  25.2813396
  84.5084457   5.9125190  44.2216797  84.9642334   5.1290803  43.9139252
  83.5796280   5.7048450  44.1197014  45.3646202   4.3313627  80.8120117
  46.0747833   4.9720712  80.8493271  45.6010628   3.6733859  81.4657593
  18.8308582  56.0475883   0.9935076  18.5882530  56.8783531   0.5846021
  19.7814217  56.0985794   1.0938034  83.2896042  64.8939056  82.5347137
  83.7093735  64.1407623  82.9503937  82.6007156  64.5135651  81.9897232
  40.3351631  46.9148636  34.2376060  39.9069786  46.0630569  34.1520576
  41.2402382  46.7559624  33.9696083   0.7823110  56.4541016  80.3530731
   1.5375080  56.0823288  79.8973312   0.0349379  56.2345123  79.7967911
  83.8202972  24.3261433  70.8030014  83.8192749  24.7726517  71.6496811
  83.0532455  23.7543240  70.8328629  52.1466980  64.5066452   3.6041181
  52.7361984  63.8577118   3.9883153  52.5298157  64.7016220   2.7488773
  59.9299507  31.1587315   3.7426281  59.2833138  30.8214474   3.1226852
  60.4871597  31.7339115   3.2183022  43.8428574  67.4207535  74.7844849
  43.1429977  67.9286346  74.3740158  44.4308777  68.0789948  75.1548691
  52.4092407  36.9843826  10.5222712  52.6450462  36.8565865  11.4411259
  52.7696495  37.8427391  10.2996531  27.3197289  39.7207527  55.1587715
  27.4375286  40.5476570  54.6912498  28.1538582  39.2637520  55.0510254
  75.0038452  68.2200317  20.5911579  75.5504379  67.9791260  21.3391075
  75.6278229  68.4331436  19.8972797  84.0456772   2.3194592  46.9795799
  83.3425369   2.2740841  46.3316879  83.8132095   1.6587501  47.6320000
  67.4387589  20.8294582  35.9989243  67.5852966  21.5881901  36.5638008
  67.7594070  20.0856361  36.5089684   9.4642668  18.5643253   9.0966158
   9.9860096  17.7700272   8.9821177  10.0453043  19.1678791   9.5595942
  48.5818253  49.0593185  47.1278419  48.6417503  49.3325081  48.0432701
  47.6420631  48.9907341  46.9593887  20.7756100  67.9777908  81.6347733
  20.8310337  68.2483292  80.7182770  21.5932884  68.2861099  82.0253830
  86.2472076  55.6908760  46.8721085  85.3039780  55.5285110  46.8858604
  86.5997009  55.1123772  47.5483627  44.8248863  45.0801125   4.6416087
  44.6680489  45.1043625   3.6976562  45.7508888  44.8524551   4.7247806
  48.0603867  31.8425407  30.2350197  48.0114555  32.2852554  29.3877659
  47.6990395  30.9714184  30.0712929  82.5492630  17.3572617  70.0846558
  82.2257767  16.4565163  70.0689545  81.7602615  17.8961430  70.0270462
  11.6531372  36.9392166  59.5931587  12.2825212  37.6316376  59.7947998
  11.3388510  37.1498375  58.7139015  40.3306923   1.5131778   7.0510869
  39.9248352   0.9591981   6.3842893  40.1680183   1.0542556   7.8751988
  67.9805603  31.9061050  21.9790459  67.1717148  31.7354183  21.4964809
  67.6997452  32.0093727  22.8882828  18.1422615  68.6226120  82.7833862
  17.9661369  69.5552444  82.6592331  18.9222775  68.4537430  82.2549133
  75.9974747   7.5322995  55.7514458  75.6598511   7.7202978  54.8757172
  76.6184311   6.8157935  55.6200218  10.6474333  17.1129322  68.4235840
  10.6620998  16.4539490  69.1176758  10.9923296  17.9042263  68.8372650
   2.4010801  54.9859123  67.8656769   2.1230431  54.4867210  68.6336212
   2.8442271  54.3443108  67.3105164  42.0493202  35.3836021  84.2538834
  41.9625816  36.2708206  83.9052429  42.3723106  34.8667412  83.5158081
  67.8675385  47.2054176  72.3525696  68.4504700  47.2955360  73.1064224
  67.2510986  46.5188293  72.6072006  85.1841888   0.3151095   1.7991538
  85.8660126  -0.1607150   1.3248764  85.3762589   1.2379673   1.6328044
  54.0192108  37.5874825  26.3746872  54.0120735  38.2416801  25.6759701
  54.8027306  37.7911034  26.8854446  35.5510139  52.9685745  20.9333229
  35.3760529  52.0622139  21.1865654  36.0956001  53.3140297  21.6406555
  50.6897621  52.1522636  51.7921181  50.8319321  52.9852600  51.3425217
  51.2731552  51.5374069  51.3473358  18.5351276  56.3377686  44.7023201
  18.5216084  55.4476471  44.3505592  17.7640686  56.3836327  45.2676468
  10.9837627  51.4258118  28.9111576  10.3003798  52.0916252  28.8342762
  10.6372700  50.6709137  28.4354401  33.8654823  66.1482239  12.7652969
  34.0816002  66.9603806  13.2234793  34.2419205  65.4578476  13.3111019
  45.4660568  61.3726463  77.0175247  45.6896782  61.6582451  76.1317139
  46.2806206  61.4648514  77.5117035   4.4230738  56.9634323  67.5294495
   3.8665490  56.1858444  67.5727158   4.3957639  57.2266312  66.6095581
  56.5337105  65.3072815  50.9782486  56.2915421  66.2270584  51.0859833
  56.9477806  65.0698624  51.8079529   5.5862660  25.9235592  17.4949856
   5.9246373  26.6030960  16.9119167   5.4810762  26.3627262  18.3389645
  43.9388657  41.4164162  87.6452637  43.3480759  40.6647530  87.6921463
  43.4972115  42.0320625  87.0603256  27.1898994  68.4897919   2.4899561
  27.6801281  67.8804092   3.0418289  26.2935734  68.4466248   2.8230746
  76.1674576  42.3893051  54.3465309  76.2370834  41.6129341  53.7909851
  75.2291107  42.5749359  54.3821869   1.6056657   4.4244661  53.7277603
   1.0247713   4.2952247  52.9780350   1.4926149   5.3455596  53.9623642
  22.8655376  49.0274506  47.9995918  23.1529236  49.3192101  48.8647614
  21.9099998  49.0180397  48.0551796   3.6816895  57.2253685  74.2217484
   3.0440123  57.3531075  73.5194092   4.4158130  56.7784615  73.8003540
  19.9212799  70.6535492   3.3675849  19.0862732  70.3694382   3.7394381
  19.7231674  71.4889984   2.9444978  77.6761093  44.1412163  34.1855888
  77.9519272  44.4761009  33.3323517  78.2437210  43.3864059  34.3415146
  85.8293686  34.0397606  35.0855827  86.5724106  34.4608650  34.6533928
  86.0056152  33.1023254  35.0056686  79.2428055  59.2418213  22.9388065
  79.8115311  58.4838181  23.0737534  79.8285751  59.9958229  23.0064793
  50.9645309  28.8261452  17.1145458  51.6642227  29.4175243  17.3919125
  51.1637154  28.6324196  16.1985626  60.6778870  67.8651886  61.0693130
  60.8640709  67.6799393  60.1488533  61.5401001  67.9256821  61.4806099
  50.6399651  63.7910728  84.7800522  51.2758408  64.1024246  85.4242172
  49.9922333  64.4935913  84.7239914  26.0956364   3.8092809  63.4950523
  26.2419605   3.6542325  62.5618973  25.2107315   3.4819379  63.6563644
  45.7633095  57.2813644  79.0456161  45.8990936  58.2039223  79.2616730
  46.1059265  56.8052788  79.8020477  28.4050446  46.3124237  74.1638184
  27.5814133  46.7251015  74.4237442  28.1389523  45.5382881  73.6676941
  15.8474531  18.4543228  67.2372284  15.3278036  19.2434311  67.3905487
  15.2884188  17.7374344  67.5368652  51.7203941   8.6070538  88.8544846
  52.3290787   8.5016680  88.1233063  50.9536247   8.0917330  88.6040039
  18.6012592  34.0888863  68.9853439  18.1240196  34.4161606  69.7478180
  17.9489193  34.0683823  68.2851562   2.9693081  65.1848068  81.1989975
   2.5611234  65.1045685  82.0610733   3.6398740  64.5018539  81.1869965
  48.5381050  54.2720566  72.8824997  49.3928947  54.4989700  72.5163345
  48.1019783  53.7809753  72.1861801  24.9449463   0.5756183  24.1030235
  25.5395851  -0.0580589  24.5043831  25.0750065   1.3788052  24.6072121
  71.0454330  70.6045914  59.7792549  70.3229675  71.0792007  59.3681488
  71.4248505  71.2320480  60.3945389  39.5617752  42.1308517  82.7127533
  39.7883568  42.1067886  83.6424408  39.9724541  42.9316788  82.3867874
  63.2670021  46.2009888  65.7059631  64.2229614  46.1899681  65.6585312
  63.0085449  46.9422302  65.1582489   3.0100441  25.7165470  62.0418892
   3.8828592  25.8295765  61.6655273   3.1523027  25.1751652  62.8183556
  16.8318481  69.7789001  85.3476486  17.4982109  69.1210709  85.1490173
  16.2192554  69.3307648  85.9308624  15.7605171  42.8656845   5.3400450
  15.6406918  43.7972679   5.1555719  16.3445301  42.8448296   6.0981512
  46.9058914  56.3962097   8.6447582  47.6956940  55.8676491   8.5304422
  46.1853638  55.7919846   8.4659214  40.5502777  58.7411919  12.6589308
  40.1503181  58.6080322  13.5183096  41.2516403  58.0910912  12.6178427
  45.9055099  14.0392857  61.5055199  46.7386017  14.3887978  61.8218002
  46.1506500  13.4259930  60.8126907  61.4658279  21.9656143   8.4063797
  61.8490639  22.7881927   8.7108841  62.1984253  21.4909763   8.0136328
  15.8909168  57.5306969  37.7652817  15.0816956  57.0929527  37.5011406
  16.5682697  56.8615341  37.6670609   5.8603239  23.8914051  66.6871719
   5.1733270  23.7959480  67.3468399   5.7241130  23.1548653  66.0911942
  68.8826141  63.3274384  78.9200439  68.6773071  62.7635422  79.6657639
  68.1928635  63.1422958  78.2827148  54.5257454  40.0438728  79.5738068
  54.4464264  39.4481697  78.8287659  54.0182343  40.8145370  79.3193588
  78.3890610  30.3696957  56.5458984  77.9853668  29.7469902  57.1504669
  78.0726013  30.1045799  55.6823006  65.5901031   5.4169145  32.9831657
  66.3421555   5.9229307  32.6756134  64.9889908   5.4045377  32.2383537
  85.1625671  23.8593483   9.2593622  84.8416519  24.5685654   8.7023554
  84.3749619  23.5014362   9.6690130  20.4367199  10.8606796  73.8326416
  19.4945621  10.8940287  73.6669312  20.5572357  11.3707237  74.6336136
  53.9209900  43.7517281  42.1648331  53.1094894  43.3005524  42.3975105
  54.2401657  43.2868881  41.3913460  25.9761181  24.0330658  40.9289093
  25.0847893  24.1502762  40.6002388  25.9132347  23.2934017  41.5332069
  39.4737968  29.9103279  74.3372040  39.9398575  30.7464008  74.3385849
  38.9985733  29.8996563  75.1680374  51.5642319  36.4378700  63.3483124
  52.1196327  36.1315079  64.0651779  52.0994301  36.3200722  62.5635071
  71.5854950  27.3047714   0.5072269  70.6826019  27.6109047   0.5926562
  71.6155701  26.5001526   1.0248334   0.0269585  54.6691360  16.2657719
  -0.1117701  55.2525024  17.0118771   0.7912452  55.0312500  15.8174744
  32.3503265  49.7239799  30.3126011  33.0273247  49.0570793  30.4272785
  32.5806274  50.4093933  30.9398193  46.0181046  49.1727982  15.8503094
  46.3205414  49.6876717  16.5984230  45.0650673  49.2599602  15.8691511
  62.1677818  32.8801689  30.8042126  62.7855797  32.2151260  31.1079845
  62.4382324  33.6811714  31.2530842   3.4510522   1.9318792  76.4286804
   3.6343384   1.4848417  75.6023636   4.2210283   2.4799118  76.5804367
   4.1021724  24.8631802  57.7249107   3.5680537  25.5866890  57.3970642
   3.8336225  24.1097813  57.1990776  86.4130402  66.3051224  63.8886833
  86.8891678  66.4989777  64.6961212  86.2097855  67.1640778  63.5183868
  64.7312469  47.7384682  55.6550560  64.7664719  48.6816330  55.4955826
  64.1954346  47.6486588  56.4431381  55.1135292  21.8355827  87.6026077
  54.2025337  21.5593185  87.5026169  55.4839020  21.2164345  88.2316666
  54.4696007   1.8338221   5.1109929  54.7070122   2.1221621   5.9923143
  54.7753868   0.9279525   5.0648589  74.9533386   5.3724518  62.9411469
  74.2636185   4.8593755  63.3621864  74.8821259   6.2406254  63.3379250
  56.0163994  20.8649883  39.3330078  55.8066292  21.5770054  39.9373741
  56.6876793  20.3554897  39.7869110  11.4403496  61.0606346  64.1799393
  11.5857124  60.4295502  64.8848038  11.3700380  61.9050446  64.6252060
  70.2337494  66.7549362   6.1255488  70.2548828  67.2507935   5.3070703
  71.1499252  66.5375290   6.2975955  67.7937698  67.8078232  82.4093399
  67.2732620  68.4236755  81.8935699  68.6979599  68.0969772  82.2866211
  72.0008163  65.7722473  77.0693054  71.3956146  66.2824631  76.5311203
  72.5420837  66.4282532  77.5085373  18.8973045  13.5386477  43.5940514
  19.4673557  13.8885422  42.9093285  19.4736137  13.4228544  44.3494949
  45.9750786  31.6557255   7.2532616  46.7870789  31.6259613   6.7472968
  45.4565048  30.9247417   6.9171448   6.7683134  39.7240601  28.4558525
   7.2276506  40.5032654  28.7690315   7.3933897  39.2967033  27.8702927
  27.1475525  65.7431030  21.6542816  27.2003365  65.1366959  20.9155560
  28.0473862  65.8104401  21.9736500  21.4682026  70.5561523  83.1448746
  21.3229847  70.4836884  84.0882187  21.2302094  71.4591293  82.9345703
  63.8920250  38.6549835  14.6436701  63.7215118  38.5517502  13.7074537
  64.5783539  38.0155067  14.8340645  48.4863319  11.1513243  39.2023392
  48.6869659  10.7589331  38.3526268  47.7683868  11.7582741  39.0223427
  81.7229309  26.2388210  11.9289045  81.2737350  27.0802174  12.0095901
  82.5595245  26.3701859  12.3751030   3.6843524  19.2628994  77.9051056
   3.0510035  18.5689411  78.0881958   4.4317932  19.0594597  78.4673996
   8.6612797  17.9724960  86.4776611   9.0503550  17.3719978  85.8418503
   9.0115442  18.8313999  86.2413788  22.8100185  17.7122002  45.2991982
  22.7186642  17.4338894  46.2104759  22.5163898  16.9581566  44.7878914
  74.3056793  10.0443268  83.4645767  74.2598953  10.6231833  82.7036133
  74.1731110   9.1666937  83.1062164  85.0340958  48.0353355  10.8944416
  85.5255661  47.2374306  10.6994143  85.4214249  48.3628311  11.7062016
  71.8454285  36.5635872  40.0148392  71.1000061  37.1534996  39.9026489
  72.3539581  36.6645088  39.2102013  28.2189560  63.7174301  85.0259094
  28.7387829  64.4914169  84.8092194  27.3894997  64.0688934  85.3494873
  62.2283592  21.0070019  24.8508034  62.6688461  21.3884087  24.0913715
  62.9339790  20.6143169  25.3647423  80.1745987   6.9369607  44.5968704
  80.8835831   6.6045027  44.0463753  80.1929169   7.8847885  44.4645119
  76.1696014  36.1395073  57.7852631  76.3087387  36.9186745  57.2469559
  75.7847443  36.4737358  58.5954514  76.8231125  31.0004635  84.1424484
  76.9742737  31.4581184  84.9694519  76.5426178  30.1229000  84.4021378
  30.4197254  15.4324436  79.4005356  30.3146744  16.1055698  78.7281570
  30.9057961  14.7324038  78.9647446  11.9961376  46.8582077  18.9782467
  11.5869827  47.7224274  19.0223827  12.3625879  46.7217979  19.8519402
  42.2683792  37.7914543  82.9163589  42.8820114  38.2952309  83.4510574
  41.9764214  38.4063110  82.2433472  57.5425186   5.2420278  42.9557381
  57.1153641   4.4651179  43.3165474  57.8274994   4.9746318  42.0819435
  80.9852905   3.3884451  16.1063633  80.7439728   2.7393351  16.7671623
  81.9263916   3.5147920  16.2272129  62.0245781  59.5370903  81.8618088
  62.5034637  59.6810455  82.6780014  62.7050476  59.3542519  81.2139130
  41.3551483   7.9908829  83.1916580  41.5574532   7.0818739  82.9702835
  40.4293709   7.9779000  83.4345551  14.1513596   6.0236888   7.7415991
  14.4978647   5.1660085   7.9876695  14.8159285   6.6449094   8.0393648
   4.6922207   9.5192842  78.3065491   4.4709153  10.3739491  77.9366760
   4.8364363   9.6910906  79.2370987  66.2398911  25.9801693  82.0618896
  66.8790054  25.4416809  82.5285721  66.7698593  26.5779247  81.5345840
  46.1813545  68.4000397  41.1192055  45.8922081  68.3940506  40.2067413
  46.0576515  67.4983292  41.4155807   4.7266006  33.4402199  61.3215141
   5.2371035  33.6039467  60.5285378   5.0084271  32.5731468  61.6130371
  73.3856354  39.1648216  15.2838659  73.0898361  38.5771408  14.5886202
  72.5787354  39.4735909  15.6959324  52.3864822   4.9754162  44.2827339
  52.6084862   4.1938052  44.7887306  51.4402771   4.9149232  44.1513481
  23.5769253  56.1534882  65.7220230  23.9144993  55.4349365  66.2567825
  23.1118488  55.7210579  65.0058289   4.6458879  12.9545422  28.8139572
   5.2747622  13.3301916  28.1978111   4.5417175  12.0474300  28.5266800
  79.1296997  55.2951851  45.5398636  79.2478943  54.7954216  44.7320900
  79.8862762  55.8806610  45.5721588  55.0901680  57.3164558  26.2261600
  54.4869614  58.0574913  26.2830372  55.5872879  57.3490028  27.0434990
  82.7784958  61.4242821  58.9118500  82.1721268  61.1901817  58.2091866
  83.6192093  61.0608711  58.6336937  73.1613464  30.8554878  46.0087852
  73.0646133  30.8050671  46.9597473  74.1063538  30.8158817  45.8617287
  67.3452988  61.6863213   7.2724876  66.7191315  62.4023094   7.3797855
  67.9402084  61.9891968   6.5864973  19.9039364  10.0120239  44.6337166
  19.8789043   9.2096949  45.1551323  20.0076427   9.7084475  43.7318764
   9.0435467  24.5608368  77.7464676   8.2870140  24.9648476  78.1715164
   9.7552347  24.6608982  78.3787079  75.2809219  59.9364243   1.1291754
  75.6158218  60.2476425   0.2882139  75.5929794  60.5807762   1.7645216
   1.6027275  52.7009735  55.5374069   0.7035834  53.0189781  55.6189156
   1.5413963  51.7618484  55.7121048  59.8947906  68.3861542  36.9897232
  59.4652481  67.7482071  37.5595856  60.0399475  69.1484222  37.5501709
  32.4489250  57.1690254   8.1811485  33.1728783  57.7508659   7.9496770
  32.7660027  56.6834221   8.9426508  74.0551987  57.6093712  82.3028030
  73.9173737  56.7595787  82.7212296  73.1783524  57.9867859  82.2325668
   2.0549481  69.9109039  42.1224518   2.7926028  69.9691849  41.5152435
   1.2798625  69.9801254  41.5650597   4.1507459  46.1773682  30.7245464
   4.8421659  45.5688515  30.9850788   3.4889781  46.0962524  31.4113617
  44.8294907   9.5398254  88.6824646  44.5442429  10.3393469  88.2401657
  44.8569031   9.7758188  89.6097183  50.2740135   4.9302831   2.6083050
  50.3958549   5.6348758   3.2446501  51.1627197   4.6625504   2.3743114
  13.3930016  61.7869911   8.9901733  13.6364412  61.1816750   9.6905746
  13.4529371  61.2644615   8.1904221  31.7668915  36.0867577  82.6660004
  32.2239456  36.8318520  82.2759094  30.8477573  36.3532677  82.6858521
  32.0749626  12.1340008  87.1468048  32.6284256  11.9198465  87.8978424
  32.1750450  13.0796509  87.0374374  81.0171661  70.1621475  81.5499039
  80.5301437  70.6158066  80.8619843  81.9029999  70.0742340  81.1980667
  49.5988617  62.3388367  68.1083298  49.2247810  61.7270317  67.4742966
  48.8476677  62.6484528  68.6143646  65.4994736  20.5118484   3.9354768
  65.5382004  20.6187859   4.8858957  65.1306229  21.3355637   3.6166079
  67.2947235  19.3254013  85.7575226  67.6959991  18.9173622  86.5248032
  67.0819550  18.5922279  85.1800995  19.8746204  25.5024281  84.4308929
  19.3314877  25.3356705  83.6605453  19.7335110  24.7405529  84.9929123
  35.6842537  51.0995598  60.6294060  35.3929291  50.4488907  61.2681465
  36.2734146  51.6712875  61.1215973   2.7086940  18.5173111  23.2178993
   3.1294558  17.6957664  22.9644165   3.3992279  19.1751595  23.1364689
  30.8388271  53.4305878  36.9642029  30.3970242  53.7884483  36.1941528
  30.2002087  53.5228958  37.6712227  74.7491989  52.0354156  15.1049099
  75.4492416  51.5942116  14.6237450  74.2367325  52.4790306  14.4290304
  29.0254574  34.4320831  77.0547333  28.1436863  34.7077484  76.8042984
  29.3832932  34.0272331  76.2646255  67.2330093  55.3137398  14.1661158
  68.1703720  55.4537201  14.3002348  66.8797684  55.1963959  15.0479813
  53.1670036  64.1631775  33.6886253  53.0685997  65.1003647  33.8566399
  54.0025482  64.0889359  33.2275581   5.2145562  70.4430389  83.7446365
   5.2320318  69.5375900  83.4346771   4.9520898  70.3768768  84.6627731
  36.3956451  39.1854172  86.6337051  35.5003891  39.5166283  86.5626984
  36.3453865  38.5002747  87.3002472   6.7023611  51.3972664  26.9336281
   6.8363819  50.4967079  27.2290421   6.1775870  51.8005829  27.6251316
  30.9503822  63.2578773  68.3222275  30.1271343  63.3320122  67.8395309
  31.0796261  62.3158264  68.4320755  53.1547699  42.4354210   5.5704546
  53.4314766  43.3450279   5.6812758  53.6084137  41.9605370   6.2668180
  53.5648422  71.5949936  88.4255142  53.6047974  71.4803467  89.3749847
  53.4922638  70.7053986  88.0796890  68.3063431  47.8808670  75.3023605
  69.1570663  48.3025284  75.1811066  67.6788101  48.6036606  75.3038330
  13.4664974  49.7244606   6.9824963  12.9011459  49.9228363   7.7289929
  14.1734476  50.3672295   7.0399742  20.4863949  58.9060402  26.9265785
  19.9019852  58.9313049  26.1689129  20.3826218  58.0224495  27.2797470
  84.6353073  56.3205795  23.2454166  85.3961105  55.8476143  22.9082012
  84.5360718  57.0670090  22.6544628  35.7704391  38.0992584  31.4909706
  36.2042885  38.0560303  32.3431091  34.8645248  38.3315163  31.6949406
  83.0792618  48.6687126  78.4532852  82.2669601  49.0140533  78.0829620
  83.5567093  48.3204269  77.7003021   2.3376198  69.4198303  65.9729538
   1.9258908  68.8218460  66.5967560   3.2649446  69.1832123  65.9906693
  74.2643509   0.5585402  59.6816711  73.4681015   0.8326583  60.1367302
  74.7096252  -0.0168963  60.3036308  24.5308437  50.5785179   4.5832806
  24.6716309  50.9814606   3.7265148  25.4115372  50.4536743   4.9368725
  70.6623459  11.7402792  61.7782784  71.2818909  12.0719690  61.1283722
  71.0645828  10.9348421  62.1034126  66.7704239  14.5553875  85.9662628
  66.1995926  15.3226252  86.0079117  66.7340927  14.1817436  86.8467712
  59.8671455  60.8676987  82.5025711  60.5554428  60.2768974  82.1969070
  59.4059143  60.3693619  83.1772308  70.2851486  41.1354141  47.8226204
  70.5436096  40.9178085  48.7182083  71.1051254  41.1305237  47.3288040
   8.0854092  34.6057129  88.7159042   8.0748796  35.5604057  88.6474533
   8.9842644  34.3598061  88.4972305  70.5838699  37.0599747  32.6834679
  71.4502335  36.7426262  32.4286270  70.5321426  37.9402351  32.3110504
  35.1455078  49.4527969  62.6836014  35.7615929  49.7139816  63.3680382
  35.1844330  48.4964027  62.6785660  48.3597794  14.6339054  62.1770401
  48.3755722  13.7149458  62.4444275  48.8075523  15.0970707  62.8850021
  20.6959095  67.0053787  16.5086308  20.7892876  67.0915527  17.4573593
  21.0918407  67.8021698  16.1556416  13.5508528  36.3950310   7.5495882
  13.5876932  37.3487930   7.4773750  14.2072697  36.0821724   6.9271193
   6.2893267  53.7813835  23.0801640   6.5552711  54.6084785  22.6783943
   6.7287335  53.7759819  23.9305305  80.9595032  70.9343491  58.2257423
  81.7205658  70.4221954  57.9523964  80.2140579  70.3516998  58.0806274
  10.5665274   2.5929360  72.3250961   9.9896221   3.1278598  71.7798767
  11.4412889   2.7419329  71.9661789  68.9052277  57.7623138  84.1293259
  68.1259155  57.2273788  83.9785004  69.6328964  57.1416245  84.0909195
   8.7749300  67.7029572  19.0442238   8.9665546  68.2255325  18.2654915
   8.4671955  66.8644028  18.7001820  17.8556137  66.1945496  38.8342552
  18.2580166  65.9527664  39.6684303  18.5831070  66.5159607  38.3016396
  80.9485855  29.8187447  33.5887032  81.1590271  30.3228779  34.3747025
  81.4889679  30.2092514  32.9018784   6.7412844  23.6186810  75.9381180
   5.9991627  24.2222557  75.9036942   7.4362850  24.1178474  76.3671188
  59.2146759  69.9808502  62.8056221  59.6153717  69.4088440  62.1510353
  58.9812469  70.7726517  62.3210640  46.4144897  69.6339340  61.8110390
  46.0605431  69.7915955  62.6863060  45.6640968  69.3299713  61.3004074
  20.2219276  23.5582314  88.1513443  20.0832672  22.9657459  88.8902435
  19.8583317  23.0917091  87.3987579  80.1944656  26.8924160  43.9394417
  80.3363647  26.0562229  44.3831482  80.4360428  26.7242756  43.0286179
   3.1917810  18.9640884  61.2533417   2.9129415  18.8575153  62.1628036
   3.8332603  18.2669945  61.1162491  34.2500496  69.6276779  33.8962059
  33.7270622  70.3860779  34.1561165  33.8069191  68.8814392  34.2999306
  51.2755737  14.1826334  81.5621185  51.3636169  13.7502708  82.4115524
  51.7160034  13.5954742  80.9477081  50.3276024  62.6657104  46.4105682
  51.2681732  62.7750778  46.5505486  50.1722641  61.7310677  46.5467567
  65.7956009  50.3107910  14.7565842  65.6908112  50.3697891  13.8069687
  64.9403610  50.5586815  15.1077881  79.3872833  45.9091187  10.4046421
  79.1421890  45.4137039   9.6231508  78.9414902  45.4597588  11.1226788
  34.2418671  34.3059998  88.9963455  33.9480705  35.1811600  88.7433624
  35.1222382  34.2330322  88.6277695   6.7288933  23.2230453  17.4670696
   6.2790556  24.0369797  17.6937637   6.0305877  22.5706501  17.4124660
  17.4027386  32.9238243  35.2353592  17.2336140  32.2319603  35.8748512
  16.6054001  32.9618492  34.7071190  45.0828819  23.7203484  64.7765884
  45.2370453  24.2602253  64.0013428  44.2434921  23.2925072  64.6074524
  83.2801590  19.4981365  57.7245255  83.2879486  19.6321926  58.6722603
  83.6086731  20.3215103  57.3634567  67.3165588  60.0078239   0.4593397
  66.6746902  60.7078400   0.3401243  67.7450409  59.9280701  -0.3928788
  80.7204742   1.4409428  17.8854218  81.4573288   1.6125517  18.4717865
  79.9603806   1.3887606  18.4648800  81.6941757  54.0205421  24.5858269
  81.8749542  54.2192039  23.6670856  82.5574493  53.9870415  24.9979801
  25.1586132  53.5379105  13.9363632  24.2159576  53.6801033  13.8502607
  25.3338680  52.7636108  13.4015894  56.1847458  32.6899643  35.2210922
  56.8674889  33.1004219  35.7517662  56.6308365  31.9737682  34.7691040
  55.8837166   6.5888653  77.5675888  55.6443443   5.6704040  77.4436493
  55.1173134   6.9818635  77.9852142  46.6101952  40.2579765  44.9327354
  46.3774796  39.4678574  44.4451027  46.9124222  39.9351807  45.7816734
  52.7355576  67.0256119  16.1622562  53.6451645  66.7894363  15.9804153
  52.7266846  67.9824142  16.1359520   4.8860536  55.8521461  65.0199280
   4.6377745  54.9704056  65.2976379   4.0800567  56.3629189  65.0955276
  13.5327520  57.6557007  22.4431610  13.8552198  57.5427933  23.3373070
  13.3477573  56.7664223  22.1411839  43.4999542  34.4881744  21.3280907
  42.8482895  33.8098297  21.1508541  43.4342575  34.6430550  22.2703896
  12.5564537  22.5510082   4.3856411  12.7038279  22.8710804   3.4956605
  12.6955452  21.6058254   4.3263488  40.8905983  16.7087536  18.7606392
  39.9854507  17.0158978  18.8117104  41.2400589  17.1233406  17.9718266
  69.1820297  55.1627693  35.0268478  68.9392395  54.3698997  34.5486832
  69.9506149  55.4959030  34.5636787  54.2326698   0.4443958  30.0786152
  54.5853844   1.1760046  30.5851460  54.6349068  -0.3322121  30.4676113
  57.6800728  44.6290398  39.7660294  58.6075859  44.8654404  39.7741585
  57.5974464  44.0083199  39.0420723  63.1474380  60.1407280   6.3020635
  62.3370056  60.6415977   6.2095275  62.9035225  59.3877907   6.8404150
  74.9803085  38.2037010  75.1791229  75.6229401  38.7063255  74.6785049
  74.4521790  37.7610893  74.5147400  62.8030128  11.8947105  33.6007652
  62.0744171  12.4348125  33.9068184  63.5639000  12.2266150  34.0773392
  32.7158546  70.5651093  26.8585911  32.2279587  71.3537903  26.6215916
  32.5892296  70.4800491  27.8035583  27.5880260  70.3134918  30.4472446
  28.4870758  70.6383896  30.4960213  27.0977383  71.0261002  30.0373230
  39.6470795  63.1129036  46.4522476  39.9371147  63.7491379  47.1059418
  39.4716682  63.6361160  45.6701241  70.6195602  54.6183052  64.8939743
  71.3770142  54.1231689  64.5819931  70.2121124  54.9596138  64.0979080
  39.1489563  27.6393547  49.8540955  38.8132973  28.5022507  49.6112480
  39.1315269  27.6362286  50.8111305   9.4188128  46.8608704   1.2795578
   9.7062330  46.0419083   1.6831956   8.9228935  46.5865669   0.5081597
  70.7010422  56.6171455  49.2545776  69.9281693  56.9152069  48.7749290
  70.5145264  55.7020454  49.4644279  34.6638069  41.9792099  68.2596817
  34.1912804  42.7773933  68.0233536  33.9982071  41.4140701  68.6518860
  49.1207619  24.6036015  34.4589500  48.9338188  23.6649055  34.4704247
  48.7016411  24.9409828  35.2506218  18.2004051  50.1405563  45.8735771
  18.7482395  50.8448143  45.5269814  17.3663197  50.5638847  46.0768547
  14.8002081  50.6989632  77.2309189  15.1057997  50.3918152  78.0844421
  14.3394852  49.9478722  76.8569870  62.6849823   4.7544899  28.8232231
  61.7359962   4.8722820  28.8654118  62.9417648   5.1714754  28.0007763
  39.4064903   6.0572367   2.1991498  39.6110840   6.1800818   1.2721753
  39.2528381   6.9422593   2.5298433  34.7295876   6.1194487  42.1915245
  34.9166832   6.5947661  41.3820190  33.7740593   6.0772443  42.2291107
  54.1865044  19.6941605  35.2228584  53.4119568  20.2564392  35.2108231
  54.2834244  19.4395752  36.1404762  39.5004044  35.7271805  59.2603836
  40.1914597  35.0949898  59.0628777  39.0742950  35.3793068  60.0437431
  70.7099915  61.2611618  41.2640457  70.9952927  60.3507652  41.3415718
  71.0314331  61.5407219  40.4068642  76.8197250  39.1058502  49.2052574
  77.6321945  39.5994949  49.3167725  76.7585449  38.5643425  49.9921875
  39.4877777  58.0031319  21.2163353  38.8914375  58.2537651  21.9218807
  40.2438126  58.5799561  21.3255081  49.7836609  22.9238319  39.2103271
  50.5063362  22.3851948  39.5325699  49.5683403  22.5495129  38.3560715
  45.8587265  36.6584587  51.6321449  45.1391563  36.0854568  51.8969536
  46.5335617  36.5180473  52.2963104  36.9540520  40.9204102  37.3862724
  36.3654022  41.5570297  36.9807625  37.5163765  40.6243057  36.6704903
  67.3028641  31.9695339  74.1691971  67.4239655  31.0375805  74.3509369
  67.5279922  32.0643044  73.2436905  59.6588211  21.8740005  54.5168266
  59.4392776  22.7558575  54.8174324  59.9206581  21.9905300  53.6035385
  82.3865204  18.5834236  31.9372482  82.8407669  18.0120220  31.3180637
  83.0270081  19.2617626  32.1513977  75.9619904  54.7647743  28.6380634
  76.4231339  54.5647469  29.4526634  76.6445541  54.7520447  27.9671059
  62.6829529  63.0665169  73.0369415  62.2249908  62.2430420  73.2054520
  61.9843483  63.7137985  72.9409637  86.2159195  43.4706345  88.4763870
  86.5744019  42.5832901  88.4949341  86.9775696  44.0338287  88.3387985
  29.7882481  56.3505363   7.1445684  29.9214649  55.4990921   6.7280025
  30.6074238  56.5204163   7.6096740   0.6646863  69.9231110  47.2711258
   1.2870680  70.4342499  47.7884331   1.2128687  69.3566208  46.7281532
  51.8938828  57.0808067  47.6039505  51.6056366  57.9817886  47.7501526
  51.5695267  56.8644371  46.7297592  78.6178741  40.0930786   4.1797605
  78.7226028  41.0212669   4.3888841  79.4477463  39.6936836   4.4405699
  44.5683784  46.9313469  77.3258438  44.4298706  46.0178757  77.0756073
  43.8458786  47.4048347  76.9134903  45.5608635  32.2748070  12.5167551
  45.8352661  33.1476707  12.2356167  45.2226715  31.8624535  11.7218828
  51.9876099  10.4547863  71.4340210  52.2797623  10.0313950  70.6267929
  52.5738564  10.1133614  72.1092758   5.6571846  46.8643265   3.9252422
   4.8363409  47.2458572   4.2364984   5.6937537  46.0029144   4.3410163
  41.0438461  35.6660042  24.7735424  40.2968597  35.0799942  24.6517563
  41.5888481  35.2268181  25.4264774  77.0163422  25.2805519  23.4208374
  76.7326050  24.7556076  24.1692772  77.5034790  26.0073757  23.8089771
  11.8369255  58.9588814  38.2353134  11.6308746  58.2844276  38.8825264
  12.5389004  58.5780144  37.7076721  83.6816254  36.0073357  44.0793953
  83.1214828  36.7226372  44.3807487  83.2829666  35.2191963  44.4483604
  17.0753632   4.1054726  48.8730431  17.8621807   4.2562914  49.3968811
  16.5353909   3.5280311  49.4126930  60.5787506  12.2890291  72.0013809
  61.3859444  12.7927628  71.8968582  59.9080238  12.9467897  72.1849747
  35.9397392  15.5574894   2.8925266  35.9927597  14.6179171   2.7175305
  35.0065193  15.7606792   2.8289282  27.4788799  64.3384018  50.2023392
  27.8933678  64.3242645  49.3396492  28.1999416  64.2014084  50.8167763
  71.2061920  70.4691544  77.7316742  71.3604965  70.4980011  76.7874374
  71.3110809  71.3760681  78.0193253  67.9350204  26.2759132  87.6410217
  67.2510834  26.6879368  87.1131058  68.6579971  26.1360493  87.0294876
  42.1744690  42.4341698  44.2240906  41.8351822  41.7651291  44.8186531
  41.8814240  42.1546783  43.3567734  37.7265472  39.2436485  72.7950745
  38.4558144  39.8456688  72.9433060  37.3879585  39.4852486  71.9329681
  12.4880295  68.3332901  81.5760422  12.4402285  68.2954788  82.5313034
  11.5880289  68.1862106  81.2851868  61.3346481  47.9333725  37.1709862
  62.0463829  48.4452171  37.5552750  61.6421738  47.0278015  37.2109947
  64.7944489  15.6498022  44.7868080  65.7037888  15.8579140  44.5722618
  64.8394394  15.2442741  45.6526909  80.8812180  43.5253983  83.4038467
  81.7376480  43.4954262  83.8303070  80.5098877  42.6554871  83.5508423
  17.3633671  39.4543533  66.3236465  17.1930714  39.0102730  67.1543198
  17.2401237  40.3832703  66.5189819  24.5669365   5.3596635  83.0614166
  24.8774204   4.7260280  83.7082062  23.6127090   5.2977099  83.1043243
   7.8401766  18.7501450  80.5601501   8.5912762  18.2431202  80.8683853
   8.2152824  19.5816307  80.2700500  47.6350021  57.3853188  39.7840309
  47.8195839  57.2946243  40.7188759  46.6927147  57.5479126  39.7406120
  82.3123322  37.7021904  15.4213800  81.3657913  37.6423645  15.5506525
  82.6807556  37.0979462  16.0658798  16.3537674  70.4392853  53.3071022
  16.8218975  70.4799576  52.4731789  15.5005245  70.8317261  53.1221848
   5.0955586  16.7933712  71.7981873   5.1064301  17.2045174  70.9338531
   4.3436894  17.1867580  72.2411041  82.3597107  12.6490669  48.4300194
  81.9158325  12.5074987  49.2661819  82.2016220  13.5712652  48.2280540
  75.7864838  70.4643631  39.0451775  76.7368774  70.5486069  38.9684410
  75.4603500  70.6139832  38.1577759  13.6350851  11.2387686  55.0275421
  14.1185455  10.6212788  55.5763626  13.0451269  10.6894102  54.5114136
  66.6471252  62.6953354  12.4847946  67.0810165  61.8468018  12.5740175
  66.5380783  62.8105049  11.5408258  62.4857826  33.8675652  12.4564314
  62.3811493  34.2936325  13.3071661  61.8085747  33.1912346  12.4423761
  23.0032825  48.0152664  89.1259460  23.3019524  47.1509132  88.8432388
  22.6188049  48.4045410  88.3405304  74.1759109  22.3417530  21.0325260
  74.3339920  23.1309109  20.5143833  73.5337067  22.6110687  21.6892452
  33.2395554  68.6129532  13.9973230  32.2996941  68.4898605  13.8641510
  33.4124870  69.4990768  13.6793423  28.4578800  62.1571579  59.5934906
  27.9662571  62.7555161  60.1560783  28.5258274  62.6167183  58.7565804
  57.2484550  65.6383514  56.7048721  56.8119774  66.4466324  56.9739494
  57.0142479  65.0030136  57.3814240  78.8128815  44.8837852  23.9848537
  79.3980560  44.7182198  24.7240314  78.6170044  44.0145798  23.6350727
  69.9702988  55.4751091  52.6347389  69.1022797  55.0748978  52.6857758
  70.3482590  55.1253052  51.8278847  39.2150345  59.0104294  34.2859268
  39.2363968  59.8018990  33.7480164  39.8974228  59.1487617  34.9427719
  59.7556648  26.6631737  30.1334095  59.5521889  25.7285137  30.1686077
  59.2220497  27.0507565  30.8271427  82.4333649  65.1766052  46.2363167
  82.3234787  65.5087814  47.1272812  83.3016205  65.4811859  45.9725266
  52.8361664  52.6584015  19.4805908  52.3693504  52.6412773  18.6451149
  52.4995499  53.4352570  19.9271564  59.5482674   3.2901943  76.3324051
  58.7835274   3.8573713  76.4309692  59.5178375   2.7124376  77.0949707
  35.5296516  47.9252472  13.4121943  34.9620819  47.2475166  13.0450745
  36.0989838  47.4562759  14.0222435  17.9472313  11.1358566  12.4132509
  17.7300911  11.7834425  11.7426424  18.8411961  11.3542900  12.6765928
  85.7708893  15.8556433  57.6329727  86.5336609  16.1319866  58.1409531
  85.9150772  16.2275276  56.7628326  45.0278320   6.2730722  45.2183418
  44.8767128   5.7115030  44.4580574  45.1093712   5.6648378  45.9529381
  31.3465824  46.5072708  66.6587982  31.6437321  47.2676849  66.1590958
  30.4549313  46.3500900  66.3481827  69.5274353  37.7141342  84.0650406
  69.5840683  37.3657951  84.9548035  68.6384048  38.0629768  84.0005341
  66.8336639  62.5979805  77.1491776  66.1382751  61.9756737  77.3622437
  67.1880569  62.2853661  76.3167648  21.6625671   4.8452749  77.9022980
  21.1906033   5.6086965  78.2349701  21.0780087   4.4707322  77.2433319
  42.9622459  41.6953964  55.3776855  43.2451973  42.4085846  54.8053780
  43.5443192  40.9676247  55.1591339  61.4769096  38.9518929  53.4484100
  61.5605545  39.0258026  54.3990822  61.0696678  39.7752113  53.1790810
  77.1219940  13.1591682  48.8195305  77.9806900  12.7628450  48.9671707
  77.1922379  13.5685740  47.9571571  66.9145966  34.5606422  75.1707916
  66.5566406  34.4871788  76.0554962  67.0246964  33.6550293  74.8810043
  66.1170883   2.1264346  23.5572376  65.6693878   2.9289815  23.8250332
  65.5455475   1.4208647  23.8601265  35.8883209  43.7068710  51.2378693
  34.9795532  43.5606499  50.9751930  36.3938828  43.0960999  50.7015877
   0.8840721  33.2953758  56.5669899   0.1523270  32.6933861  56.4313812
   0.9188541  33.4202919  57.5153694  83.7423553   8.3743525   8.1749897
  84.2773361   8.6703987   7.4385247  82.8820496   8.7634211   8.0177402
  48.8821106  38.3644066  51.9320869  49.7731552  38.0980415  51.7055550
  48.8246613  38.2285881  52.8778610  42.6458015  19.6957684  59.1466103
  43.3903503  19.2887230  59.5895462  42.4236717  19.0865288  58.4425392
  86.6430893  25.4263535  43.5913429  87.0858078  24.8159657  44.1809692
  85.8515778  24.9630909  43.3172455  28.2453575  37.6213799  22.5602093
  27.3650417  37.2455139  22.5602341  28.7294922  37.0974846  23.1984730
   1.2160097  34.9129486  76.7345428   0.7411807  34.1686287  77.1043472
   1.9158863  34.5166397  76.2155609  59.2709694  43.1663437  59.4869576
  58.5656357  43.3500061  60.1074448  59.0864983  43.7350464  58.7394447
  70.5536652  47.9357147  23.7940922  69.6618271  48.1761322  24.0451889
  71.1081390  48.3454552  24.4581013  82.6982498  10.8769798   0.5860095
  82.3905106  11.4113455   1.3181179  83.6526718  10.9318199   0.6340174
  41.0199776  53.5402184  61.0590248  41.1725044  53.3561592  61.9858971
  41.1954994  52.7091293  60.6177559  14.5796375  60.6481056  42.6633186
  13.7383871  61.0965843  42.5773163  14.6095695  60.0498810  41.9166832
  28.0254440  63.0955963  64.2408600  27.2722588  62.5081749  64.1785889
  27.6639042  63.9131622  64.5830612  74.8928146  29.6400928  37.0651855
  75.2582016  29.9151421  37.9060631  73.9738007  29.4503441  37.2539482
  35.9353027  33.7477913  20.5959148  35.3055840  33.6023102  21.3019733
  35.4261131  33.6333809  19.7934990  67.0104446   8.9282513  21.0799313
  67.6231918   8.8368998  20.3502502  66.2145309   9.2805758  20.6816540
  53.9471321  29.5195217  20.3914528  53.1351585  29.7374592  20.8490944
  54.1440353  28.6240234  20.6663074  38.0662079   7.4954419  69.9015884
  38.6394501   6.9533739  69.3595657  37.7977028   6.9190311  70.6170502
  44.0173607  69.5398407   0.5562024  43.0725594  69.6372528   0.6749364
  44.3850975  69.6918793   1.4267685  51.1885338  36.5209694  84.5676422
  50.6356049  37.0638313  85.1296082  50.6812515  36.4150772  83.7628555
  61.6698952  54.3250732  75.6639938  62.0984802  54.8519592  76.3384857
  60.9323463  54.8616524  75.3735886  85.5461731  45.5493088  77.6959763
  85.3887863  45.0314140  78.4854355  86.0327759  46.3138351  78.0041199
  80.1255493  27.4915752   2.8801343  80.8427582  27.5571823   2.2496276
  79.4124527  27.0822945   2.3900099  31.5709286  51.8086815  66.8154297
  32.5173302  51.7391815  66.9408264  31.3134117  52.5613251  67.3478241
  49.9222908  65.8678207  80.9159317  50.2878532  65.1241074  81.3949738
  49.5808525  66.4470673  81.5971985  22.2122116   6.5605712   0.3641998
  22.6145229   6.7706256   1.2069662  21.9543743   5.6422243   0.4441420
  28.0946445  35.0205498  80.6790543  28.6032085  35.7803116  80.9625320
  27.4727440  34.8695030  81.3908539  70.6924667  49.5736008  81.2135315
  69.8503952  49.6752281  81.6571655  70.5352325  48.8991051  80.5528030
   4.0657654  44.0846786   7.8923416   4.0881739  44.0971909   8.8491974
   3.3866930  44.7181435   7.6603637  12.3048706  35.7669945  19.1558208
  12.3375330  35.2745781  18.3356438  12.8185987  35.2429810  19.7704124
  63.9511185  21.0396538  82.3633728  64.2718277  21.8318787  81.9323730
  64.3219070  21.0797634  83.2449265  59.9082489  62.0755577  27.6724968
  59.3012924  61.6122437  28.2497082  59.9185295  61.5556946  26.8688374
  52.2422943  42.8779259  83.7404327  53.0408516  43.3883781  83.6063538
  52.5103302  42.1601830  84.3142166   5.3249254  71.2683411  27.0756378
   5.7211976  70.5677643  26.5575790   4.6585045  71.6440506  26.5003452
  78.5436935  40.9377785  63.8949585  78.2434998  40.0291977  63.9192467
  78.0510559  41.3715057  64.5916748  40.0449028  26.2399788  83.6337433
  39.7269020  25.9804764  82.7690048  40.5158920  27.0589600  83.4798889
   7.7456813  47.9800034  37.2315598   7.9136553  48.0943413  36.2961769
   7.0085092  48.5622368  37.4154472  54.9345360  43.0347290  87.6681290
  55.2920799  43.8986511  87.4631195  53.9889641  43.1345100  87.5578156
  45.4853706  56.6268196  38.1225624  44.9368629  57.4110107  38.1021881
  45.0070114  55.9861984  37.5962486  18.3909874  70.9108047  26.5237408
  19.2639656  71.2714462  26.6789036  17.9688053  70.9275055  27.3826447
  52.8800697  40.1960793  13.8539019  52.0260162  39.7913551  14.0056343
  53.2674561  40.2719917  14.7259111  43.1425552  56.6604652  78.5003052
  44.0730247  56.7580261  78.7026367  42.8315125  57.5556946  78.3659592
   5.1436682  43.5405960  38.0336037   5.6457205  42.7694168  37.7700539
   5.6021471  44.2755470  37.6263313  24.4046478  63.5661583  68.5762253
  25.1217575  64.0072556  69.0316544  24.2612095  62.7629051  69.0766678
  58.8126259  14.9184599  15.2439413  58.6478195  14.2593870  15.9182501
  59.5830688  15.3930235  15.5560932  33.8449821  51.5358582  73.3029480
  33.5236397  50.6601639  73.5177307  34.2604485  51.8428612  74.1087799
  74.6056290  56.0135498  13.6934032  74.5087662  56.8337097  14.1773329
  75.5507889  55.9117012  13.5814476  18.5215225  54.5872650  66.8171692
  18.5605927  54.5774117  65.8608246  17.9196205  53.8770103  67.0396271
  19.5310936  55.7135391  10.4310732  19.2536201  55.5988960   9.5221739
  18.8017025  55.3729134  10.9489498  17.7828026  62.4294739  59.8621101
  17.2034225  62.8217354  59.2089005  18.4401436  61.9602966  59.3482933
  71.3985214  62.2395287  38.8352547  71.3511429  61.8009338  37.9857750
  71.5185623  63.1646385  38.6208000  33.1859627  16.3317280   3.0089517
  32.7632866  15.7979136   3.6817207  32.9281273  17.2294216   3.2184746
  43.8711014  29.9172668  69.4998627  43.0466995  29.4346199  69.5602188
  43.6136284  30.7979736  69.2272873   0.4181987  60.6786690  44.3644180
   0.9349826  59.9760933  43.9700165   0.3553790  61.3436584  43.6787949
  30.6969986  47.7703438  61.1154060  31.3141022  47.9790649  61.8167267
  30.5505714  48.6043854  60.6691284  83.2773285  56.4920654  33.3442879
  82.6478500  56.9341087  32.7745667  83.3832550  55.6236534  32.9558601
  46.1546288  59.4055405  59.8397179  46.1442375  58.4532585  59.9360504
  45.5962181  59.5756454  59.0811195  27.5465164  35.4937630  27.6617966
  27.1913586  36.0596771  26.9763508  28.2760353  35.0379524  27.2419510
  54.4859352  31.1286106  66.2187881  54.7684860  31.9859486  65.9003983
  53.6075211  31.2802200  66.5675583  46.2736435  47.8768806  58.3732300
  46.6391487  47.8571854  59.2576790  45.5508118  47.2499046  58.3987694
  50.7829208  25.1594982  76.3692856  50.0140877  25.4459858  76.8622894
  51.1780739  25.9704590  76.0492401  83.8112564  17.4446239  49.3734360
  83.4718552  18.3343220  49.4707756  83.0306625  16.8908463  49.3580170
  33.1175804  19.5094223  73.4328461  32.5619659  20.0216942  72.8453903
  33.8922043  19.3024807  72.9100037   7.3028097  32.0622177  67.8919754
   8.1969662  32.1424751  67.5598984   7.2746596  31.1954155  68.2970657
  69.2894135  27.5620956  76.1286774  70.2021866  27.6284790  76.4091415
  69.2776337  26.8189869  75.5254517  74.9001236  50.7716560  82.5420837
  74.8837967  51.0548553  81.6278839  74.0656815  51.0732689  82.9011993
   6.0967555  43.0092850  59.0449219   6.2192221  43.8916931  59.3950462
   6.0171514  42.4530449  59.8198357  31.6400986  47.9932022  10.0155954
  32.5232353  47.7817268   9.7129736  31.7755642  48.5913124  10.7505426
  70.7234192  50.3726540  14.8875608  70.2131729  50.8627396  14.2428160
  71.1990891  49.7215500  14.3717794  85.2304077  30.2855587  46.8962288
  86.0949478  30.1981831  47.2976837  85.1462097  29.5124226  46.3381958
  24.2009354  53.7380714  23.8990536  24.7499542  53.9272346  23.1381149
  24.1192894  54.5782738  24.3503017  80.3530655  17.0503826  41.3111153
  80.1358414  16.2430935  40.8449287  81.0543747  17.4449883  40.7927666
   3.1697001  29.5223198  63.6725922   2.4775481  28.9356937  63.3675919
   3.9754589  29.1471596  63.3172913  85.4324799  34.9478798  75.0669785
  86.2179260  35.3398819  74.6853409  84.8469086  35.6887131  75.2235031
  74.2836227  62.7436981  45.2356911  73.6730576  62.4380379  44.5648613
  75.0289001  62.1465073  45.1712265  29.3534126  27.8024559  70.2423706
  28.4904499  27.7976780  70.6565018  29.2017117  28.1824970  69.3770447
  63.2656670   5.1749868  31.4402065  62.9406128   5.4445777  30.5811996
  62.9349060   4.2838063  31.5525723  33.3964653  53.2302322  87.7084045
  33.1809044  52.9000740  88.5806198  32.5683327  53.5703049  87.3696136
  46.4518509  34.7797089   8.0677710  46.2989159  34.9477577   8.9976101
  46.5616074  33.8305283   8.0108089  80.6998672  36.3265343  60.1029930
  81.1789322  35.5214691  59.9065285  80.3634338  36.1947975  60.9893837
  57.8445473   1.1804130  75.2076416  58.7325020   1.3317636  74.8838120
  57.5879555   2.0141482  75.6016922  34.2259483  59.9786301  37.4260139
  34.3463783  59.5767479  38.2863731  34.1709518  59.2384987  36.8215179
  52.9830246  66.0477600  88.5138245  53.6556740  65.4908676  88.1218567
  53.0256157  65.8520660  89.4498367  48.8356514   7.2610769  11.0657015
  48.1514130   6.6504812  11.3399715  48.6793709   8.0469151  11.5894070
  23.4611645  64.3471909   1.2913965  23.9242191  65.1453400   1.0368798
  23.4102650  64.3939209   2.2460992  20.8769264   0.2706248  60.0627861
  20.6278553   0.8711317  60.7653427  21.4838619   0.7746981  59.5207787
  38.7963867  39.9637947  68.0689621  38.2459145  40.5972328  67.6085587
  38.6889114  40.1814461  68.9948730  28.8599529  14.4361343   3.3037794
  29.1364288  13.9812775   4.0993285  29.5141087  14.1923590   2.6488848
  48.2818871  35.3266106  41.7281456  48.3221245  35.5944405  42.6462326
  48.9613342  35.8452606  41.2973480  12.6430588  56.5048027  31.8019314
  11.8844624  56.2562180  32.3301086  13.3791494  56.4797668  32.4133034
  14.9532013  71.2451172  79.7649384  14.7839041  71.4353180  78.8422241
  14.6616583  72.0300827  80.2286987   4.9547529  59.0894165  18.8857136
   5.6571922  59.2788239  19.5077553   5.1807728  59.5981255  18.1070213
  75.3964844   4.8845181  60.2264290  75.2283096   4.8127036  61.1659966
  75.4475937   5.8263745  60.0635567  86.5275497  34.6808281  80.0582047
  87.4135056  34.3283386  80.1422958  85.9841003  33.9181061  79.8603439
  52.5856056  11.3280354  68.0082397  51.8151436  10.8470259  68.3103256
  53.3165817  10.9314766  68.4822159  15.0188122  24.0409393  11.0499678
  15.2926369  24.2867870  10.1663332  14.2964430  23.4276047  10.9149246
  36.0350189  53.4144135  75.1290970  36.0590935  53.5970192  74.1897888
  35.6837692  54.2145805  75.5197296  58.3483925  63.3380585  44.2085457
  58.0303116  63.7335243  45.0201263  58.6095200  62.4521828  44.4600677
  28.7516804  31.5294514  11.9095812  29.2004719  31.5914230  11.0663872
  28.1075802  32.2372704  11.8906755  70.0811234  37.7256889  53.8351402
  69.4879761  37.6937294  54.5857353  69.8152313  36.9865723  53.2881165
  61.8746223  16.2196426  53.4090652  61.8885269  15.2854834  53.2007790
  61.5573502  16.6387062  52.6090927  37.1576691  64.0283585  38.2483635
  37.1865501  63.7030792  37.3485909  36.2422180  64.2718964  38.3857384
  78.5335693  30.1250362  47.5543976  78.6723633  30.2608490  46.6171036
  77.7444077  29.5855904  47.6039734   6.2496076  59.0692978  61.9542007
   6.2868299  59.9512100  61.5839615   6.3715267  59.1990280  62.8946991
  50.4990158  24.1479301  41.9400139  50.0742950  23.5580177  41.3172379
  49.7750893  24.5592804  42.4121971  74.8610916  25.9211636  14.7687683
  74.3923645  26.4713993  14.1412611  74.6422272  25.0253639  14.5121126
  70.3137054  70.6036987  21.9882946  71.0517578  70.2396469  21.4994392
  70.1487732  71.4519424  21.5765667  66.1327820   0.3253458   4.6892924
  65.7839050   0.8023410   3.9363055  65.9657593   0.9008436   5.4357090
  83.0192108  19.1593189  42.2503204  82.7063599  18.8126450  41.4147530
  82.8956604  20.1057739  42.1782799  30.1363659  64.3499374  36.5149918
  30.1850910  65.2485428  36.8411331  29.3651867  64.3423996  35.9480171
  36.6984482  42.8132324  64.4523697  36.2204895  43.4738808  63.9510460
  37.6145477  42.9427834  64.2070007  17.2130146  14.4481487  77.2826614
  16.9112492  13.8924589  76.5640717  17.2683582  15.3242188  76.9009933
  21.5328903  44.0270157  57.8851852  20.8533401  43.3610344  57.7807159
  21.1114044  44.8434372  57.6167984  39.2344017  16.4237995   9.0672808
  38.9866867  17.3352222   8.9117975  39.1996613  16.0152607   8.2023401
  55.0358696  43.7475815  80.3453903  55.3955154  43.0383339  80.8781662
  54.4592667  43.3086624  79.7200012  13.8840141  43.3062820  71.2375641
  13.1947584  42.8969154  70.7145157  13.5085897  43.3770447  72.1152191
  11.7392988   0.6098657  67.6570206  11.2202778   1.0053945  68.3573074
  12.4599876   1.2240348  67.5168915  36.8145370  57.7106934  24.4442577
  36.1697273  57.7217407  25.1515980  36.2926064  57.7624626  23.6435432
  23.0183105   8.7236147   7.4383736  23.9680252   8.6074724   7.4663672
  22.7127247   8.4033031   8.2870493  71.2149887   0.5038360  12.9852171
  71.0021210  -0.3506318  13.3604565  70.4352570   0.7472602  12.4862232
  69.1912384  58.3977737  52.8841934  69.3525238  57.5975037  52.3844109
  68.9552994  59.0491829  52.2237167   5.6114435  15.2493095  84.1498795
   6.4082150  14.7399101  84.0018921   5.4340458  15.6667681  83.3069687
  72.3246384  20.5212040  71.3169937  72.2120667  19.6047344  71.5692673
  72.2131958  21.0095749  72.1326599   0.3620827  19.2674904  72.1740570
  -0.5453299  19.2953205  71.8706436   0.7669539  20.0452671  71.7901611
  72.0255966   9.4425154  87.7073441  71.8909836   8.6876249  87.1344147
  72.3219986   9.0648632  88.5354538  61.1090736  68.2104645  58.3308334
  60.9887543  67.5347977  57.6635780  61.9354248  68.6333237  58.0972252
  77.2477798   6.5637994  47.2311783  77.1334534   5.8593850  47.8691139
  77.2405548   6.1216297  46.3822594   0.5811037  12.3034229  83.7402496
   0.1851415  12.5175905  82.8955154  -0.1390602  12.3732510  84.3669281
   5.7402945  48.4951134   1.7827348   6.3293452  49.2333069   1.9386842
   5.9510174  47.8698883   2.4762213  10.1225681  65.6611481   2.1212275
   9.5812683  66.1003418   1.4652307   9.4981918  65.3449707   2.7742362
  26.3415833  65.0423431   3.8464401  26.7448959  65.6059570   4.5066719
  25.5976410  64.6414032   4.2959156  50.0374413  70.4474640  11.4925251
  49.8831635  71.2908096  11.0668526  50.9093666  70.1858063  11.1966963
  32.1609955   7.3144827  84.7815628  32.4408035   6.4920673  85.1835251
  32.5000000   7.2715726  83.8874283  72.5117264  10.4331617  71.9118576
  72.4393539   9.7839861  71.2121658  72.8271713  11.2235136  71.4736023
  17.8631859  38.5819550  16.1738930  17.4017925  37.9728355  15.5974197
  18.5628090  38.0584984  16.5647278  34.4405251  46.9758415   7.7104869
  34.7083168  46.2030296   8.2077637  34.6787300  46.7729492   6.8058724
   9.4136763  48.8310966  63.9963264  10.1568174  49.4248505  64.1032410
   8.8119001  49.3019676  63.4198036   7.4891310  38.6579819  77.8713989
   8.4108171  38.6666756  77.6132355   7.3769207  39.4574089  78.3857498
  86.2938080  12.9253750  13.4164619  85.5105515  12.4417181  13.6788092
  86.2172318  13.7671013  13.8657560  24.4398289  43.6595421  66.9038925
  24.4857159  43.1564407  66.0908661  23.6711693  43.3129539  67.3569641
  32.1551933  32.6121788  89.0001221  32.9449539  33.1287231  89.1604156
  31.5256138  33.2406197  88.6466675  16.8948612  67.7502060  53.6802483
  17.3271084  67.9960098  54.4981537  16.3690262  68.5155258  53.4478378
  66.1126480  32.8962135  85.8228760  65.8976746  33.6863060  85.3271255
  66.4849167  33.2216148  86.6424942  75.1366196  46.9150658  30.8206272
  75.4645081  47.0394859  31.7112694  75.8266907  47.2691765  30.2597008
  63.7946548  66.1940384  41.6076736  63.6111946  65.9677124  40.6958885
  63.1282997  66.8435745  41.8319626   3.1679022  54.8556824  22.2807312
   3.1249444  54.0002098  22.7079964   4.0739765  54.9283562  21.9807663
  52.2823219  16.6187019  46.7742996  51.5906792  17.1208172  46.3433228
  52.4548798  17.0962620  47.5857162   8.5777159  63.1243591  49.9505272
   8.5482321  63.3014565  49.0103149   9.4901867  63.2790146  50.1948853
  29.7622776  46.3727264  35.3139191  29.6845951  45.5555458  34.8215637
  30.0583286  47.0142326  34.6681175  12.4357529  59.2003555  27.1473541
  12.4061670  60.1557045  27.1989841  11.7620115  58.9063835  27.7604465
  45.0122032  42.1935005   0.9495620  45.9205360  41.8955498   0.9006428
  44.6117973  41.8751030   0.1405329  24.8710060   2.5204363  26.0912113
  25.2769299   2.6854677  26.9422245  23.9629173   2.8027966  26.2002048
  18.8288002  54.1721230  42.7879333  19.4502296  54.3966522  42.0953712
  18.5190735  53.2963219  42.5571136  28.1348267  46.1548386  37.4548111
  27.7721119  47.0406494  37.4517975  28.7430420  46.1425591  36.7157860
  57.0586395  20.6114864   7.2448206  56.6244125  21.4545803   7.1149340
  57.4717484  20.6848679   8.1051626  74.7695694  14.9660931  23.4601345
  74.0415192  14.4517984  23.1113091  74.7182388  15.8006144  22.9941177
  66.9227066  64.9848557  81.6222153  67.7433853  65.4230270  81.8474197
  67.1943054  64.1739731  81.1921692  81.5894089  68.4360809   9.2432556
  82.1263351  69.2284698   9.2354269  80.6881561  68.7571487   9.2133865
   1.6165214  11.9882088   3.9496884   1.6251597  11.1518202   3.4842741
   0.7316350  12.0533438   4.3088059  52.1174355   3.7241492  71.0134125
  51.5189209   3.9866195  71.7127838  51.6948166   2.9669502  70.6081009
  14.3263407   2.1325741  84.3159409  14.2382793   3.0852780  84.2870941
  14.3612623   1.8673289  83.3968887  65.8678131  62.4989243  42.7516975
  66.0863571  63.2931557  42.2641830  66.5006180  61.8488121  42.4465027
  75.0525742  27.9553642  53.4570732  74.3095932  28.4346066  53.0902748
  75.6677475  27.8729706  52.7283707  42.1652718  30.4931259  25.9912567
  42.7457924  29.9773426  25.4316177  42.4111671  30.2468567  26.8829517
  19.0524273  46.8084564  74.3829346  19.5622425  47.5553818  74.0692139
  19.5377045  46.0420036  74.0774994  14.8493690  25.2797146  81.2310257
  15.1811008  24.5774269  80.6715775  15.4057865  25.2490234  82.0092850
  56.8932228   8.8098183  67.8472595  57.8329582   8.6815844  67.9764404
  56.6108818   8.0365486  67.3588257  77.7405472   2.6586084  12.7957125
  77.8083725   2.7741456  11.8479347  76.8290939   2.8696191  12.9981012
   1.0500300  30.7789059  18.0069923   0.5870542  30.5187683  18.8033676
   1.4156846  31.6392574  18.2127228  25.9441242  31.4928856  14.6376066
  26.7889385  31.0893288  14.8367615  26.0435371  31.8296528  13.7471371
  16.1580753  66.7012634  82.4127808  15.9971657  66.3442001  83.2861938
  16.7431469  67.4440536  82.5617523  23.4903698  43.7433128  77.3322525
  23.2670670  43.8913460  78.2511902  24.1777000  44.3831482  77.1467133
  85.6494293  43.2003555   9.9483213  86.4901047  43.2567101   9.4940968
  85.6282959  42.3118210  10.3036985  73.7828140  37.8156204  51.7429390
  73.3665619  36.9627609  51.6180344  74.3588867  37.6927643  52.4974442
  11.1881943  68.3284454  63.9386177  11.9678288  68.1654358  64.4694977
  11.0568066  69.2751694  63.9904175  80.0011063  24.5257931  20.2391109
  80.1515198  23.5897045  20.1074047  80.2948685  24.6918793  21.1348534
  79.5378189  34.0717049  43.4390221  79.6554794  33.6259651  42.6001511
  79.7371674  34.9892006  43.2527657  45.7926521   5.6059813  24.3542767
  45.8933372   5.1296711  25.1784267  45.2601471   5.0284367  23.8073673
  40.2044220  29.4811821  15.4870892  40.8710823  30.1013241  15.7824173
  40.1042328  29.6640892  14.5528841  57.9277763  38.1368141  54.4875374
  58.4749527  37.8591881  55.2222176  58.0146599  39.0899200  54.4709358
  13.2362757  63.5873718   5.2230096  13.9144964  63.8732376   4.6110229
  12.8183002  62.8445435   4.7874279  48.4042168   2.1484752   3.4834051
  49.2470779   1.7108755   3.6030877  48.3448792   2.3001087   2.5401566
  57.2267876  46.1652679  28.8020668  56.5189667  46.5062294  28.2552891
  56.8836670  46.2116356  29.6944523  35.1027794  60.3671875  15.1896524
  35.3432121  59.6068192  15.7190523  35.9364357  60.7029686  14.8602552
  56.0305519  65.8334579  40.3564949  55.9545059  66.4494247  41.0852165
  55.7339516  64.9979019  40.7172050  61.2004128  33.3184204  70.0645828
  62.1411972  33.1736870  70.1656189  60.8042297  32.8317528  70.7873688
  29.3411388  42.5191269  59.5783501  29.4720840  42.8525772  58.6907158
  29.8317719  43.1230164  60.1358719   8.2991419  32.9812546  61.3392601
   7.8785610  33.2995377  60.5404816   8.5596924  33.7755432  61.8055763
  50.3152237  26.8834171  28.8836517  49.5753212  27.2486763  29.3687973
  50.5954208  27.5923157  28.3047009   5.1064095  48.5000343  24.4286633
   4.6809287  48.8113632  25.2275829   5.3211408  49.2977676  23.9451942
  44.7980003  43.6469917  34.5746880  45.0028725  43.8329697  33.6583481
  45.1779976  42.7831116  34.7345085   2.0468032  41.5660667  75.6444016
   2.3675292  42.3926086  76.0052261   1.4400156  41.2350731  76.3065872
  42.8196793  69.7418671  42.6556892  42.6014442  70.5374527  42.1702499
  42.0922508  69.1456680  42.4778709  57.7064590  65.0560379  87.7688828
  58.2766113  65.4605179  87.1150055  58.3054504  64.7332382  88.4421158
  72.7096710  11.6276894  34.4905663  72.9680023  10.7390718  34.2459106
  73.1845093  11.7998695  35.3036499  11.9801779   6.9385185  80.2221832
  12.1987209   7.0135231  79.2932892  12.0021019   7.8387132  80.5468369
  86.0802841  18.1415482  47.8094063  86.1913528  19.0811596  47.9544182
  85.3985062  17.8824711  48.4293137  24.8662663  18.0828304  66.7460938
  25.7218113  17.6750011  66.8800659  25.0378647  19.0229321  66.8008118
  70.9706345  67.3995285  39.7050667  71.7981567  67.3101654  39.2323647
  71.2276154  67.6486359  40.5928421  76.1608810  51.1559639  88.7073364
  76.7403564  51.8101730  88.3168793  75.5988007  51.6564140  89.2988129
  60.4742165  46.3283882  69.4144974  59.9446945  46.6928978  68.7052841
  60.2586021  46.8672180  70.1756821  76.3309860  19.6358871  28.7700787
  76.6434174  18.7398701  28.8956547  77.0804901  20.1852627  28.9995651
  39.2276421  30.4562836  79.5683136  38.9224243  29.5843296  79.8188553
  39.0161324  30.5257568  78.6373596  12.4127798  28.3686771  10.2051468
  12.6697502  28.3531933  11.1270790  13.2373791  28.4624634   9.7282066
   8.5773659  50.5873680  22.4762039   8.8563309  50.9168472  21.6218910
   9.3075390  50.0445976  22.7736607  36.4660988  25.6566486  67.9653854
  35.8175850  25.6961231  67.2624588  36.0595093  25.1076202  68.6358261
  36.8533745  53.0254784  50.9088173  36.0726242  52.7317772  51.3782845
  36.5172462  53.5998230  50.2207909  70.7859192  55.6336937  32.9521179
  70.9513168  54.7551231  32.6100807  71.4502792  56.1821365  32.5349007
  77.8180466  45.1603279  80.0684967  77.1272049  44.6764603  80.5210876
  78.3473587  44.4836311  79.6464233  16.1254005  23.3396511  79.6992264
  16.8373661  22.8236980  80.0775528  16.1144066  23.0910816  78.7749329
  41.0708542  32.6905403  73.0634995  40.4485435  33.1406021  72.4921799
  41.4656181  33.3892632  73.5852127  68.2269516   7.9627905  18.9020100
  68.8569641   7.7270870  18.2210140  67.7588196   7.1487045  19.0873470
  76.5018311  33.7811775   0.6409668  75.8581390  33.2038307   0.2304076
  77.1799164  33.1898766   0.9677677  27.1260185  56.0942955   8.3225718
  27.1045303  56.3336029   9.2491264  28.0311165  56.2537041   8.0549574
   8.7681065  53.3486443  46.3022232   9.1869230  52.5505905  46.6246071
   9.4966297  53.9225235  46.0652618  67.4745789  36.4220428  35.5329666
  68.1280518  36.2192650  34.8635750  66.8287277  36.9646835  35.0805817
  36.3751640  28.1711998  19.0194473  37.2948532  28.3806057  18.8564949
  36.1701851  28.6164246  19.8416328  37.3403549  65.8166656  28.5560589
  37.6676559  65.8610611  27.6576519  37.8667412  66.4570465  29.0346622
  19.2843819  62.3986549  23.0853786  18.8143768  61.8521271  23.7151680
  18.8629341  62.2134819  22.2461376  15.2840624   4.2028427  32.0405769
  15.1918516   3.2503588  32.0181274  14.5106211   4.5072289  32.5153084
  42.5724640  64.4098434  59.2888260  41.8658409  63.7760315  59.1655617
  42.4173508  65.0749283  58.6181259  65.8619232  34.7255211  56.4406586
  65.4777145  34.8338432  57.3106461  66.6567154  34.2139702  56.5918312
   6.0332322   8.5645437  80.4690018   5.9712586   7.7700953  80.9993286
   6.4372888   9.2092819  81.0497665  60.2960205  58.6820221   9.9194660
  59.7537422  58.0518799  10.3938990  60.6956558  59.2178040  10.6046410
  67.1754684  43.3406372  22.8762684  67.4114761  43.6810112  22.0133190
  67.2161865  42.3893776  22.7778683  54.1947594  46.7005463  58.0161438
  53.6279259  46.8080978  58.7799263  54.3126831  47.5884094  57.6784706
  44.3732872  61.3103523  16.7011204  44.8142014  62.1593857  16.6700611
  43.7234039  61.3521538  15.9995975   3.4142771  51.4053535  84.1070175
   3.0286193  52.2208900  84.4270172   3.8398573  51.6481361  83.2847214
  42.8903046  58.0592232  59.1947403  42.9605637  57.4021149  59.8872032
  42.5656929  58.8421631  59.6395569  17.3118458  36.9117851  63.3010979
  17.1673260  37.8542404  63.3855247  16.9483070  36.6895638  62.4439545
  70.5598526  40.1047020  86.3880692  70.1459122  39.2947464  86.6861649
  71.2992477  39.8134880  85.8544769  72.6229095  39.6558876  68.8942184
  72.3244553  38.8412285  68.4898834  71.8199234  40.1510391  69.0562973
   1.2474624   7.0963778  88.0648880   1.1728423   6.1713033  87.8305817
   0.3862578   7.3251209  88.4145126  23.4782391   2.7779884  75.1573792
  23.0304394   3.3896425  74.5729294  23.5174522   3.2347720  75.9976501
  36.9955025  21.4948692   3.7243414  37.5420876  20.8745270   4.2066846
  36.2093506  20.9971256   3.4997439  49.8846054  14.9018507  24.2633133
  49.0549316  14.6352768  23.8673229  50.0847778  14.2070827  24.8905792
  49.5309143  53.9957848   0.7364026  48.6685562  54.3890114   0.6024569
  49.8299904  54.3534126   1.5723983  72.4795151  10.2287817  20.9680634
  72.1577377   9.3486023  20.7731857  71.7128601  10.7924671  20.8644428
  46.9969978  28.1600704  33.1419640  46.5358467  27.3324966  33.0052452
  47.1650658  28.1878395  34.0838814  68.8865280  67.3470612  13.3086786
  69.3025131  67.1772385  12.4634857  68.1578217  66.7275085  13.3457594
   7.1176834  28.7937622  73.3662033   7.5141988  28.2414265  72.6924591
   7.2527537  29.6880665  73.0528259  65.6442642   9.4702101  74.4423752
  66.0717087   9.9314213  73.7207031  64.8271103   9.1425762  74.0666733
  82.3108139  46.5067673  73.1581802  83.0037231  45.8967056  72.9053192
  81.5081253  45.9867172  73.1199493   9.9058046  50.5933876   4.3854909
   9.7778559  49.8202171   3.8358874  10.5305853  51.1318207   3.8997216
   1.3756745  22.9232292  59.3099060   0.9372541  23.5228157  59.9136581
   1.2432567  23.3138294  58.4461174   8.6804733  22.2610054  61.9966316
   8.5877953  21.5041065  61.4180603   8.8556108  22.9937763  61.4062042
  27.6744366  61.3925400  41.6537323  28.0675812  60.8968124  40.9354515
  27.8391895  62.3087158  41.4307823  48.7262726  14.7132397  88.7646942
  49.5767212  15.0098953  89.0886765  48.9377136  14.1326704  88.0336227
  83.8996964  71.0259018  33.3256950  84.4473114  70.2465363  33.4202423
  84.5047455  71.7105942  33.0404816  46.4370117  47.3909760  55.2579269
  45.8872452  47.5240974  54.4857445  46.4719543  48.2503166  55.6780968
  39.5047302  41.3629761  75.7036743  39.5160637  40.7036972  75.0098038
  39.8913498  40.9214821  76.4598770   4.1478853  42.6631470  57.1189346
   4.3303714  42.7148285  56.1807137   4.9948788  42.8192329  57.5366287
  28.0903149  59.4650764  11.8004780  28.7990036  60.0528603  11.5387487
  27.3008480  60.0038681  11.7487783  33.2320099  36.5520287  78.6854935
  34.0821457  36.1852188  78.9282913  32.8375244  36.8134918  79.5175095
  14.1669836  63.8905792  66.9005280  14.4126825  64.1311188  66.0072174
  14.8735027  64.2378616  67.4450073  72.4046707  13.4526920  54.0720520
  72.5953522  13.4721298  55.0098686  72.2405930  12.5294046  53.8800888
  33.2054443  62.9190750   6.0464535  32.4535370  62.4800415   6.4440966
  32.9818840  63.8493843   6.0743060  50.6520882  33.8526268  62.6706886
  50.7786560  34.6118698  63.2396889  51.3330345  33.2358627  62.9392815
  26.5314503  54.7829285  39.0834999  27.3072567  55.1614189  39.4971428
  26.0959053  54.3013496  39.7867889  64.6913528  11.2737160  48.8517036
  64.1075592  10.5727224  48.5618286  65.1481781  11.5490026  48.0568657
  51.7935257  15.2701082  32.7415504  51.5404778  16.1344986  32.4174728
  51.6102066  14.6778030  32.0123062  81.9980469   1.1048465  39.4838257
  81.0430298   1.1203902  39.5464706  82.2666397   1.9984950  39.6970901
  23.9746723  58.3201408  37.1539688  24.3354778  58.0187263  36.3201828
  23.3237915  57.6579857  37.3866425  37.4775772  68.5840454  13.3148489
  37.4431190  69.1192932  12.5220356  36.8601875  69.0035477  13.9140759
  18.5150509  54.5521355  50.8930779  18.7417603  53.9636726  51.6131821
  19.2872295  54.5470390  50.3274422  50.2528458   6.9897819   4.5788026
  51.0752182   7.1265759   5.0491486  50.3369255   7.5239859   3.7889996
  39.9923058  10.4386444  68.2004700  39.1257019  10.5865698  67.8218460
  40.4934502  11.2190905  67.9638519  23.3887577   0.2319014  72.0631638
  24.2557678   0.0600405  71.6957550  23.3616562  -0.2880073  72.8664017
  81.7649384  14.9324522  49.9886055  81.6166077  14.6947355  50.9038773
  80.8893890  15.0991220  49.6395111   3.9172204   3.8966019  60.9737930
   3.3032951   3.2553415  60.6158638   4.7621984   3.4468977  60.9706764
  73.4385681  10.5833082  47.8963585  74.0069199   9.9324732  47.4845085
  72.7046204  10.0756092  48.2424698  14.4465046  60.3892746  81.7514496
  14.2140980  59.5156212  81.4368896  14.0693645  60.4356956  82.6299896
  36.8483238  46.5260582  70.8349686  37.6712646  46.9365005  70.5693817
  37.0107460  46.2189827  71.7269135  -0.0167838  15.1559668  61.2276497
   0.5893918  15.7403965  60.7724304  -0.1382141  15.5591831  62.0872421
  61.1119576   2.8872368  37.3174057  61.8930054   2.4213846  37.0187836
  61.3306274   3.1785681  38.2025871  55.6111755  61.0760994  69.2590561
  55.1103210  61.8776054  69.4105911  55.0933075  60.5873909  68.6193619
  64.2538834   0.8129014  50.8232765  63.5655594   1.3421547  50.4203758
  65.0681915   1.2525488  50.5786400  41.2745514  68.7094879  22.6602192
  42.0605812  69.2365723  22.5167770  41.2210350  68.1445541  21.8893642
  86.0565872  50.4532890  41.7688942  85.8123779  51.3624954  41.5958672
  86.9627838  50.5024567  42.0732346  81.0840683  62.2683754   7.7620964
  81.2393646  63.0633354   7.2520461  81.3374176  62.5032387   8.6547804
  75.4697952   1.1000113  50.8178520  74.9138718   1.8625439  50.9782410
  74.8884964   0.3496100  50.9412041  51.4265823  13.4827862   5.2308707
  51.4053192  12.5761766   5.5372033  50.6613541  13.8905916   5.6362762
  21.5124683  16.4770279  71.1772156  20.8261757  16.6399536  70.5301590
  21.5655098  15.5230503  71.2350616  75.1864166  14.2047873  39.8768311
  75.7720413  14.5811176  40.5338364  75.1490021  13.2734623  40.0946999
  30.3063869  67.0841827   1.8062067  31.0870209  66.5750732   1.5879052
  30.1526279  66.9012909   2.7331042  13.9543629  64.2713623  73.3811874
  14.4969358  64.7199478  74.0297318  13.3561592  63.7336388  73.9000702
  50.3871307  12.4191732  36.0899658  49.5754509  12.2039242  35.6305389
  51.0751152  12.2781782  35.4395599   5.2033958  37.2193336  51.8322716
   5.5540648  38.0203819  51.4429283   4.3814411  37.4913559  52.2404709
  82.6640625  64.6096878  66.6358337  82.3924484  63.7610893  66.2860718
  82.1753082  64.6990738  67.4539871  46.0544090   2.1904490  82.3957748
  46.8054504   1.6043868  82.4890366  45.8864784   2.5076392  83.2831421
  64.0470657   7.6002898  53.8854485  63.1745987   7.6808896  54.2708549
  64.3519363   8.5028162  53.7920036  65.1427231  69.7646713  22.6212082
  65.9873734  70.2149963  22.6202374  64.5622101  70.3433380  22.1268711
  60.7438202  41.0000305  28.9934120  60.1156349  41.0486984  29.7139969
  61.4064331  40.3785057  29.2948799  73.8215332  70.8995361  26.5822449
  74.7409973  70.7086639  26.7676716  73.4184799  70.9971619  27.4449444
  23.0669346  64.8924103  37.3043747  22.5972195  65.7115707  37.4611549
  22.6775970  64.5426788  36.5029144  63.6627045  55.0571289  28.5699501
  64.5012054  54.6017914  28.4936581  63.8565903  55.8284073  29.1026535
  10.5554276  67.3720551  71.4638748  10.6117506  68.2460480  71.8501282
   9.6325092  67.1323090  71.5473938  48.3821564  15.3144503  34.0724792
  48.1849327  14.4028368  34.2876396  49.2837715  15.4406528  34.3680992
   6.6228456  31.3386860   4.9029431   7.3001704  31.8437881   5.3527589
   5.7985320  31.7056904   5.2223911  55.8592911  30.4954681  61.5456886
  55.5254593  31.2224483  62.0713158  56.7223053  30.3090820  61.9154167
  34.5964546  47.2041931  81.3189392  35.0128593  47.3376770  82.1704254
  34.9840164  47.8736992  80.7552109  60.6681290  54.3973694  62.5163040
  61.3279190  54.3081665  63.2040176  59.8559380  54.5855980  62.9865646
  37.9464989  43.3754158  48.6766052  38.4716187  42.9263840  49.3390656
  38.4903984  43.3602257  47.8890953  54.6487236  52.9089394  47.2457619
  54.5807762  51.9970131  46.9629211  55.5891304  53.0871658  47.2557907
  85.8003311  51.2940598  81.6668930  84.9012222  51.4323883  81.9647217
  86.2292099  50.8496933  82.3982162  32.7623367  71.2467194  64.6455231
  33.2374954  72.0542755  64.4497681  32.7806320  71.1835403  65.6004562
  13.3102598  32.6976204  78.1334686  12.6360149  33.3178558  77.8561020
  13.7434378  32.4355927  77.3211060  77.9741211  33.8096848  24.2005348
  77.4143677  34.5744019  24.0659485  78.0432663  33.7279053  25.1517239
  70.7946930   1.4331260  88.4290161  70.7898483   1.6181443  87.4898834
  69.9134140   1.1083740  88.6137009  66.1476517  45.1946793  12.7364264
  65.7201004  46.0410767  12.8670044  65.6880264  44.6001701  13.3293304
  21.3639526  31.9365711  24.8848267  21.8990650  31.6350842  25.6189880
  20.5734062  32.2890549  25.2935123  28.9039974  59.0616379  18.5411510
  29.7984905  59.0376701  18.8810596  28.8599606  58.3257103  17.9306602
   7.5600853  45.0999107   8.5958233   7.6030569  44.3507996   8.0015011
   8.2474604  44.9336166   9.2408772  76.2431793  60.4462700  59.9998398
  75.5482101  60.3760834  59.3453674  76.7474518  59.6386642  59.9012680
   8.0416288  20.5649109  72.7641220   8.0700254  21.5084515  72.6055222
   7.4914794  20.4691715  73.5415573  49.5782433  66.2814026  52.3005791
  49.2231102  65.4814453  51.9130478  49.9040527  66.7847977  51.5544739
  67.2395630   8.0536814  86.8895187  66.2847977   7.9859209  86.8816223
  67.4645004   8.3695641  86.0143890  78.3945160  28.6444206  66.7699127
  78.5011063  27.6998463  66.6574402  77.7209778  28.8867970  66.1344376
  22.2518044  49.0543289   3.2556102  22.9081936  49.6384850   3.6352775
  22.6057739  48.8220940   2.3971210  59.5825386  66.8461075  79.3209839
  59.7660179  67.1063919  78.4183044  60.3602409  67.1142807  79.8103638
  30.0346375  39.9745560  45.0860710  30.0398006  40.9152908  44.9093628
  30.9532719  39.7549934  45.2414284  65.5510101  61.4783401  65.4932632
  65.8060837  61.0631485  66.3171463  64.6649628  61.1565361  65.3271484
  74.1166840  67.5383072  28.5289936  73.2773361  67.1541672  28.2756863
  73.9258499  68.4674683  28.6573162  49.1117783  64.9319000  39.5038757
  49.2985878  64.3329239  38.7809906  48.5362434  64.4342270  40.0846596
  20.9036388  13.4928770  71.2391434  20.5927372  12.8640242  70.5879059
  20.2811146  13.4163923  71.9622269  54.2855606  26.7493572  12.8165445
  55.0733337  26.2345428  12.6415710  54.4342041  27.1275826  13.6831951
  24.2096634  66.6535110  42.3753624  24.7443333  66.6741714  41.5816765
  24.5851898  65.9455185  42.8987656  40.0419044  63.6404915  41.6561661
  39.5627937  63.1124115  41.0175591  40.2833672  64.4337769  41.1780243
  19.3151131  57.3339615  85.8881912  19.6736526  56.6199608  86.4153442
  19.6846542  58.1271133  86.2762375  37.1485405   2.8495307  59.9881706
  36.5902863   3.1346292  60.7115631  37.6048203   3.6437924  59.7103348
  85.5285873  60.5446205  58.2957764  85.9022217  60.6911163  59.1647835
  86.1526794  59.9629745  57.8616829  73.0100479  20.9348183  83.4927063
  73.7171173  21.3740711  83.9652863  73.4554825  20.3022747  82.9290543
  82.0132599  27.2643223  34.9055977  82.8130417  27.2914524  34.3803787
  81.4703751  27.9688339  34.5518074  11.5770864  70.4107971  22.1305580
  11.1944284  69.5436859  22.2644234  12.1803408  70.5224075  22.8653088
  33.6324959  56.5373154  20.0360413  33.0556412  55.7969666  20.2240753
  34.4945717  56.1422157  19.9058399  69.2584610  50.3313370  58.3850784
  68.5392914  49.8761139  57.9471245  68.9529419  51.2343254  58.4716606
  31.5080166  65.9499588  70.4930649  32.1140823  65.3940048  70.0033340
  30.8152695  65.3547668  70.7795639  67.3016281  11.4836588  82.8560410
  66.8935013  10.6391506  82.6650772  68.1782684  11.2606792  83.1691132
  21.5798092  54.6353302  12.3849449  20.8913231  54.9148979  11.7815695
  21.9610252  53.8609543  11.9711237  41.5954819  66.6186066  52.7793884
  42.3871078  66.6637421  53.3155975  41.5057411  67.4972382  52.4103584
  49.7809410  27.4388466  24.3805332  50.1030426  27.4740639  23.4798431
  50.5725899  27.3877602  24.9161797   7.4911866  36.6055756  56.2076416
   7.0634298  36.9985085  56.9684715   6.8748183  35.9391785  55.9039345
  42.1550255  50.1909103  21.2973576  41.6869278  50.6658440  20.6106625
  42.9462051  50.7077827  21.4493771  21.2177410  28.6141052  14.0683708
  20.2934265  28.7340870  13.8504744  21.5139771  29.4822350  14.3419161
  18.2807713  41.8415070  47.6501961  18.5734959  41.0670433  48.1305580
  17.3692837  41.9590073  47.9178085  66.4524765  61.0213051  56.3309059
  66.7989502  61.7521553  55.8189964  66.4035263  61.3575974  57.2257462
   0.2791107  62.7195396  60.0676918   0.7035737  62.6427650  59.2131920
   0.8830687  63.2489700  60.5884323  42.5172462  37.9987144  39.7556725
  42.8042068  37.5318604  40.5404854  43.3251114  38.1769791  39.2742081
  55.4097404  47.1399536  62.3293495  54.9280167  47.8883514  62.6815948
  55.9247780  46.8171120  63.0687675  58.3876648  22.2369328  32.0796623
  59.1420784  21.7110672  31.8140373  57.9787216  21.7314034  32.7821121
  77.3467331  48.2070808  29.5639172  78.3020020  48.1577301  29.5993366
  77.1647873  48.8184509  28.8502293  18.1722126  17.6686993  63.9261093
  17.7311707  17.0334091  64.4901352  19.0962467  17.6017189  64.1667480
  19.9162560  47.0571518  82.7194366  19.0110245  47.0359192  83.0298157
  19.8510551  47.3507919  81.8107224  15.4288588  17.9980774  12.6033316
  14.9857206  17.9956322  13.4517736  14.8511610  18.5050774  12.0328503
  46.3743820  14.2566805  86.7836227  46.5732269  15.1120768  86.4028473
  47.2311172  13.8702650  86.9650497   4.6952872  49.5759277  46.7692261
   4.9924664  50.2865257  46.2009239   5.4130211  48.9427452  46.7562332
  84.9134445  43.2690125  41.5508156  85.2443390  42.5235138  42.0517921
  85.2672729  44.0360870  42.0009575  27.2460232  58.8557396  35.5850677
  26.7611122  58.5294609  34.8270226  26.6550465  58.7171631  36.3251877
  19.9529953  28.6523037   6.0560117  19.2553005  28.2057514   5.5763831
  20.5126781  27.9456024   6.3778243  25.5497036  66.8178558  37.2293587
  26.2798042  67.2887878  37.6311150  25.4467888  66.0323181  37.7665367
  45.9795761  49.2096939   7.3443213  45.2349319  48.7531281   7.7358360
  45.9796066  48.9274597   6.4296761  19.5052681  69.1641922  45.7723999
  19.9835701  69.0330734  46.5910988  18.8852348  69.8669434  45.9671555
  82.8590012  11.0631609  77.2151337  83.4829102  10.4326849  77.5749588
  83.1383972  11.1854563  76.3078232  36.8165016  30.9664345  17.8659458
  36.4899292  30.1890564  18.3190060  37.5501175  31.2660675  18.4028454
  58.1691818  31.9125366  56.8691635  57.5773315  32.0275612  57.6126099
  58.6684799  31.1236496  57.0803261  65.0556335   7.8253551  42.7444344
  64.4014130   7.6409636  43.4183960  64.9333038   8.7522373  42.5391121
  15.7168808  51.9897346  44.0757141  16.3924961  52.0794945  43.4036140
  14.9946575  52.5349236  43.7636337  24.5078659  10.0943041  67.5670090
  23.9369564  10.1895761  68.3293839  24.0210133   9.5229092  66.9731140
   9.6345911  21.5432491   1.3764557   9.1079693  22.2116146   0.9380634
  10.5019484  21.6233253   0.9795796  82.0507889  18.7810383  34.5331612
  82.0577698  18.4891453  33.6215820  82.0413971  17.9714813  35.0438118
  51.1941681   5.2003918  73.2667465  50.9581451   4.4274998  73.7797394
  51.1643944   5.9226031  73.8942413  25.1179028  65.2054291  11.6250324
  25.6109428  64.6005020  12.1792994  24.4826374  64.6512375  11.1716595
  75.2484360  20.4833775  80.0969162  76.0206451  19.9180279  80.1141663
  74.6271744  20.0230999  79.5326309  77.2671585  23.7013779  86.1166306
  78.0865402  23.3928242  85.7297974  76.9415283  22.9528828  86.6165771
  59.5640564  44.6692467  29.0007019  58.6884537  45.0051498  28.8090782
  59.7920074  45.0617027  29.8434639  47.9694977  70.6868362  73.4247055
  48.2734375  71.1132126  72.6234207  47.2907448  71.2703629  73.7638626
  20.7741184  16.6683102  11.0007687  20.6910400  16.9466591  10.0887098
  20.0939922  16.0039005  11.1113176  54.3206978  25.3210487  51.2901154
  54.5131493  25.8264809  50.5003471  55.1796532  25.0632439  51.6247253
  35.4565048  13.9360685  86.5296097  35.8248329  13.6619797  87.3695145
  36.2182350  14.1671772  85.9980240  60.8848801  30.8266201  16.2986603
  60.9903030  29.9846973  15.8556185  60.7938576  30.6004372  17.2242889
   5.0798450  28.0393639  81.1921234   5.8830037  28.1968098  80.6957626
   4.9997387  27.0859890  81.2219772  50.9483376  62.5084991  32.4531708
  50.3387680  62.0385017  33.0221672  51.5697441  62.9186287  33.0547409
  30.0133133  34.7916451  33.7525444  29.5799046  35.4614220  34.2814941
  30.0879593  35.1844749  32.8828621  28.6969090  17.2354946   8.3331652
  28.7302856  18.1134472   7.9532728  27.8977890  16.8495312   7.9744573
  60.9561996  47.2025414  62.4892464  61.1259346  46.2694588  62.3596992
  60.0306053  47.3102570  62.2703781  21.8057060  55.8210945  47.1450577
  21.4157124  56.5562401  46.6720886  22.2400265  55.3034554  46.4670830
  50.4684143  48.6930046  12.0289946  49.6962852  48.5844383  11.4737787
  50.6676521  47.8091202  12.3376703   0.5929031  44.9663048  28.8222275
   0.9965498  45.7986259  29.0682945   1.3216566  44.4295158  28.5107708
  86.7536240  39.9967728  71.4840775  86.3423386  39.3193016  70.9473190
  86.8736572  39.5845032  72.3395615  34.2053947  46.0977440  12.0427723
  33.5135918  45.8941116  11.4133501  34.6749916  45.2716637  12.1581268
  69.2599487  29.2423477  23.1066856  69.2078018  30.1654129  22.8587685
  68.7846146  29.1898270  23.9358635  10.0040283  37.3111038  71.9048462
   9.1680460  37.1214180  71.4789581  10.2034206  38.2120857  71.6504822
  23.3150024  53.6009636  20.6725311  22.5490723  53.4015160  21.2108650
  23.8177509  52.7865143  20.6602135  36.4301796  22.1959877   9.2949371
  36.1659164  21.3831558   9.7258673  36.6313057  21.9360371   8.3959351
  27.2980862   0.0310021   7.1950302  27.1359940  -0.0177709   6.2529159
  28.2503948   0.0901402   7.2714691  70.2493134  71.6918488  68.1334305
  70.3115005  70.7416534  68.0360260  69.3096390  71.8661423  68.1869812
  55.4711914  61.1102905   8.6931162  55.3793144  61.7516365   9.3977213
  55.9449692  60.3811264   9.0932198  20.0247612  15.3544865   1.6374512
  19.8238735  16.2760048   1.4741096  19.1704044  14.9234419   1.6599430
  76.0655289  30.2687168  45.2717171  76.8402939  30.8142014  45.1360054
  76.3682556  29.3764706  45.1029434  84.8228683  38.5010529  55.0907135
  84.8781967  37.8741760  54.3694649  85.4830780  38.2043762  55.7170830
  58.4010620  54.6320801   6.3727865  58.8279762  54.3040771   5.5813398
  58.7959595  54.1281128   7.0843353  13.6786470  48.0524216   2.4556949
  12.8984051  48.0438652   1.9012762  13.6931667  48.9310493   2.8352160
  61.6237488  41.8891602  70.9395828  61.7458305  40.9853134  70.6490936
  62.4638824  42.3128090  70.7637100  30.1714840  34.7054749  15.6477098
  30.9983406  35.0935707  15.3614864  30.3035297  34.5189362  16.5772247
  40.8973732   8.5850220  14.5524168  41.0380669   9.5173702  14.7172365
  40.2209206   8.3302774  15.1799078  42.6048584  13.9512329  71.4922028
  42.4234962  13.3312321  72.1985550  42.0901070  13.6287661  70.7524185
  45.4145508  23.2968483  62.0308456  44.6064644  23.4753399  61.5498352
  45.9711609  24.0551777  61.8537827  53.7749672  24.9106083  84.8753357
  54.3035774  24.8123970  85.6672745  53.0804710  24.2585201  84.9685440
  80.6391296  60.1860962  39.6285057  81.0310669  60.9951477  39.9572220
  80.9732666  59.5041237  40.2111702  55.8965034  19.5680065   0.7266090
  55.7680435  19.4163265   1.6629442  56.7852325  19.9172783   0.6602664
  29.2631874  38.7522621  81.0158768  29.9774570  38.8006287  80.3804932
  28.5871334  39.3293114  80.6606293  67.2145920  25.4012356  28.6009388
  67.9509048  24.9120140  28.9680061  67.5771561  26.2636833  28.3985443
  61.2561111  39.4467163  64.2433319  61.1010933  40.1564484  63.6200447
  61.1072769  39.8445091  65.1011429   1.0284094  33.2478828  66.0869293
   1.7657237  32.6451988  66.1837311   1.1869391  33.6881027  65.2518768
  39.7362289  27.2328091  88.5336838  40.0421677  26.6721954  87.8207016
  38.8607407  27.5088749  88.2624969  66.6860809  26.4586334  16.7956028
  67.3340683  26.2236938  16.1314144  67.0693436  26.1600037  17.6203232
  44.9043274  39.7205162  53.9174080  45.0821114  39.8188820  54.8527946
  45.0934944  38.8004723  53.7331085   1.0980496  10.9727736  29.0351868
   1.6773406  10.9452972  29.7966976   1.6907588  10.9841738  28.2836571
   8.1332312  64.0000992  31.8824577   8.5307465  63.1430740  32.0364685
   7.3691826  64.0167923  32.4588089  69.4302063  48.1433830  49.9419098
  69.6406097  47.2117462  49.8785553  69.6725464  48.3833771  50.8362885
  40.2759819  37.4334183  35.9056015  40.0744438  36.8554382  35.1696968
  40.3337402  38.3058739  35.5160904  57.7155151  45.6157684  53.0732117
  57.6606216  44.6685677  53.1998329  57.5323524  45.7440033  52.1424942
  76.2034836  66.6081772   9.8534880  75.7883530  67.1544876  10.5209074
  75.5718079  66.5867538   9.1346273  57.5214424   9.1316252  10.5026789
  57.0792770   8.4492388  11.0077209  57.6987991   9.8239479  11.1394415
  84.0701675  24.6158810  18.3877201  84.2628098  25.5530281  18.4172497
  84.0473480  24.3469963  19.3060951  43.7531929  36.2097702  48.3794708
  43.5449295  35.2883034  48.5335922  42.9833946  36.6848869  48.6923752
  74.6923752  37.4104843  88.3483810  74.3104477  36.9720268  89.1087265
  74.2998352  38.2834816  88.3531036  27.0009670  52.7406006  25.9586849
  26.4984684  52.6180458  26.7641087  27.2099781  53.6746254  25.9465618
  35.4800301  55.1836128  27.4938335  34.7262726  55.2649765  28.0781822
  35.9338341  56.0229568  27.5699978  63.4390869  22.2376823  22.6406155
  62.9739037  22.3058491  21.8068333  63.7659950  23.1220894  22.8054962
  41.9213905  58.0187759  41.9306946  42.0911903  57.9843864  40.9893036
  42.4018021  58.7896309  42.2327194  14.9304810  26.4390068  61.6310158
  15.8253098  26.1168690  61.5226669  15.0356321  27.3395061  61.9380608
   4.2996869  57.4225769  42.5696678   4.9816637  57.3637772  43.2387581
   4.7697377  57.3361397  41.7403259  74.0862427  45.5408936  43.3088646
  73.3418655  45.6370354  43.9029121  73.6899109  45.3910789  42.4505501
  80.6403351  38.6596603   7.8349309  81.2160492  37.9556274   7.5363975
  80.9221573  39.4269562   7.3368711  51.0487709  42.5845947  26.4832325
  50.9749146  41.6394005  26.3513699  51.6020584  42.6756897  27.2589951
  45.7708321  31.1568108   3.7468698  45.3440590  31.9767551   3.4982960
  46.6266632  31.1931610   3.3197157  62.2909088  42.9246216  43.4628067
  62.9627419  43.3423004  44.0017128  61.7863312  43.6534119  43.1015701
  55.7541046  35.0961380  83.7394638  56.5105820  34.5905762  84.0367584
  55.1017036  34.9795609  84.4301224  56.5110054  57.8879814  66.3743973
  57.1609344  58.2880516  66.9521255  55.8729057  58.5831985  66.2139740
  77.7750320   1.7995659  18.7659988  77.2447815   2.5866120  18.6410007
  77.3053970   1.1159741  18.2881069   6.5263562  44.9555016  13.4326839
   7.4329290  45.1897202  13.6314278   6.3510714  44.1903381  13.9804363
  10.3488989  30.7156563   5.0155430  10.8253336  30.5839520   4.1958508
  11.0263252  30.6993275   5.6916037   5.8374562   0.7889070  67.2013779
   5.4518409   1.0089891  66.3533783   5.4937906   1.4519750  67.8000946
  28.9314919  11.2714634  78.3147659  28.8385181  11.3502007  79.2641830
  28.0325489  11.2270947  77.9889374  54.3078766  26.1430168  24.8334637
  54.1444092  25.3192196  24.3742619  55.1795959  26.4106007  24.5423698
  15.4960775  31.9077778  21.4260139  16.1148415  31.2280693  21.1588840
  16.0449181  32.5994568  21.7955914  79.4711838  65.3752441  23.4318295
  80.3086853  65.7632065  23.1782436  79.3674316  65.6108704  24.3537560
  61.7453041  41.2631493  82.3190842  61.7041779  41.5051994  83.2442627
  61.8976707  42.0900879  81.8617096  69.3102951  42.0536499  30.6242905
  69.7459488  42.4666405  29.8787193  69.6464996  42.5226135  31.3880119
  72.9569473  38.2222557  12.8078661  72.1891785  38.2349663  12.2363806
  73.6954269  38.0876579  12.2139215   9.2118273  19.9789658  24.9925117
   9.9924259  20.5270672  25.0730114   8.6571903  20.2427616  25.7266941
  11.9161959  39.3341217  12.8104649  11.8380318  40.1424255  13.3171873
  11.1050425  38.8589973  12.9907990  56.3778534   3.0295534  30.3069420
  55.4919548   3.2461970  30.0162830  56.7703171   2.5756319  29.5611820
  80.5884323  14.8624125  14.9987936  81.3028717  14.7536287  14.3711166
  80.8788071  14.3866949  15.7770014  20.3336868  56.2333488  27.4857426
  19.4793053  55.8031197  27.5198860  20.9031181  55.6006622  27.0479240
  41.5380135  33.0339584  82.3343887  40.6003609  33.2263985  82.3312073
  41.5864143  32.0781555  82.3162842   5.1031885  56.0052109  18.6165352
   4.8492780  56.9281158  18.6134033   6.0326462  56.0132904  18.8451729
  18.2585983  68.2752838  74.3511047  18.5519333  69.1365128  74.6485672
  18.3199768  67.7197723  75.1281967  31.6828136  53.3706665  46.6412621
  32.0454636  52.5893517  47.0587082  31.7426586  53.1906013  45.7030563
  10.2409878  41.5315208  85.0232239   9.6357546  41.2677307  85.7162857
  10.2016468  42.4879112  85.0220871  71.5958710  57.7032280  63.7277069
  70.8372879  58.1393204  64.1157990  71.3423996  57.5460358  62.8181610
  51.1569595  19.2571602  45.8639183  51.9429207  19.2272816  46.4094467
  51.4878845  19.2393932  44.9659157  84.0868530   9.6823988  58.8047295
  83.7221603  10.3803682  58.2606087  83.6974335   9.8232250  59.6677208
  75.8659668  56.7121620  87.9780731  75.2174683  57.1002235  88.5655136
  75.3621979  56.4414330  87.2105103  26.0912476  50.7448883  15.6079283
  25.1684780  50.9209023  15.7916355  26.2801781  51.2549324  14.8202782
   1.4676462  46.3210487  52.6585350   0.7658151  46.9107094  52.3829193
   2.0530157  46.8719063  53.1782761  84.3175354  25.0982323  56.9525566
  84.1345673  25.0365143  57.8900757  84.6699677  25.9803753  56.8348694
  34.6521149  57.7987785  35.7407265  34.0188789  57.3041229  35.2205696
  35.4997559  57.5899925  35.3481178  59.3402977   4.2962570   6.0823288
  60.2717628   4.5109773   6.1323709  58.8942223   5.1052265   6.3329577
  17.5481930  59.5306435  60.6224861  17.3995209  60.4762268  60.6218491
  18.1308517  59.3803024  61.3668938   0.4448473  59.3325462  40.8935776
   1.3475935  59.5120316  40.6307755   0.5187760  58.9845009  41.7821884
  84.4296265  33.3703575   7.1129675  84.7393112  32.5149269   6.8153715
  83.5301895  33.4250717   6.7900915   8.9284983  34.6896172  57.8677101
   8.8756351  35.3601952  57.1867065   9.8380461  34.7206726  58.1643372
  50.9422989   1.5890930  70.2477493  50.3577538   1.4186982  69.5091629
  50.7344627   0.9021609  70.8811188  18.9691391  54.1276169  72.1960373
  19.1057987  53.4194069  71.5667572  18.0177135  54.2106323  72.2603149
  59.3939209  13.8733130  82.7383881  58.6736374  14.4058762  83.0757294
  59.0491333  12.9803877  82.7322693  65.9337311  60.1782608  37.4533005
  65.7093964  60.3049698  38.3751717  66.3330002  61.0067368  37.1879005
   8.1213293  49.9599419  30.7281914   8.9778585  49.7543716  31.1027985
   7.9964862  49.3044395  30.0419254  40.1653671  44.7248688   9.2230263
  39.6009445  44.6010666   8.4599209  40.8864861  45.2664490   8.9022264
  84.1805725  42.7310562  49.1776390  84.4779892  42.5818138  48.2801399
  84.9581528  43.0462570  49.6383438  69.8624344  64.9489365  82.0245590
  70.7641068  65.2098312  81.8370743  69.9188232  64.0127335  82.2158203
  41.1422157  12.1398067  22.0759907  40.9864464  12.7979975  21.3986797
  41.8218575  12.5229712  22.6305199  31.4288292  31.1177826  70.6399002
  31.6758194  30.5258331  69.9293976  31.1403427  31.9159698  70.1972961
  44.7725449  51.4190903  21.8574772  45.2331467  50.6007614  21.6719437
  44.7916412  51.8978691  21.0288410  41.8104210  40.6375465  69.5712891
  41.6940155  40.5374680  68.6264801  42.6957970  40.3147545  69.7390518
   5.9882755  12.1991415   1.4638329   6.7451577  12.7828884   1.5148219
   5.5994387  12.3852158   0.6091902  78.8258667  13.1147223  74.7399368
  78.9907074  12.4053354  75.3610916  79.0795822  13.9087896  75.2103882
   2.4735045  21.5559521  53.7943535   2.2239654  20.6320877  53.8152657
   2.4829953  21.7804794  52.8639069  58.4468803  44.9565468  35.0774422
  59.0095863  44.4361801  35.6508675  57.6898308  45.1766472  35.6202698
  20.8613148   9.5336447  13.6523161  21.6486721   9.0529909  13.9078016
  21.1649361  10.4292488  13.5041943  18.6816254  70.6135559  22.9587364
  18.2375278  69.7659378  22.9822388  18.4313202  71.0379257  23.7793980
  75.3710785  21.3690643  49.1778831  75.3828735  21.0880661  50.0928345
  74.7915421  20.7437496  48.7427406   3.5586386  70.1598129  50.4646149
   4.0199037  69.4926071  49.9563789   2.6975784  69.7781296  50.6352882
  21.9892483  68.2063904  70.0095291  21.7239056  67.5383911  69.3773880
  21.1696243  68.4958725  70.4103394  69.6676941  12.2475309  78.1590805
  68.8451996  11.7582693  78.1779251  69.4795761  13.0510483  78.6440582
  63.0660553  22.2952557  53.0615501  63.8243828  22.8060741  53.3448105
  63.3918152  21.7669086  52.3328819  60.0993042  46.3518105  26.4030457
  59.3104744  46.0712166  25.9390926  60.5240059  45.5360756  26.6684437
  64.7168655  54.4637527  19.8843555  64.4972992  55.3048286  19.4835892
  65.6672287  54.4919968  19.9950066  79.0449448  31.3909893  38.2968597
  78.5901718  31.9423180  37.6601067  78.3459091  30.9093018  38.7390900
   5.8689976  25.0627136  13.5997362   5.8267441  24.8735046  12.6623745
   5.0027599  24.8260021  13.9311457  32.5532761  13.7153063  81.0222702
  31.7485962  13.5155659  81.5006256  32.2848587  13.7451916  80.1039581
  59.9760094  10.2769728  70.0612946  59.1894302   9.9230204  70.4763184
  60.1564255  11.0856800  70.5405426  69.5632172  18.2077446  82.7544556
  70.0070724  18.5741348  83.5192947  68.7199707  17.9033375  83.0898819
  17.3610992  69.1366882  72.0048676  17.1225719  68.2960129  71.6142349
  17.8759842  68.9042511  72.7775879  49.0550117  51.5515137  41.0967979
  49.3853302  52.2983780  40.5974846  48.4281158  51.9327736  41.7115135
  49.0756035  35.8523903  46.5817413  49.5074043  36.5917625  47.0096512
  48.4143600  35.5642929  47.2110176  15.2643547  71.8949661   7.6861420
  14.9441185  71.1830063   7.1322517  15.9550285  71.4951401   8.2146654
  53.3369293  40.3999214  43.2286301  52.7948418  41.1209831  42.9085617
  54.1250954  40.4338799  42.6865234  42.7913399  10.2629137   7.8034649
  42.7199593   9.6764774   7.0503187  41.9743347  10.1344099   8.2853613
  65.5345612  34.7066116   4.4654140  65.4546127  35.1901550   3.6432049
  66.3713913  34.2475929   4.3929324  85.9938431  61.0150261  76.0861359
  86.1791611  60.0759354  76.0870285  85.4494781  61.1524696  76.8613815
  77.8550873  36.6073570   6.3200493  77.7626953  37.3723907   6.8878698
  77.0223389  36.1432724   6.4060597   0.9349174  41.0369873  86.7237244
   1.8887537  40.9584084  86.7396545   0.6590285  40.7842979  87.6047821
  53.1460114  37.8233719  40.9162369  52.7601204  38.2882538  40.1738052
  53.3320465  36.9468765  40.5795135   7.5097919  43.3088837   3.6297996
   7.1107249  43.9358749   4.2330079   7.2756176  42.4517403   3.9857459
  75.8854370  54.0632896  16.7321148  75.5558777  53.3032990  16.2524872
  76.5792923  54.4157677  16.1748428  75.7255859   7.0197897  79.6359329
  74.8885727   6.7996635  80.0448151  75.7743073   7.9742842  79.6888351
  59.4976234   2.0966146  78.9157715  60.3760109   1.9314871  79.2584000
  59.0714149   1.2396034  78.9262772  -0.0030756  47.8978386  46.2962685
   0.6707793  47.8379250  45.6190948  -0.2955073  46.9953537  46.4236717
  13.0030251  11.5898228  87.3797379  12.4440775  12.0146542  86.7291031
  12.5581455  11.7418165  88.2135315  14.5373678  69.2507324  70.5249252
  15.3130894  69.3430481  71.0780640  13.8834734  68.8461609  71.0949936
  23.4543533   5.5623360   8.1088409  23.7351017   6.2068114   8.7585058
  24.2331810   5.0296831   7.9477849  21.9480457   4.2909670  62.6973305
  21.2177582   4.8865733  62.5295143  22.1534939   3.9165788  61.8406792
  51.9531593  25.6781063  31.1004829  51.7696457  26.1395168  30.2821560
  51.0994720  25.3572502  31.3911705   6.7279973  68.4252167  12.3594294
   6.6507020  67.6125641  11.8595810   6.2810249  68.2416153  13.1857090
  74.3135452  65.5495300  14.3399687  74.6185684  64.7013550  14.6621265
  75.1115494  66.0683365  14.2386789  29.5920410  15.6503649  69.6618042
  29.6907215  16.1591187  68.8570328  30.3694210  15.8647299  70.1775208
   4.1559567  40.4218636  28.9783306   3.8206093  40.5473137  28.0906162
   5.0757222  40.1867561  28.8559093  39.4922180  49.5597420  77.9199982
  39.8664322  49.9306297  77.1208496  39.4101562  50.3054199  78.5145264
  18.9591827  60.1230850  42.7534943  18.4823513  60.3667488  43.5468979
  19.8817978  60.1744270  43.0032539  59.2764626  59.8903084  65.4442215
  58.9412079  59.6783104  66.3153687  59.1437302  60.8344917  65.3597412
  30.9404411  40.9885025  16.7564793  31.2239265  41.4052620  15.9427328
  30.2937183  40.3391037  16.4803257  61.8601685  19.6218777  11.1127567
  61.9710617  18.9765587  11.8109665  62.4634781  20.3287888  11.3419456
  31.8717422  25.1594524  73.9980469  32.1049843  25.2578373  73.0749283
  30.9323483  24.9758892  73.9894867  24.9323158  44.1678276  38.2128296
  24.0529194  43.7899666  38.2020950  25.0893936  44.4347305  37.3071136
  61.4854927   8.9320030  24.2086411  62.1587677   9.6006308  24.3346214
  61.0090103   8.9125395  25.0385895   8.4816637  50.7266922  85.4847946
   8.3232822  51.5925484  85.1087112   9.4342260  50.6681709  85.5585022
  84.4607697  70.8216248  74.1612244  84.9023819  71.6410751  74.3842087
  84.7461395  70.6312256  73.2676086  67.2465973  13.1000271  37.0269470
  68.0181656  12.6007481  37.2945938  67.3794250  13.2639856  36.0932961
  17.3445873  49.6744080  35.5163612  18.0991554  49.1505814  35.2471733
  16.5946503  49.0907364  35.4016724  29.9527683  66.9405365  63.0182838
  30.3150902  67.5362167  63.6741180  29.8020077  66.1236801  63.4939346
  33.5459976  62.9189529   9.1702766  34.2025757  62.2288895   9.0756884
  32.9827118  62.8204498   8.4026585  42.3222847  13.1191025  78.1571121
  42.0035400  13.1565361  79.0589066  43.0430222  12.4897680  78.1837616
  41.0745888  32.2283058  12.2792196  41.0209007  33.1802635  12.1947851
  40.9241753  31.9003563  11.3926220  13.7602386  63.4405327  33.9808807
  13.6642628  63.7250748  33.0720024  13.0393553  62.8256340  34.1167450
  15.6197538  34.5316315  70.3900146  16.4116268  34.7037048  70.8994904
  15.1785803  33.8266029  70.8638611  53.6236763  70.9533310  59.1759987
  54.1423607  70.7211914  58.4057350  52.7242508  70.7318573  58.9347229
  80.2407455  48.3156586  18.7835999  81.0707169  47.8855324  18.9894505
  80.0239410  48.8089371  19.5747395  72.5084610  40.1864128  37.1030922
  72.9829941  40.6708679  36.4275589  72.2645416  39.3628922  36.6805420
   2.7374117  61.9292717  53.9600334   2.1840234  61.2757034  54.3876305
   2.2178745  62.2329483  53.2156563  58.6972198  64.3791885  18.8056889
  58.2538261  63.8136330  19.4379711  58.8867683  65.1808853  19.2931118
  36.1279106  13.3164234   9.3291636  37.0178223  12.9963379   9.4769278
  35.6885605  12.5997972   8.8712893  82.0553513   8.6104460  84.1211777
  82.8281937   8.6618938  83.5587769  82.4049606   8.6384001  85.0118103
  20.8515987  50.6090317  16.9411354  20.4298687  49.8862572  16.4764042
  20.2763176  51.3590126  16.7900963  14.6943178  58.8295593  68.4887848
  15.5991144  58.5179710  68.5108719  14.7363100  59.6527977  68.0022125
  82.1916733  50.0374908  51.4128647  81.6642456  49.2431107  51.3291130
  81.6585693  50.7225723  51.0095100  24.7404690  40.2759094  74.3730316
  25.4068127  40.1760750  75.0529251  24.8052387  39.4738846  73.8545837
  58.2858047  36.2742729  44.1795197  57.6260109  36.0518036  44.8363419
  58.2298012  37.2262344  44.0966530  68.5972672  23.9580193  48.6412430
  69.4954147  23.6283627  48.6712189  68.2017670  23.6500797  49.4567070
  16.5726128  39.5614128  63.5236168  15.7284718  40.0071411  63.5942078
  16.9652462  39.6531601  64.3917465  19.5892639  24.5047474  73.3636627
  19.9411907  25.0074673  74.0982742  20.2251797  23.8023758  73.2275925
  30.3397980   3.8945906  67.3869171  30.5987835   3.7123048  66.4836349
  30.5182438   4.8277469  67.5035782  15.4795303  61.9670105  72.3800278
  14.9732704  61.3597069  72.9195862  14.9046021  62.7240295  72.2677460
  64.5982819   8.6078119  10.5242128  65.1754761   8.9746971  11.1938925
  63.8872452   9.2438793  10.4462414  61.8709030  62.8010559  11.0274143
  61.8950272  63.0242233  10.0969067  61.5367470  63.5899239  11.4543324
  70.1747131  15.4991322  82.1317139  69.7827835  16.3616314  82.2685242
  69.9414597  15.0028801  82.9162903   4.1791372  61.2374840  37.0012054
   4.2448702  61.1898956  37.9549561   3.2581940  61.0544930  36.8151665
  72.0419846   9.9993458  74.6648560  72.4062347  10.7284966  75.1667480
  72.2709885  10.1958017  73.7564468  42.4018669  10.8584557  14.6072702
  43.1061554  11.0632048  15.2223206  42.4114914  11.5833130  13.9821920
   2.4826632  22.8366585  82.5637817   1.7820814  23.3903236  82.9085617
   3.2599010  23.0988445  83.0571289   1.9724257  57.9720764  84.3259964
   1.4600211  58.2739983  83.5759811   2.5185399  57.2684937  83.9753342
  73.0955963  48.9436531  86.8002319  73.2848587  48.0318489  86.5788193
  73.7976074  49.4423180  86.3821945  11.6092129  42.3881073  70.2439194
  10.7510328  42.7319756  70.4919357  11.5310307  42.2009926  69.3084488
  52.9046898  22.6289368  36.8790474  52.3618774  22.2386951  37.5641022
  53.5516052  23.1505241  37.3540993  20.1772175   2.0522916  62.0259819
  19.4558468   2.6678638  62.1560860  20.7988224   2.2609072  62.7233505
  34.7764282  31.5609798  70.4668427  35.7068596  31.5700989  70.6914368
  34.4414253  32.3934174  70.8000946  14.3547163  36.7069206  57.5130615
  14.0289869  36.9299393  58.3850670  15.2080765  37.1371193  57.4588890
  26.4519119  38.5564613  63.9464569  25.5280094  38.5260696  63.6980400
  26.8116665  37.7267151  63.6328850  66.6940536  47.4748955  61.3096275
  67.2617798  47.6744957  60.5652657  66.0879517  46.8125343  60.9777336
  79.4001389  37.3934250  67.0238800  79.2786713  38.3423347  67.0562592
  80.2493439  37.2750473  66.5983582  84.0273895  11.6224794  53.5785408
  84.6765671  12.3219271  53.6532059  84.1021271  11.1376028  54.4004555
  18.1781197  63.3600273   9.2118654  18.6840057  64.1149292   9.5125914
  17.6081505  63.7108879   8.5275679  13.2437992  27.1803551   6.9115677
  13.7558365  27.1615486   7.7200828  12.3556490  26.9510593   7.1851463
  71.1002808   7.8641319  61.5805511  71.3696289   8.3630848  60.8093643
  71.3893509   6.9696517  61.4000740  71.3967972  64.2701340  67.2290726
  70.9756088  64.7320480  67.9539566  72.3249130  64.2535477  67.4626465
  29.8815155   4.2332101  26.0098133  29.8794327   3.2909131  25.8415756
  30.8015842   4.4872894  25.9380493  67.2514191  37.0716667  54.7699280
  67.1051025  36.3648262  54.1412773  66.4080048  37.1796532  55.2094994
  73.4963455  33.5207596  14.1249065  73.2645111  32.8387680  13.4945326
  72.7243805  33.6015778  14.6850653  40.0138359  67.8110886  59.0613747
  40.1562462  68.7071381  59.3664093  39.9669991  67.2898407  59.8628349
  15.0148926  23.0386772  76.3984604  15.6974192  23.1161900  75.7318420
  14.4449425  23.7925282  76.2464828  78.6260147  23.2292595   2.0228577
  78.5341949  22.7654991   2.8551595  79.5266418  23.0548420   1.7495738
  32.9932098   8.4220743   8.2405128  33.7368164   8.2816057   7.6543813
  32.9707947   7.6392112   8.7908354  51.1096725  46.6043816  18.2840347
  51.9700661  46.9614983  18.0639801  50.5036812  47.0645714  17.7033195
  42.5831604  67.1433258  58.3478088  42.9812202  67.9266586  57.9681053
  41.7076530  67.4244308  58.6136932  81.7743301  69.1561737   5.3700547
  81.9254227  69.7920990   4.6707640  81.2947388  68.4441147   4.9467435
  61.8229980  50.6116409  24.0872555  62.5648422  51.0849419  24.4639359
  61.8784599  50.7878113  23.1480427  32.6661987  14.3603611  88.9239273
  33.5268593  13.9509697  89.0127487  32.8522987  15.2408676  88.5978775
  72.8567123  46.5379448  13.5922947  72.8755264  45.8073235  14.2104120
  71.9287872  46.6559868  13.3891649  24.9643555  64.2536850  53.5764771
  25.5009804  64.8974838  53.1141052  24.1490326  64.7162628  53.7701340
  84.5062637  29.3389683  65.4469833  85.3732376  29.6067333  65.7517624
  84.0685806  29.0074596  66.2310486  82.3692780  70.4875717  43.1730385
  82.1546021  70.0655899  44.0049515  81.8712158  71.3049164  43.1835136
  74.0064926  19.7863331  47.4345360  73.1442642  19.7199955  47.8448982
  74.3112411  18.8812485  47.3698578  83.9811478  55.4801140   5.7103472
  83.0304108  55.5269432   5.8110442  84.3254700  55.7329636   6.5669346
  55.3809853   1.6569909  64.5744858  54.5591316   2.0264690  64.2515717
  55.6059952   0.9796001  63.9367218  43.6935463  23.4988556  59.8696060
  43.8156853  22.8822422  59.1477318  43.5611191  24.3449631  59.4420586
   9.2782736  29.8158798  42.7305374   9.6878605  30.6412868  42.4713554
   9.6453886  29.6271305  43.5941505  30.6882801   2.0540767  38.8599472
  29.8596630   1.9767601  39.3328629  30.9790134   2.9498656  39.0310287
  39.4115448  65.2301407  80.7026443  40.3248100  64.9702835  80.8237076
  39.2724648  65.9239120  81.3472900  30.0613632  53.6708221  11.1188946
  29.7187214  54.3836098  10.5796738  29.9900646  53.9942894  12.0169582
  59.5991516  65.6795120   7.7575293  59.6530991  66.5580215   7.3813162
  59.3958893  65.8266068   8.6812611  39.9318581  20.9700832  58.8631706
  39.9800682  21.8366737  59.2668114  40.7825699  20.5721207  59.0479736
  73.2678909   1.2771037  20.1939392  72.6532211   0.9821177  19.5220795
  73.8812027   0.5490085  20.2937450  76.7961807   7.6318340   3.7217321
  76.6408081   8.4503260   3.2503896  75.9987869   7.1207027   3.5833907
   6.3217249  56.5933571  71.1864777   7.2779703  56.5912895  71.1437912
   6.1202741  56.2595062  72.0606613  63.0278740  41.9007721  86.9805832
  63.8016930  41.3553009  87.1216431  63.2479935  42.4361992  86.2182846
  75.6203461  65.8545380  53.2831154  75.1519089  65.0652313  53.0114784
  75.4904099  65.8960571  54.2305489  63.8899384  22.6476498  69.1470642
  63.7241707  21.7453461  68.8739395  63.5104408  22.7060413  70.0238800
  77.2717361  56.3916855  12.7419052  77.7363434  55.7734299  12.1778708
  77.3362122  57.2293739  12.2832651  68.5730362  38.4050674  43.7926903
  68.6373749  39.3549652  43.8916130  68.4982986  38.0755119  44.6882553
  48.7628212  22.2273407  36.8773766  48.6218071  21.8623810  36.0037918
  48.1150551  22.9281445  36.9515991  39.8500061   0.1655215  10.8421183
  40.2172508   0.8760896  11.3679104  39.4649620  -0.4322761  11.4829063
  21.8104858  62.4662170  72.0237198  21.0184727  63.0036354  72.0350266
  21.5270748  61.6297112  71.6547012  49.8616104  52.2000809  48.3705826
  50.3420792  51.3951683  48.5642204  50.5349503  52.8187485  48.0875702
  14.2178144  45.8929176  52.7063980  14.0406227  44.9529190  52.7415276
  15.0552053  45.9618263  52.2478561  49.7868080  69.6266479  36.4800072
  48.8902550  69.9004440  36.6735611  50.2888222  70.4415512  36.4681435
  72.8012466   0.4234004  38.3181610  72.2009888   0.2196956  39.0353966
  72.5848618   1.3229934  38.0729218  66.9048157  36.5432091  62.9444427
  66.8826370  37.3420563  63.4713020  66.2489548  35.9732208  63.3459358
  75.1684570  69.7453613  15.9695072  74.2141418  69.6812210  15.9320116
  75.4198990  70.0814438  15.1092434  47.3793488  68.2234421   7.5556841
  48.0503159  67.6844711   7.9746656  46.8481445  67.6012268   7.0587878
  78.3442993  69.3531342  87.3861847  79.2817688  69.2016373  87.2660370
  78.0095673  69.4970856  86.5010529  54.8667603  53.5212898  51.1055527
  54.7689514  53.1666756  51.9892464  54.9423409  54.4668274  51.2339134
  57.9652748  31.0388622  80.8651810  57.4424782  30.2393456  80.8044205
  57.6474724  31.4732628  81.6567230  62.0287895  29.6362381   1.9784076
  62.6522980  29.0035172   1.6218485  61.4860420  29.8853016   1.2303277
  54.3491783  11.1668348  37.5254021  55.1546059  10.8238258  37.1382790
  54.2059059  12.0017595  37.0797539  54.1419716   8.2415028  57.6799736
  54.2752571   9.0310383  57.1554718  55.0002174   8.0609961  58.0634575
  83.6040421  27.0107174  37.2016640  82.9932556  27.2222881  36.4956856
  83.4776840  26.0743866  37.3551254  18.9966545  18.8680172  72.1654205
  19.4168243  18.2568779  71.5602722  18.1926918  19.1329155  71.7185287
  63.1459274   0.3101313  78.4101639  62.9681778   0.5120900  77.4915543
  63.1186104  -0.6456327  78.4548950  38.8353081  40.4641724  35.5109177
  39.5748634  40.1568146  34.9866867  39.0339203  41.3833466  35.6895256
  75.9940567  20.6819420   8.2565489  75.4035416  21.3482304   7.9050107
  76.8672333  21.0631447   8.1644506  50.4457054  29.8559856  32.2255478
  51.3794136  29.7721367  32.4189148  50.0982361  30.3819904  32.9458351
  86.3110046  19.7683144  34.5075912  86.9979324  19.2603111  34.9392166
  86.1160049  19.2775917  33.7092209  70.3713150  10.9071341  86.0502396
  70.6940460  10.1973991  86.6055298  71.1498413  11.4260530  85.8481445
  42.8418694  50.9777069   9.1645756  42.0761948  50.4828033   8.8729506
  43.3354607  51.1498070   8.3627148  61.6917953   4.6684875  11.3862896
  61.7997513   3.7280080  11.2446022  62.5615311   4.9730973  11.6451406
  32.8144188  25.7849884  71.4646225  33.5600891  26.2770138  71.8083038
  32.8684692  25.8998222  70.5158768  85.1100693  50.7883339  29.1341515
  84.5637512  51.5186996  28.8437557  84.4901047  50.0804634  29.3096390
   1.3859725   4.5500193  87.0648880   0.5894986   4.1507421  86.7149734
   1.7941523   3.8561511  87.5827408  37.6153984  15.3062820  85.3496475
  37.0700684  16.0847759  85.2365341  38.3093834  15.4031744  84.6975555
  29.1843033  34.7313728  67.0763321  28.6614647  34.1967430  67.6738663
  29.3561783  34.1576118  66.3296814  82.5465927  26.8926773  20.6625652
  82.6581497  26.5611115  21.5535507  81.7858200  26.4201565  20.3246632
  11.0080652  63.9707336  84.3717804  10.9344978  64.0540390  83.4210587
  10.2297964  63.4768524  84.6298752   9.2386255  66.4967804  14.2814493
   9.2952595  67.1732330  13.6065903   9.8421249  66.7888794  14.9646025
  51.9698906  54.6416321  88.3606720  51.2419128  54.9985695  87.8518753
  51.5509796  54.1837883  89.0894470  40.0700684  31.9389305  42.4865913
  40.2392349  31.2263260  41.8703079  39.1978188  31.7529640  42.8342018
  62.1168709  64.2452087  53.8323555  61.5875740  63.5425186  53.4551277
  62.6092873  64.5983429  53.0913773  57.8358803  25.7678585  74.1510010
  58.7723122  25.6282597  74.0101624  57.4241562  24.9613800  73.8406677
  37.4283714  67.9884109   7.1068649  37.5182037  67.2149200   7.6635251
  36.7369041  67.7579651   6.4863853  86.2747955  60.2358284   1.6366172
  86.8229218  59.7106972   2.2197351  86.8864136  60.6005440   0.9969828
  55.1084709   7.1944695  37.6548500  55.4139175   7.0143752  38.5439491
  54.4393845   6.5295682  37.4921761  61.3209686  67.7170029   1.0894073
  61.8375702  67.3434296   0.3754051  60.7569580  68.3631210   0.6643682
  62.0207901  62.0911636  45.9717407  62.4512444  61.9667549  46.8175926
  62.6236916  62.6445770  45.4752769  41.7406998  60.4264679  59.5415688
  41.0910072  61.0731850  59.2660866  42.5051003  60.6068039  58.9943886
  77.0547562  64.7661514  66.8113556  77.0475235  64.0415268  67.4367371
  76.1762772  65.1417770  66.8698425  44.9662743  32.5203400  72.4482880
  44.2785263  32.0669670  72.9358139  44.4939270  33.1013680  71.8520203
  72.3067245  14.5574875  87.0229645  73.0555801  14.0270157  87.2950821
  71.5441666  14.0830488  87.3540955  15.4478550   7.2375445  76.6412506
  16.0559540   6.9865394  75.9459534  15.6572113   8.1536427  76.8233719
  86.0399017   6.9609699  84.7269363  85.6759415   6.1920223  85.1656723
  86.0982056   6.7061419  83.8061295  32.0068550  54.4860687  20.5210114
  32.1405602  54.0565948  21.3659401  32.0876274  53.7811089  19.8785629
  55.3587723  44.0623550  57.2726097  54.8763924  43.4905357  57.8697395
  55.0908241  44.9474258  57.5197716  17.5564232   7.5921545  41.6366081
  17.0289917   7.0205746  41.0786247  17.6371727   7.1134229  42.4615479
  35.2607040  42.9807510  36.1801834  35.5654106  43.5496559  35.4732666
  34.3269424  43.1759377  36.2590904  14.8218660  68.9559479  67.7458954
  14.8022251  69.0505753  68.6982040  15.4877386  69.5799026  67.4568863
  15.5157690   2.3634439   5.7331939  15.3041220   2.8941579   6.5011654
  14.9399652   1.6019223   5.8022361  73.8617859  13.6308565   9.2138700
  73.5223999  12.8442049   8.7869902  74.6941605  13.8022118   8.7733860
  53.1987000  27.5168190  84.5062485  53.3775635  26.5806427  84.5946350
  53.9407730  27.8562527  84.0059052  56.6094704  15.4351387  86.9366302
  55.8492546  15.1529245  87.4452209  56.5440636  14.9458179  86.1165619
  37.7309837  63.1047401  35.4777489  37.2963486  62.2635193  35.3374939
  38.5646172  63.0238152  35.0143471  22.5027485  50.0643654  12.5046568
  21.5714703  49.8879776  12.3710785  22.7748146  50.5276260  11.7124443
  72.0122070   3.3766661   1.0341734  71.5006180   2.8289869   0.4387279
  71.4777145   3.4334259   1.8262126  77.3058395  71.1697998  28.8943367
  77.7607040  71.8070679  28.3436832  76.6974411  70.7307053  28.2999611
  62.4704094   7.8873267  30.5910721  63.4019852   8.0496273  30.4425488
  62.3739166   7.9000387  31.5433121  72.2240448  48.7885895  41.6359940
  73.1053848  48.4332962  41.7510643  72.1712494  49.0010986  40.7041740
  32.9808502  39.1860352   5.3839602  32.9013290  39.1015091   6.3340988
  33.9232025  39.2453194   5.2268143  -0.1761436  22.9340782  52.3716431
  -0.0371983  23.4648018  53.1560249   0.6943161  22.8491211  51.9826508
   5.7723322   1.5733973  36.2610245   4.8862987   1.3155736  36.0066566
   5.6519108   2.3764493  36.7678185  39.6702194  55.2752419  59.5391541
  39.9839172  54.7469978  60.2731705  39.2242203  54.6502151  58.9676132
   3.1369681  39.6150932  39.2491570   2.4778929  38.9252319  39.3262749
   2.6528652  40.4268494  39.4005737  81.3765411  61.8149529  81.8624649
  80.5313263  61.7244225  82.3025208  81.9986801  61.9812202  82.5706482
  41.9966011  47.7223282  46.2675171  42.6376991  48.1780624  45.7220535
  41.8091736  46.9132729  45.7915649  68.4915771   9.3525124  31.5670929
  67.7242584   9.9148827  31.4612656  69.0244293   9.7960796  32.2270546
  46.0697784  25.7651367  71.9051971  45.3417358  26.3865509  71.9112244
  46.1994476  25.5570984  70.9799194  13.2137680  41.5351791  61.0631027
  14.0167112  41.3777580  60.5663795  12.5379877  41.6517944  60.3953018
  65.8057632  46.8068542  43.7655830  66.4617615  47.4308052  44.0763664
  66.3132858  46.1252556  43.3250465   5.8411193  37.1653595   4.7376513
   5.4088106  37.2234459   3.8856144   6.2746043  36.3119888   4.7286038
  77.4602280  20.0180244  40.4275131  76.8403625  19.5561218  39.8630295
  77.2958908  19.6658707  41.3022804  61.6305885  10.5830956  29.4464207
  62.4860306  10.3068943  29.7753048  61.4913635  10.0499592  28.6637249
  15.9760885  52.7772141  16.0279713  15.8639688  53.2318726  16.8628044
  15.9773617  51.8484039  16.2593670  54.4312706  39.0513687  56.6738205
  53.9739685  39.8869171  56.5791130  54.3214188  38.8214417  57.5964775
  80.7476578  13.3184958  57.4686890  80.6165619  14.0008135  56.8102913
  80.7185822  13.7836618  58.3047562  76.3529663  49.6279373  77.0966568
  76.9034348  48.8783531  77.3232422  75.7714386  49.2994652  76.4109802
  35.1378822   8.4509048  78.3314972  36.0041313   8.2816153  78.7018890
  35.3154144   8.8429441  77.4765015  79.1579819  45.7553673  46.9714737
  78.3099594  46.1846619  47.0845947  79.7947235  46.4690361  47.0098305
  81.2652435   7.4420872   5.3929958  81.0188370   8.1229963   4.7669940
  80.9505463   7.7670460   6.2365584  20.9574394   0.4123625  26.5901146
  21.0070019  -0.0453576  27.4293213  21.3003349  -0.2155468  25.9542027
  26.9479942  38.5941048   4.9733071  26.3561974  38.7068520   4.2294679
  27.5508709  37.9037743   4.6972337  56.5253944  30.0530148  19.7251720
  57.0581322  29.3316975  20.0600281  55.6486359  29.8832550  20.0697060
  53.8513680  29.6072769  43.4877739  53.9600220  29.8128872  42.5592537
  54.2168999  28.7277260  43.5826874  14.6471443  33.2250671  34.1897087
  14.4168415  33.2967339  33.2633972  14.4298401  34.0816536  34.5575066
  68.8494263  57.1693649  47.2768745  68.5878601  56.3935165  46.7810173
  68.6017456  57.9057312  46.7177200  11.5157166  58.7513123   5.5471549
  11.8347626  57.9582176   5.1165261  11.1220675  59.2649727   4.8418727
  83.0301819  40.8880463  20.9421997  83.8146820  40.8014107  21.4837646
  82.8630295  41.8300438  20.9116993  25.1165466  22.0849552  86.7539444
  25.0219498  22.7047138  87.4772568  26.0507011  21.8768272  86.7374878
   6.0808139  18.1443157   7.6836119   5.4955316  17.3958035   7.5678267
   6.3461461  18.1010265   8.6022835  47.9282417  18.7338562  34.3556252
  47.8758545  17.8682575  33.9503746  47.9092178  19.3447514  33.6189613
  81.3689728  46.6447411  35.0030937  80.7778854  46.7054482  35.7535286
  80.8707199  47.0161934  34.2750854  18.2521515  19.3462200  68.2324371
  18.5528564  18.5383949  68.6486435  17.5342808  19.0694103  67.6629944
  43.5388680  36.7456894  72.1072998  44.0138359  37.2885132  71.4780350
  43.8641205  37.0292320  72.9617233  12.1503010   0.9004721  53.6870689
  11.3555546   0.3993886  53.5039673  11.8586979   1.6123805  54.2566147
  79.7168121   4.4299927  69.1194763  80.2278137   4.2761550  68.3248367
  79.8785553   3.6577938  69.6614914  21.1612720  51.8944626  49.5456734
  21.3145943  52.8142891  49.7616348  20.2748737  51.7188416  49.8614082
   8.8833275  27.9057007   1.7788235   8.3458023  28.0800514   2.5514169
   9.1623669  28.7714806   1.4808408  38.2118111  47.3364525   9.2727041
  38.9425964  46.7402687   9.1091547  37.4870949  46.7637711   9.5238094
  81.7828217  68.7364426  17.9233208  82.5300903  68.1954651  18.1785851
  81.7494507  68.6640472  16.9694462  15.2652225  55.1059685  67.0944977
  15.4046202  54.1841660  67.3114700  16.0270557  55.3456993  66.5668869
  35.7070236  36.8468056  69.2909317  35.0329704  37.0368462  68.6384201
  35.3223877  37.1273766  70.1213303  28.0108929  45.4355278  69.0946426
  28.6888313  44.7685661  68.9860458  28.4949398  46.2434921  69.2653046
  52.3504333  67.1579208  72.4562912  52.3142967  66.7150269  73.3040924
  51.5808678  67.7270966  72.4504089  34.5443916  56.7299614   4.3942022
  33.9938049  57.4276199   4.0387316  35.4097824  57.1293564   4.4826107
  20.4544716  61.4481201  28.1683311  20.9205189  61.7662277  27.3951321
  20.4097366  60.4996147  28.0476437  81.7164001  59.0309753  35.2821503
  82.5207367  59.4686966  35.5608673  81.0148392  59.5299721  35.7005310
  41.0035286   7.9977913  68.9629517  40.4151192   8.6492825  68.5814209
  41.8517914   8.4388962  69.0088501  67.7651749  56.8450394  79.6017075
  67.9513779  57.6910362  79.1944580  66.8206558  56.8564720  79.7565613
   4.6942282  46.0323563  52.8492699   4.5168037  46.8286209  53.3499832
   5.6090064  46.1172409  52.5805588  20.6355190  43.3046608  78.4752426
  19.9886436  43.7869377  78.9902115  20.2462902  43.2382927  77.6032791
  63.2388077  29.1098976  15.9491844  63.3212547  28.4079971  16.5947609
  63.5851097  28.7331772  15.1402435  64.8681488   7.2158651  64.7910156
  65.0529175   7.7955499  65.5299683  64.0779114   6.7419357  65.0501328
   3.1480389  59.1734695  39.5475349   3.8101301  59.8524742  39.4178314
   3.6472273  58.3980713  39.8040466  15.0232925   9.5086622   4.9361410
  14.6862593   9.9995823   5.6855664  15.3734140  10.1785526   4.3488646
  13.1568861  66.9726105  75.6198196  12.5251217  66.4129639  76.0713730
  13.1673775  67.7822800  76.1302719  52.3000298  63.0602226   7.1522393
  52.0067978  62.6390991   7.9602623  52.1484146  63.9937172   7.3000050
  24.8963871  34.1016006  69.5413666  24.7503376  33.1556664  69.5307922
  24.0171242  34.4798203  69.5323792  38.5126953  23.8286304  71.7313232
  38.9274330  24.6825008  71.8543167  38.2877617  23.8033581  70.8012695
   8.9311686   6.3019857  73.2548218   8.0492210   5.9329977  73.3022385
   9.2943068   5.9508572  72.4417572  17.0767040  56.0113525  56.6523476
  16.4152584  55.7409248  57.2892075  16.7209377  56.8095589  56.2617989
  65.8667755  57.4865494  87.7104111  65.2620010  57.8124542  88.3769455
  66.2927246  56.7340164  88.1208878  86.2750778  28.7837849  77.2462921
  86.1759872  28.6468544  76.3041382  87.1305313  29.2031784  77.3387070
   1.8554312  33.4630508  17.0464058   1.4775192  34.3073044  17.2926731
   1.2857122  33.1401100  16.3482933  66.0422668   8.6124935  14.6689129
  66.9420013   8.5645933  14.9920454  66.0669861   9.2874489  13.9906387
  68.4296799  28.1992435   1.1194708  68.2936630  27.8750572   0.2291712
  68.2472992  29.1372261   1.0632968  59.3102417  20.4228363  86.7720566
  59.5115776  20.9192791  85.9788055  59.1253128  19.5370979  86.4598083
   4.8380375  22.7210503   5.5418835   4.9774513  22.2229767   4.7364531
   5.0358524  22.1012917   6.2440233  62.6818695  68.2210541  75.8393936
  62.3552628  67.5240936  76.4084320  63.3715096  68.6443176  76.3507462
  28.2719593  63.7445221  40.7187271  29.0772171  63.4038467  40.3291969
  27.5915470  63.5440788  40.0760040  36.7399902  70.2908783  77.2729187
  36.0059967  69.7527542  76.9764328  36.6707535  71.0949402  76.7582169
  16.8805180  32.1865501  41.3443413  16.8730030  32.4030800  42.2766991
  16.2725868  31.4515400  41.2642479   9.6648779  38.2266159  13.8413935
   9.8189754  38.0133095  14.7617121   9.5960684  37.3765526  13.4067812
  29.9539509  53.3403854  85.7127533  30.1482792  53.9582558  86.4175262
  30.7970676  52.9347916  85.5105591  56.2196426  66.7930756  37.5573006
  56.6080322  66.1489792  36.9652481  56.3184242  66.4081421  38.4281044
  51.5169411  23.9152069  57.3220940  50.5825768  23.9900208  57.5159836
  51.7062607  24.6677246  56.7616425  16.5520878  11.9561310   7.8988829
  17.3528957  11.6166534   7.4992690  16.8415909  12.3401842   8.7264833
  21.5882263  40.4208717  48.0564003  21.8009815  41.2584953  48.4679260
  21.2936306  40.6544724  47.1761322  61.9973106  53.3166275  16.1683922
  61.2497101  53.2502365  16.7624588  62.0761604  54.2530441  15.9863510
  40.4293404   1.8189232  81.0345535  41.0357208   1.9570200  80.3069153
  40.5823898   0.9136786  81.3053665  69.6931915  21.3227386  25.5122318
  69.7292023  22.1563625  25.0431862  69.4339752  20.6848106  24.8473339
  10.7415390  22.8918285  16.2089577  10.3480062  23.7098923  16.5124989
  10.5409536  22.2591648  16.8986912  33.0445442  36.0083656  85.3278961
  33.3528671  35.1755066  85.6849899  32.7687874  35.7989464  84.4355240
  17.5265656  11.2541609  77.8779678  16.6185913  11.0199413  77.6857300
  17.5757694  11.2576675  78.8338928  24.3042965  33.4782333  73.5322647
  24.7530708  34.0556526  72.9146729  25.0105877  33.0365715  74.0037766
   5.8295999  64.6245956  64.8883133   5.3590269  64.0722198  65.5125504
   6.7517257  64.4057083  65.0224915  16.2657204  49.9324226  49.4196854
  15.8189144  50.4812050  48.7751389  15.8453350  50.1496468  50.2517433
   3.4237561  53.9157333  73.9197769   2.5611031  54.3163757  73.8123245
   3.8024142  53.9230423  73.0406876  51.2729721  69.7057724  17.9735699
  52.1904755  69.7640381  17.7070637  50.7805176  69.7921066  17.1573181
  60.9299278  24.6290894  47.8354378  60.8647423  25.2973251  47.1532021
  61.6381111  24.0557327  47.5422249  47.4777794  43.8920441  48.4777374
  47.0231056  43.2716827  47.9079552  46.9573975  43.9052124  49.2810211
  34.2970581  64.2309265  23.3694687  34.0816422  63.4163284  22.9153118
  34.9812660  63.9844437  23.9918346  72.1038589  21.6427956  26.9730530
  71.2236633  21.4195881  26.6702805  72.1282272  21.3417454  27.8813515
  85.3163071   6.3503575  69.1068192  85.2454376   5.4513965  68.7857590
  84.8592377   6.8759155  68.4502258  62.3916779  39.3375282  45.5823174
  62.2868271  38.6324883  44.9434471  61.6379395  39.9087219  45.4345169
  24.2079639   0.3620817  62.7076607  23.8131199   1.0797496  63.2029228
  24.9860821   0.1231555  63.2113228  27.3580685  38.9822845  32.7357368
  28.1158848  38.5386658  32.3547516  26.7977848  38.2724686  33.0495453
  75.1361923  70.4447479  44.5941315  74.6370926  69.6519318  44.3977165
  75.9939575  70.2921524  44.1976814  44.4277534  62.8878784  31.5094357
  45.3201637  63.0716057  31.8028355  44.0484543  63.7505341  31.3415318
  51.1282234  58.1678886  72.3577957  51.0593491  57.9015045  73.2745972
  50.2529869  58.4842033  72.1338882  22.2811775  47.2956352  56.6025200
  22.4918098  47.9609947  55.9474144  23.0793438  46.7726936  56.6779785
  63.6387444  19.0583363  34.0680809  64.5230255  18.8043137  34.3321838
  63.7203026  19.2804909  33.1405983  36.6262741  27.3400230  47.9097214
  36.7812767  27.1285629  46.9891281  37.1737633  28.1076832  48.0746078
  39.0385857  58.1789818  14.9952040  39.2598801  57.6763153  15.7791576
  39.5576210  58.9797821  15.0697203  26.3607407   0.5301213   4.7289491
  25.8483810   0.1196802   4.0323458  25.8561878   1.3064655   4.9717417
  85.1221924  31.5970764  80.8845825  84.7809372  32.1628265  80.1919785
  85.1242752  30.7209988  80.4989471  62.7068939   5.0845923  46.9047165
  61.8356361   5.0954175  47.3009758  63.2771034   4.7349324  47.5894318
  63.2462234  51.0949707   6.2190270  63.9334297  51.5761757   6.6799154
  63.7089424  50.3869438   5.7708964  41.9312096  63.0124130  70.2020721
  41.7826653  63.3226128  71.0953522  41.5747299  63.7049179  69.6456680
  15.8367929  62.0853806  84.6349182  14.9021902  62.2647400  84.7377777
  16.2384434  62.4470253  85.4249344  18.2021732  46.2794342  53.1448250
  18.5036049  45.6397095  53.7899017  17.9913216  47.0580559  53.6601143
  12.1506262  50.3253441  15.0942764  12.2817068  51.2176781  14.7736750
  11.3878660  50.3870544  15.6692724  67.5653229  43.1222839  74.5419693
  67.1842499  42.6819611  75.3016586  68.2059708  42.4986572  74.2000885
  40.3562584  12.5013523  73.0651016  39.4148026  12.3288612  73.0767593
  40.7051926  11.8825884  72.4235306  51.3912239  14.3044653  45.7444382
  51.8875923  15.0037012  46.1697884  51.4554405  13.5640535  46.3476791
  58.0660553   6.5932574   6.5862470  58.3099976   7.2911811   7.1942172
  57.8790169   7.0463438   5.7640786  69.9856491  39.2193260  36.2484512
  70.0643311  39.7282143  37.0553398  69.5086823  39.7931747  35.6489220
  46.3219070  44.8598175  66.4161682  46.6910896  44.8051834  67.2976151
  45.3748512  44.8784714  66.5538940   1.0404056  14.5296230  10.1457691
   1.1692307  15.4370203   9.8696079   0.2348761  14.2575159   9.7060966
  58.6624527  66.6397018  64.2420273  59.4677010  67.1083908  64.0226212
  58.8643188  66.1870804  65.0609360  47.4213715   7.1258636  63.0212708
  46.7789307   6.6969562  62.4559898  48.1662445   6.5248923  63.0362816
  24.6188965  64.5836029  44.1214066  24.6893616  64.8507996  45.0378494
  25.3219090  63.9447861  44.0034409  41.7584114  28.6949921  85.6089020
  41.5721397  28.5941391  84.6754303  42.6230011  29.1047363  85.6377029
  80.2989731  47.4931641  30.1181564  80.6659012  47.6811371  30.9820213
  80.8964615  46.8484154  29.7392807  59.2721558  71.5738068  47.0248756
  58.3395691  71.5124664  46.8181152  59.6512718  70.7737122  46.6610756
   9.2636843  22.9478683  82.1407776   9.7854090  23.2932758  81.4163971
   8.7722940  22.2215710  81.7570343  64.0087814  19.8894463  68.7270737
  64.8670578  20.2479916  68.5011749  63.8139534  19.2721367  68.0219421
   1.8699546  52.4658546  44.6541176   2.1642957  52.3698654  45.5598679
   2.0156417  51.6047134  44.2623978  46.1536446  65.7577667  42.1405678
  45.6146355  65.8274841  42.9285049  45.7270889  65.0787277  41.6178932
  45.6051788  59.3299332  36.6515007  45.2195091  60.0644760  36.1740761
  46.1722641  59.7400246  37.3045464  10.4015894   1.6166126  24.2921848
  10.9847193   1.8340609  23.5649261   9.5659065   2.0204325  24.0580997
   3.8899872  45.6209297  28.1752472   3.3904316  46.4161415  27.9900112
   4.2223921  45.7484207  29.0637760  43.4825287  49.0708694  51.0490417
  43.7051392  49.6487122  50.3191261  42.5300369  49.1323090  51.1212807
  85.8987579  34.5986671  18.7038288  85.7459488  34.8269768  17.7869015
  85.2826996  33.8874168  18.8794270   8.6551008  30.0562401  80.5686035
   8.6908121  30.1415787  81.5213242   7.7258830  30.1412945  80.3551788
  62.3053398  25.4601612   3.4957683  61.6637039  26.1675606   3.5599730
  61.7887840  24.6886692   3.2629497  73.4425278   8.6781244   0.8298482
  73.7098999   7.8132429   1.1408564  74.2508850   9.0775375   0.5084955
  79.0572891   6.1788759  31.9598732  79.4506683   7.0484114  31.8864174
  79.0602722   5.9931917  32.8988838  43.9529266  51.8863449   1.1274571
  43.4117355  51.7473717   1.9046490  43.9206467  52.8314095   0.9789877
  83.5599365  27.3973236  48.0295448  83.7114029  26.8828030  47.2367287
  82.6863022  27.7697887  47.9100952  69.4034729  53.3240356   6.6299644
  69.2633972  53.0399704   7.5332456  68.9903488  52.6437798   6.0981631
  41.4501610  44.3594894   0.2253568  41.4541435  45.1686020  -0.2860638
  40.5277138  44.1074295   0.2676759  78.6968918  65.0212936  12.4251966
  78.0611496  65.7244034  12.5582628  78.9026794  65.0580826  11.4911041
   3.9675064  33.2824478  36.1726036   4.8884029  33.3870430  35.9333534
   3.4843633  33.5901909  35.4057274  75.1809006   0.8699363  24.0900269
  75.1087112   1.8011624  23.8806515  74.2755585   0.5766847  24.1928940
  75.0031967  37.3154678  25.1471977  74.3957367  36.6603470  24.8036251
  75.7012024  37.3608780  24.4937763  32.5712585  37.9075623   7.9334764
  33.3964767  37.4725647   7.7189407  32.8343658  38.7332268   8.3400221
  48.7066460  44.1105843  69.0084000  48.9562492  44.6153069  68.2343292
  49.0584030  44.6112785  69.7444687  59.5053024  56.9099007  17.9537201
  59.7525673  57.4201241  17.1825104  60.1916695  57.0962639  18.5943489
  63.8628807   2.9789765  21.6241684  63.2347832   3.6883466  21.4880772
  64.2778702   2.8593524  20.7699413   0.8166091  50.2715149  83.4750900
   1.6779369  50.1736908  83.8810196   0.2532841  50.5871506  84.1816864
  80.8411789  49.6023865   0.7903410  80.4637299  49.5005417  -0.0833843
  80.1472015  49.3189545   1.3855669  43.8156281  36.9795341  80.0550613
  44.0814705  36.7189255  80.9368973  43.0038605  36.4974709  79.8973389
   6.2455401  24.9175339  51.8837585   5.3030725  24.7568779  51.9304085
   6.6130891  24.3954544  52.5969009   9.5705862  15.4657536  87.7817612
   9.3416948  16.3919182  87.8596039   8.8343515  15.0758810  87.3103867
  24.6654034  68.9249191  28.8689365  24.3229504  69.8007889  29.0472889
  25.5707455  68.9541397  29.1783447  56.8745117  32.4302597  46.1137695
  57.0991402  31.8987312  46.8774796  56.7663765  33.3154907  46.4614868
  15.3015499  43.8544388  46.3215561  15.7377005  44.6645470  46.0574875
  14.9470463  43.4969292  45.5074654  14.1841431  53.9598274  28.0357704
  14.3678303  53.3106956  28.7148285  13.6625605  54.6289978  28.4789276
  79.2910690  58.4188080  56.9256554  78.9813232  58.7002792  56.0648079
  79.4225464  57.4749260  56.8360443  80.5839691  13.6468792  23.8999939
  80.6180496  14.3500252  24.5485744  81.2793198  13.0441217  24.1634388
  77.6321564  23.6930351  27.5273418  78.2900925  24.0980225  26.9622383
  77.3696594  22.9003754  27.0593510  53.8519402  29.4702339  76.0120850
  54.6969757  29.0667305  75.8137665  53.2053070  28.8276558  75.7202072
  30.9721775  51.4740181  40.5789375  30.0985146  51.6466904  40.9298363
  31.4420128  51.0564728  41.3008423  78.0351028  56.7918777  32.5970154
  78.8185730  56.3961525  32.2151756  78.3595047  57.5601654  33.0668297
  65.6361008  22.8494110  44.7778397  66.2021103  23.1526051  45.4877281
  64.9665298  23.5288391  44.6985703  22.1704674   9.1867714  72.3932877
  22.0211239   8.2884922  72.6882782  21.5696354   9.7146063  72.9192352
  40.7602768  27.3269768  20.1192436  41.1271362  28.1232471  20.5034275
  41.5100670  26.7396641  20.0237923  85.5155716  62.5542412  25.8588524
  84.6434021  62.9203644  26.0054855  86.0743103  63.3175888  25.7127647
  28.4358711  31.3237133  68.0213394  29.3616390  31.3911057  67.7875748
  28.2199326  32.1787910  68.3934174   9.8227682  38.7001343  37.7651215
  10.0708532  38.5481987  38.6770439   8.8696671  38.6119080  37.7583084
  83.0455322   3.1289098  35.6683693  82.9871521   3.2188997  34.7172012
  82.4486542   3.7951646  36.0090675  82.7638855  33.6536102  21.6461716
  83.4798126  34.2880936  21.6795292  82.1956024  33.8950424  22.3776093
  79.7980423  52.9856224   2.2143936  80.6304550  52.6355171   2.5317888
  79.5486069  53.6394653   2.8674691  11.3268013  32.8988228  69.3996277
  10.8180103  32.8340149  68.5914459  12.2314053  33.0050697  69.1052856
   8.0626822  53.4379807  13.0433073   7.8056860  53.3428650  13.9604425
   8.4085121  54.3284569  12.9825897  57.3671951  57.5167656   5.3432550
  57.4626465  56.5643501   5.3486996  57.5208244  57.7780685   6.2511930
   2.0357800  15.3649397  79.7074356   2.8086190  14.9493093  80.0898056
   1.4466138  14.6374187  79.5078659  34.3152428  49.1042709   5.4012432
  33.4353294  48.7625160   5.5599523  34.2707062  50.0190315   5.6795626
  50.2959824  54.9407158  85.9275970  50.8235092  55.0043678  85.1314240
  50.1719894  55.8481216  86.2059402  52.8123932  10.7425461  62.6759644
  53.0977287  10.2944536  61.8797073  53.5936317  10.7700577  63.2283630
  63.2172852  32.6160011  47.9037209  62.6987801  33.4177856  47.9710083
  63.8263245  32.6620712  48.6407242  74.5451584  59.4231186  25.9138947
  73.9385300  59.4906578  26.6512318  74.7424698  58.4885941  25.8509026
  77.8348160  26.1642265  80.0182419  78.3266144  26.2914581  79.2069550
  78.3218994  25.4887524  80.4901657  56.6623802   0.1235698  46.5886612
  56.0479889  -0.4413407  47.0573082  56.4217453   1.0112257  46.8539734
  69.0974426  25.6836758  64.2434311  68.5448914  26.3713322  63.8718834
  68.9295197  25.7240486  65.1849213  62.2085037  57.4956741  31.5756683
  62.2615623  56.5783997  31.3072929  63.1180611  57.7934494  31.5919952
  78.0960159  22.4428635  50.5223618  77.6269684  22.9966316  49.8982086
  77.5850372  21.6341705  50.5561790  54.3405685  30.9962082  47.4149933
  55.1226768  30.9182491  46.8686829  53.6271896  30.6850491  46.8577652
  47.8995285  43.2502213  12.5674553  48.0055275  44.1118584  12.9706650
  48.0273323  42.6318016  13.2867985  22.8479214  41.3554764  84.7088928
  22.5207748  40.4811172  84.4974670  22.1456356  41.9462357  84.4368057
  16.5613117  42.9821434  26.9355011  16.7964764  43.3768272  26.0957680
  15.9183922  42.3090935  26.7121315  65.7736282  28.9337959  32.3772507
  65.2818222  28.4620495  33.0494194  66.1860275  28.2457333  31.8550167
  36.5749321  40.6204567  52.8656921  37.1225052  39.9097633  53.1993256
  36.9102936  41.4050636  53.2994537  46.3480453  46.8263397   0.3520849
  47.0227966  47.5039749   0.3102078  45.9681206  46.8120346  -0.5263713
  48.6548157  48.5904617  17.4912720  48.5886154  48.3318405  16.5720520
  47.9223404  48.1463051  17.9183941   9.9104490  48.5402603  78.7735367
  10.0296087  47.5981636  78.8938751  10.5169945  48.7704277  78.0697174
   9.5954323  52.2843361  36.0845566   9.2920876  53.0397644  35.5810318
   8.8650446  52.0758095  36.6670380  21.0124187   1.8188722  88.5893021
  21.2061195   1.8070347  87.6519775  20.0631275   1.9323184  88.6362839
  65.5928421  11.7379951  40.9768753  65.9643936  12.5782127  41.2456055
  66.3516083  11.2069807  40.7349472  -0.0966471   9.6018801  72.6958084
   0.4739288   9.3038521  73.4042282  -0.0976484   8.8786783  72.0687485
  81.0775833  12.1792421  54.4579811  80.9725494  12.8585224  53.7918167
  82.0229416  12.0381327  54.5091896  25.5925426  47.9272385  79.4936066
  25.5301914  47.1465645  78.9432526  25.4850140  48.6583786  78.8852386
  37.4799614  25.7837353   2.8706901  38.3843689  25.5637341   2.6473577
  37.5299377  26.1247482   3.7636876  68.1265030  71.1978760  28.9030819
  67.4969940  71.4260101  28.2190456  67.7182617  71.4996185  29.7145748
  23.8695145  60.2873383  34.3328247  24.1649837  60.9215126  33.6795578
  24.4983845  60.3711624  35.0495758  64.8939056  67.4522171  73.9447784
  64.0426636  67.5236053  74.3766632  65.2914810  66.6698151  74.3268890
  34.4841385  49.5272026   9.0914135  33.8539429  50.1162720   8.6765842
  34.8733940  49.0420761   8.3638391  69.7123337   6.2947335  63.7297211
  70.1497574   6.9051733  63.1362076  68.7903366   6.3324780  63.4752998
  22.4875755  45.3884239  74.6814957  21.8799267  44.9801788  75.2982025
  23.1022167  44.6909142  74.4536209  20.1183224  44.3099747  11.6595078
  20.3247986  43.9550514  12.5241623  20.7514458  45.0166969  11.5332699
  44.2973709  44.9101448  86.0960388  45.0371552  44.9002457  85.4887085
  44.1150436  45.8392944  86.2362900  30.4922237  44.7969894  42.7653427
  30.6547375  45.5830116  43.2868729  31.0960579  44.1447563  43.1205978
  46.7166405   3.7731116  38.0174408  47.4939156   4.0865397  37.5550156
  46.0788383   4.4802437  37.9204483  36.6231422  56.9587021  39.0750694
  37.5142708  56.6884270  38.8535500  36.2701340  56.2275276  39.5820236
  47.8482437  57.3296089  42.5892944  48.7057648  57.6693535  42.8451500
  47.6259651  56.6996078  43.2748070   3.5700612   2.4136899  23.4627266
   3.3300536   3.3321190  23.5856743   3.2226655   2.1888289  22.5996017
  77.4486389  40.3060951  29.8122387  78.0615921  40.3576508  29.0788479
  77.4873428  41.1721382  30.2180748  75.1596756  16.8770237  46.3767395
  75.1088791  17.4623947  45.6211014  74.5142746  16.1940403  46.1944389
  24.4983101  22.5882683  64.5733795  25.2249622  23.1311855  64.2676849
  23.8068485  23.2136097  64.7903137  84.6224670  68.0685654   3.4471314
  83.8944016  68.6820602   3.5460155  85.0113754  68.0156937   4.3201632
  18.8828259   1.1889256  52.9703712  18.8428516   1.3044208  52.0210075
  18.1232872   1.6677698  53.3020973  12.8850327  32.2943840  27.0229683
  12.0893230  31.8028965  26.8192101  12.9977760  32.1867867  27.9673958
  37.2479515   6.8228660  14.7057533  36.6466675   6.7909856  13.9616623
  37.9996872   6.2989864  14.4288464  43.3643456  66.6931305  18.7077332
  43.3737564  66.6784439  17.7506905  44.2877808  66.6556931  18.9569378
   2.5135512  70.8340759  18.3908596   1.9875973  70.3305283  17.7695351
   2.2667916  71.7449265  18.2305431  46.2160072  42.5597839  84.6142807
  46.8842278  42.1452293  85.1600494  46.2535934  42.0823212  83.7855148
  84.0246735  23.6626282  48.4608994  84.4375305  24.0335598  47.6810303
  83.3375397  23.0906086  48.1190376  65.7240448  60.2148094  26.4599991
  66.3654404  59.5475006  26.7040081  64.9241257  59.9570503  26.9181728
   5.2695274  44.5814781  40.4331512   4.5914335  45.2500343  40.3359261
   5.3387208  44.1825981  39.5657768  84.7413635  13.2447701  38.6165123
  85.1614914  13.9573374  39.0981407  84.7671585  13.5259991  37.7019196
  64.7388153  25.8886623  50.9221649  64.3212280  26.4055748  51.6111183
  65.3782272  26.4836502  50.5305405  72.2985382   7.7178173  54.0181923
  71.7075348   7.5332289  53.2882080  72.7501907   6.8888006  54.1762276
   0.5167069  35.7523232  55.4011993   0.2757091  34.8362007  55.5385590
   0.0142773  36.2333374  56.0587883  18.7708111  17.2221909  80.3615417
  19.0035172  18.0039406  80.8624878  19.3109264  16.5271568  80.7376175
  41.3400993  50.4475708  61.1901016  40.3957939  50.2932739  61.1634331
  41.7245331  49.6393127  60.8507347  76.9100266   5.0519772   0.6299983
  76.1850433   4.9461012   1.2459694  76.6732788   5.8208356   0.1113095
  56.7804871  15.4315062  71.0907059  56.2299919  15.0015144  70.4362564
  56.2994308  16.2254791  71.3239975  65.5731735  31.1779785  55.8768311
  64.8655624  31.3446236  56.4995308  66.3355637  30.9917698  56.4248390
  79.4530716  26.3007011  88.9240417  78.8877945  25.9018326  89.5855484
  80.1108093  25.6312218  88.7358551  31.0000553  60.2508736  45.0424347
  31.9010887  60.1698837  44.7296867  30.9447384  61.1429214  45.3851051
  15.8826523  66.6435699  78.3763428  16.7686157  66.8054199  78.7005463
  15.3598595  66.5063705  79.1663437  55.2028694  56.8599510  45.0172920
  55.6944847  56.0794678  44.7615700  55.1795769  56.8256912  45.9735947
  65.3338928  47.7743111  31.4237041  65.7489395  47.5423660  32.2544708
  66.0463715  48.1261826  30.8900356  71.1733932   6.2286239  87.8222275
  71.0993958   6.4905887  86.9045486  70.6524811   5.4280796  87.8855362
  22.7838974  43.4905853  54.3370590  23.2289314  43.5641136  55.1813202
  22.8195515  42.5571747  54.1280060   2.8733611  47.6916008   1.6728770
   2.4377863  48.1094551   0.9299745   3.7114685  48.1480446   1.7468158
  41.3048210   4.9882212  77.6664963  41.4268761   5.3587670  76.7924118
  42.1294823   4.5398254  77.8538513  21.8609734  40.4404755  11.0187902
  21.1208324  40.8873405  11.4295626  22.4832706  40.3018341  11.7327642
  40.2444572  35.3156548  76.9096756  39.3014679  35.4392128  76.8013535
  40.3242874  34.7284622  77.6613846  65.7661591  53.4868813  46.0113182
  65.7204971  53.8261490  45.1174278  65.2651291  54.1148682  46.5317345
  74.0709229  62.7738380   2.5250962  74.6330719  63.0408516   3.2523696
  74.2149429  63.4407158   1.8537071  11.4020243  52.6477928  82.6934509
  11.8652601  52.4588585  81.8773956  11.7015629  53.5222931  82.9419556
  49.1979179  40.1690521  34.3988914  49.6698990  40.5801926  35.1230659
  49.2153130  40.8227234  33.6998634  81.0229187  56.3934784  29.7227802
  81.6661224  57.0300064  29.4107571  80.8642273  55.8244591  28.9696102
  49.9874001  30.1438885  72.6595917  50.7001534  30.5922432  72.2044067
  49.1913147  30.5499630  72.3166885  56.4961586  54.8677177  25.1873856
  55.6893806  54.4199867  25.4420929  56.3806114  55.7653236  25.4991283
  74.3760910  29.2701321  59.9564476  74.8376617  29.9614010  59.4817543
  73.7707443  29.7377987  60.5318375  39.4823074  48.1111755  82.3858032
  39.2110596  49.0260773  82.4607086  40.4370956  48.1385765  82.4479523
  59.5690384  70.8269272  33.6698685  58.7991447  70.6267014  34.2022247
  60.0555420  71.4705887  34.1848946   7.9209528  66.4343109  25.2605171
   8.8189688  66.7654343  25.2480793   7.5578055  66.6950150  24.4141178
  40.6731567  56.5051765  54.5380974  40.0250626  56.2414742  53.8848991
  41.4824944  56.6194153  54.0399437  72.9625473  22.0311508  74.3743744
  73.3521576  22.9053154  74.3909073  72.0192795  22.1885147  74.4156647
  17.9461384   2.7453003  57.0594559  17.7643986   1.9393935  56.5760117
  18.0187759   3.4189739  56.3833504  60.3551216  58.7194366  15.9041147
  60.1568604  58.5827141  14.9777069  61.2072334  59.1554832  15.9048738
  12.8420391  64.1219559  55.2731400  13.4459143  64.8115997  55.5487480
  12.4159260  64.4748077  54.4920158  60.4788246  67.4531326  74.0514221
  61.3248444  67.4943390  74.4972763  60.6663055  67.7333527  73.1555634
  16.5335903  40.5562325  23.8440914  17.1146507  40.6261444  24.6015282
  17.0770779  40.8166885  23.1004410  33.2784386  42.7540665  27.4676094
  33.2223206  42.0488930  26.8227711  32.6293221  43.3953285  27.1783714
  50.6733208  61.1685410  64.4630127  50.8443794  62.0802307  64.6992188
  49.9295235  60.9150238  65.0095673  55.4805603  54.9194450  29.8996906
  56.1854095  55.5617981  29.8172417  55.1769943  55.0115547  30.8027954
  77.6924744  45.7719040  28.4415836  76.9492798  45.4332733  27.9423599
  77.4018784  46.6296043  28.7516441  66.4322205   3.6411488  73.6780777
  66.2372360   4.5646596  73.8372726  67.3400192   3.5355105  73.9626236
   1.5877190  46.4123421  70.2139587   2.1304927  46.5527725  69.4381256
   2.1202838  45.8547211  70.7811127  16.5631542  45.6466980  51.0886078
  17.2074242  46.0565796  51.6657982  16.7333603  46.0309105  50.2285843
  30.1723404  55.8137703  30.8797874  30.5567741  55.8179283  30.0031891
  30.5654850  55.0545158  31.3101349  20.4766426  39.8550377  17.5395527
  19.8293018  39.3804359  18.0610294  19.9628391  40.2941895  16.8617764
  53.6247826  69.9297791  35.0836601  54.2936058  70.1467361  35.7331543
  54.0940514  69.4330597  34.4133682  30.1337891  20.2227802  82.8357468
  30.2423191  19.8214588  83.6979523  29.9264469  19.4905739  82.2551346
  47.9949226  54.0384789  70.1070328  48.8231201  54.4423332  69.8477631
  47.3302765  54.6897011  69.8825531  59.1373215  28.7299538  65.2059937
  59.0896530  27.9137268  65.7037201  58.3444405  28.7301311  64.6697311
  85.7421112  67.5567627   6.0894680  84.9697495  67.0962677   6.4175358
  85.8982620  68.2497711   6.7310162  78.4261322  61.5662842  83.2672729
  77.6297226  61.1727142  83.6237411  78.2523270  62.5075417  83.2750549
  75.7835083  23.7708988  16.4225788  76.6831741  23.4447651  16.4444180
  75.8324280  24.5741005  15.9042101  58.8439026  29.9902668  43.1274109
  57.9989967  30.4264336  43.2375183  59.4180450  30.4161148  43.7639999
  41.6963997  54.4356384  74.0497589  42.2430687  53.6604767  73.9212646
  41.0368080  54.1606674  74.6865921  83.1581650  58.6092033  28.9771919
  82.6988602  59.1585617  28.3419933  83.4876785  59.2246246  29.6321068
  -0.0683657  30.6112328  58.9709320  -0.5036560  30.6865406  59.8200989
   0.6179605  31.2780704  58.9936295  31.6665020   6.7329521  13.4417057
  30.9398556   6.1184759  13.5448446  31.5382919   7.3748851  14.1400728
   4.0496831  70.2324600  58.8430138   4.3591723  69.4908600  59.3630829
   4.3484836  71.0039291  59.3244591  72.0816803  60.1745338  23.2037354
  72.5112228  60.7717285  22.5912971  71.3392715  60.6737251  23.5441437
  55.6925697  25.8043308  27.8399887  55.9494858  25.4882202  26.9737911
  56.3978386  25.5156441  28.4192009  14.7188644  36.5296555  23.8550148
  15.3286104  36.0931168  24.4498901  13.9212132  36.6445503  24.3715267
  42.1851654  14.0136728  13.9459095  42.6825142  14.1079206  13.1335087
  41.4513550  13.4449406  13.7128954  31.5166798  38.6138229  66.8396683
  31.8030167  38.0396690  67.5500107  31.2670040  38.0164108  66.1346893
   1.1493438  58.5988541  37.8592072   0.6608658  57.9299202  38.3389473
   1.8853291  58.8148155  38.4318466  80.9498672  45.1844177  89.0641937
  81.4489975  44.7430458  89.7514267  81.6153030  45.5295334  88.4689484
  80.7574615  31.3212872   4.0799913  81.6484985  31.1103191   3.8011196
  80.6835709  30.9396667   4.9547138  55.0257607  14.8588047   0.4468782
  55.6828423  15.4562397   0.8040122  54.8413200  14.2502394   1.1623234
  33.9133911  55.0525703  25.2420635  34.7069855  54.9987564  25.7745495
  33.2738228  54.5161362  25.7104893  55.9799652  29.1805573  30.4954643
  56.6024933  29.7868805  30.0941391  56.0644836  28.3764935  29.9830494
  60.4154968  61.8872299  20.1026688  60.9567604  62.3005142  20.7753220
  60.4254074  62.5068626  19.3731575  47.7832413  31.1822872  86.0560913
  48.5424232  31.4011402  86.5964432  47.6845779  30.2352333  86.1540070
  81.9252319  51.9407310  61.2025261  81.5014191  51.0901108  61.3168297
  81.3088608  52.4461288  60.6725349  28.6066322  50.5515862  54.1302910
  29.3230457  50.1912613  54.6529274  29.0419865  51.0354576  53.4284592
  62.2302322  38.9770966  70.4155426  63.1000290  38.6824951  70.6855469
  61.8311310  38.2066078  70.0114441  48.1465759  14.9414654   4.5067110
  48.5222321  14.8278770   5.3797593  48.5761681  14.2735157   3.9723644
  47.5967712  57.0019913  36.2830391  46.6995811  56.9328079  36.6093788
  47.8551903  57.9019661  36.4817657  66.0929260  42.9967117  46.6810074
  66.3938065  42.1970024  47.1124802  66.4042816  43.7047653  47.2448769
  77.6315384  24.4260082  47.0192871  77.2224960  23.5996647  46.7622528
  77.5507584  24.4468346  47.9728432  60.9065132  44.5203514  64.6103439
  61.3357697  45.2494850  65.0579300  61.3358955  44.4776344  63.7559204
  12.6422110  17.4991627  81.9076996  13.5921440  17.5659657  82.0046310
  12.4096041  18.2214851  81.3242798  52.0413246  36.7336044   6.1088428
  52.9736633  36.5191765   6.0773034  51.6789780  36.1316681   6.7589273
  75.3770447  43.5410118  20.4430847  74.8517990  44.1095467  21.0062084
  74.7563705  43.2045631  19.7967129  29.2293816  36.7854729  82.8372574
  28.7314110  36.8624458  83.6510925  29.1785259  37.6558228  82.4421158
  59.2313042  24.5397778  44.6283379  60.0148735  24.1902351  44.2039909
  59.3738823  25.4859924  44.6524620  13.9102440  38.5432510   4.0136557
  13.5903206  39.1908798   4.6417127  14.4641361  37.9598351   4.5323663
  36.2358055  13.2653351  69.9092178  35.8913383  12.4217510  69.6160660
  35.9455833  13.8874302  69.2421341  85.9713287  57.7516289  65.8564758
  86.0907059  58.5662994  65.3683243  86.6034393  57.8069954  66.5731277
  44.8434830  32.2847633  29.3196316  45.2076607  33.0854263  29.6971798
  44.0328026  32.5668983  28.8960419  40.2682076  55.5667725  41.2535896
  39.6376076  55.6249123  40.5358162  40.7639275  56.3840866  41.2036819
  58.7830544  24.2935371  30.4237595  58.5198364  23.6549225  31.0864201
  57.9642830  24.7086506  30.1526089  62.8486099  31.5514736  76.4003983
  62.1034889  32.0212326  76.7750320  62.4547005  30.9110928  75.8079605
  25.7585659  11.4480658  72.2115402  25.7998562  12.0149431  71.4413605
  24.9380188  11.6882029  72.6419678  83.4129715   7.2861648  54.8977013
  83.8203506   7.1271262  55.7491608  83.2358475   8.2267923  54.8888817
  84.5761566  70.6515579  16.0332718  85.2030411  70.7903061  16.7431946
  84.4659882  71.5165939  15.6385517   8.9616804  53.3189163  62.3129349
   9.6886034  53.8531609  61.9929390   8.8882895  53.5450211  63.2401466
  84.9941635   7.0179548  46.6150436  84.8740005   6.6903124  45.7237282
  84.9386368   6.2376089  47.1665955  22.1132851  67.7471008  87.4836731
  22.8294353  68.0447922  88.0446930  22.1191788  66.7941132  87.5731888
  68.3447189  38.3263855  48.2183113  67.9048386  37.9892731  48.9987526
  69.2245483  38.5540657  48.5187988   8.4047689   1.9346068  13.2567158
   7.7095876   1.2773291  13.2260456   9.0922832   1.5826311  12.6913223
  23.2762413  56.9515190   6.5669627  23.1189709  57.2561989   5.6732798
  22.6158161  56.2732544   6.7084823  64.1864319   2.6822619   0.5496843
  64.3709717   1.9490887  -0.0373716  63.2316132   2.7493484   0.5562834
  84.3148499  25.8685837  23.2283249  84.4956360  26.8069248  23.2836800
  84.5362091  25.5304222  24.0960102  33.0916252  59.6006927  49.7110329
  33.4549294  60.2768440  50.2829247  32.2024689  59.4631004  50.0376816
  61.4570885   9.8692694  35.5012093  61.7003708  10.5057659  34.8289642
  61.9112015   9.0661631  35.2461929   2.2898974   7.8391042  58.4512177
   1.4473652   8.0867891  58.8320389   2.8388259   7.6221466  59.2047691
   1.3392828  65.9649734  66.2681580   0.7147990  65.2559357  66.4215088
   1.9675666  65.6001663  65.6449356  52.4372330   9.7407694  12.9632111
  53.2786980  10.1745977  13.1044979  51.7873306  10.3728418  13.2703648
  80.3384552  41.4601059  87.0461731  80.2885666  41.3652191  86.0949936
  80.5813217  40.5895119  87.3613129  51.8729591  52.7199059   9.7522993
  51.7549286  53.6249237  10.0408125  51.0340652  52.4832878   9.3566990
  64.6694717  42.6995964  59.5482063  64.1636047  41.9461555  59.8526115
  65.1826630  42.9673271  60.3105583   9.6540232  16.7211323  84.1985855
   9.9525414  17.5645657  83.8583755   8.9528980  16.4571495  83.6027908
  70.2868652  33.9197121   8.8095922  70.3767548  34.8411064   8.5663109
  71.1596527  33.6647186   9.1086826  33.5726128  43.1188087  79.3528214
  33.1231346  43.8580894  78.9433517  33.6465912  43.3644447  80.2750015
  68.5613022  50.3733940  65.3045349  68.3097382  49.6766586  64.6983109
  68.2377167  50.0786133  66.1557846  18.3213024  37.1288490  50.5456009
  17.5460014  36.6099663  50.7598419  18.2785664  37.8792610  51.1382980
  51.9875069  30.9091053  60.0756874  51.3361282  30.6051445  59.4435883
  51.6246986  30.6682358  60.9280853  41.6573524  42.6539536  35.0857010
  41.9137039  41.8541718  35.5448990  42.2591934  43.3219833  35.4139595
   5.8218908  20.3443050  62.4444046   5.3768983  19.6100292  62.0212593
   6.6124363  20.4786606  61.9216995  63.4598732  65.1111298   9.7243376
  64.2480774  64.5759125   9.6320686  63.5210838  65.4775391  10.6065092
   7.3424883  49.6563530  17.7351246   7.2721815  49.4758873  18.6725254
   6.4877677  50.0144157  17.4953823  64.3896942  47.2323532  74.6665802
  65.0311890  46.7747459  74.1231537  63.6358452  46.6431580  74.6947098
  22.0277176  15.2440233  43.9795151  21.5857010  15.6025972  43.2099190
  22.1007195  14.3068676  43.7988396  18.4927654  43.9636269  28.5279255
  18.4383297  43.2707634  29.1861115  17.8842068  43.6902695  27.8415127
   1.3333931  63.3233070  86.7992706   1.5640434  62.8847046  85.9803314
   0.3787316  63.2671089  86.8404388  49.7452469  16.8112354   3.0493104
  50.1646996  16.5386353   2.2332332  49.1058846  16.1226101   3.2316439
  65.9577789  66.2740860  28.8122883  65.3915100  66.8345871  29.3427715
  65.4365845  66.0745163  28.0346241  51.1642532  12.4417105  60.1908531
  51.2183266  11.6838636  60.7730713  51.1156807  13.1939592  60.7807655
  17.2449913  23.9558201  63.0235252  17.3850689  24.7653732  62.5323715
  17.7312317  23.2918911  62.5346489  38.6408195  11.2192373   1.7582690
  38.5558243  11.3297119   0.8112723  39.5783005  11.0889130   1.9010146
  22.1239376  53.9769974   4.3604264  21.2121735  54.0437355   4.0767603
  22.0877285  54.0861473   5.3106928  60.9934082  65.7402954  12.4684219
  61.3045120  66.6433945  12.5305090  60.0629120  65.8213730  12.2590475
  40.9916153  29.1296158  22.6451225  41.8337212  29.2883053  23.0716305
  40.3882675  29.7373619  23.0727291  12.9437389  35.4749298  34.6394730
  12.2293825  35.0214767  35.0870323  12.5474129  35.8117790  33.8359261
  86.6029129  14.9229794  29.9043331  86.6355667  15.3987494  30.7342777
  86.6568222  15.6050816  29.2349586  46.1536636  16.6393547  40.3280182
  46.6661758  15.8392429  40.2123184  45.8586502  16.6053333  41.2379875
  46.3245964  36.3155327  78.6915894  45.5933990  35.8077202  78.3398666
  46.0413322  37.2267838  78.6166458  43.0082321  62.0078125  46.7519379
  43.0766563  62.9419441  46.5545692  42.4572029  61.6551170  46.0532227
  86.5026703  45.5099297  17.5448570  86.8047867  44.6065483  17.4507561
  85.7006226  45.5497513  17.0239258  71.2392883  44.4259491  41.2061882
  71.6901398  43.6204834  40.9528275  71.9120407  45.1045914  41.1507187
  56.9277344  31.2858086   6.6069465  56.1031494  31.1349487   7.0690389
  57.2438087  32.1224823   6.9479828  11.4645300  12.7950640  14.1602964
  11.2864943  12.3771391  15.0028362  11.1650257  13.6972599  14.2724180
   7.0584750  46.5572701  73.1922760   7.7030783  46.1755791  72.5964279
   6.8270788  47.3945999  72.7903214  21.0623264  70.4853745  11.9417648
  20.1054440  70.4613800  11.9361477  21.2885876  70.8131104  12.8121824
  44.8247986  26.7064648  22.5402660  44.3486710  26.4529209  21.7495384
  45.6875496  26.3042545  22.4396763  16.3347397  43.4766846  11.0806656
  15.9980173  43.4061356  11.9739027  15.5514994  43.5260849  10.5326462
  48.3420029  24.2658463   6.9280062  47.9783249  23.5349731   6.4282126
  47.7722359  24.3394852   7.6936269  63.6967239   6.5886927  89.0187378
  64.2087555   6.2378125  88.2900848  63.8618927   5.9828587  89.7411804
  85.0567551  26.0262737  77.7783737  85.7415924  25.7188816  78.3722992
  85.3176575  26.9194298  77.5537949  67.1875534   6.4101171  88.9574356
  66.5323410   6.0119953  88.3843460  67.6816711   6.9968939  88.3849258
  70.7324829  67.2172012  75.2867661  70.5486679  67.1052856  74.3540726
  71.0921936  68.1015701  75.3555603  22.4112320  36.1615448   2.8086398
  22.1528473  36.6316414   3.6014061  23.3095493  35.8788223   2.9798861
   1.3555921  63.4237480   1.9257581   1.2973551  62.9434013   1.0998614
   1.1236268  62.7793655   2.5944839  38.0956421  18.2599430  10.9940853
  38.8203659  18.7090988  10.5590353  38.1243401  17.3679695  10.6479721
  19.5164127  28.6515369  78.1889725  18.6494713  28.8053360  78.5644608
  19.3413315  28.2392693  77.3430328  79.5656586  20.2328625  60.4414215
  78.9660416  20.3043041  59.6987381  80.1286545  19.4898682  60.2241020
  60.1816139  17.0487461  37.7982330  60.5955887  17.6850643  37.2151756
  60.7422714  17.0344715  38.5739250  32.9356461  53.2076035   7.7153797
  32.5025597  54.0055771   7.4122305  33.7369156  53.5159569   8.1386042
  49.1830978  33.8941040  37.6618614  49.7633629  34.6508675  37.7445602
  48.6572685  34.0793762  36.8837814  16.5665836   2.8369784  71.3196182
  17.4203358   3.2695670  71.3340530  15.9370422   3.5448878  71.4566269
  71.8131638  43.4888611  11.7028189  70.9312363  43.6780930  12.0231791
  71.7162781  42.6819611  11.1970949  72.7163315   0.0137169  73.7706909
  72.1431732  -0.0743140  73.0091324  72.4973602   0.8702975  74.1375122
  80.7943344  57.6335793  65.0888443  81.6587296  58.0394020  65.0228806
  80.3385773  58.1477356  65.7552948   8.9297686   7.4398422  16.1960220
   9.2848577   8.2237349  16.6151371   9.4782648   7.3128018  15.4219131
   6.8456240   7.0920639  24.2303619   6.8338904   6.9471197  23.2842712
   6.6915627   6.2258034  24.6073093  34.6963501  55.2657547  84.4669647
  34.5861549  55.9484978  83.8051834  34.9180679  55.7415848  85.2673798
  64.5886459   0.9284411  59.5765343  64.2639236   0.5350339  60.3864822
  64.7028351   1.8547132  59.7891655  42.6409035  37.4747276  55.6531410
  43.5116081  37.2831078  55.3047333  42.5401688  36.8727455  56.3905029
  56.7738953  53.3519211  42.3537445  56.2509842  53.0445976  41.6132355
  57.3370895  54.0316277  41.9835548  64.7949448  42.4412727  23.8666134
  65.0626755  41.6315079  24.3011646  65.6151657  42.8385048  23.5739098
  48.2673836  31.8644829  46.8407211  47.9880600  31.8226261  45.9261398
  47.4779663  31.6597557  47.3418579  63.5453873  18.0904198  45.1477127
  64.3185349  18.5075474  45.5278168  63.8891449  17.3281689  44.6818428
  57.0913925  35.4381523  29.8074188  57.2396584  34.8063965  30.5110779
  57.2490425  36.2904434  30.2135887  66.4286957  53.4150162   9.8793287
  66.3413620  53.3540764  10.8305864  67.2798157  53.8312798   9.7431307
  50.6518021  35.0079117   8.9629345  51.4508247  34.6335335   8.5919418
  50.9614143  35.6148758   9.6352186  63.4916191  14.2716141   0.0392648
  63.7205009  13.3441486  -0.0211756  62.6431313  14.2805481   0.4822319
  76.8687820   3.1289487  26.8060894  77.6409149   3.6842220  26.6978588
  77.1612549   2.2574003  26.5394554  72.1826019  63.1593513  73.3916016
  71.7696304  63.4835320  74.1919708  72.7809296  63.8593407  73.1303558
  49.8176117  42.9025154  55.9594879  49.2451668  43.5979271  55.6355324
  49.2953606  42.1045761  55.8771439  25.4050579  52.4028168   2.4957571
  26.3274193  52.1688995   2.5995095  25.2910576  53.1775513   3.0462344
  61.8310890  56.3946800  61.0833244  61.6547432  57.2638435  61.4434509
  61.4696236  55.7893295  61.7307205  77.5804825  49.8052025  36.8273430
  78.2805405  50.3708115  37.1532860  76.7962265  50.3531609  36.8575096
  11.5301104  19.4186077  22.3122654  11.7502480  18.6660385  22.8612766
  12.0388498  19.2882538  21.5120010  75.6972809  36.0391235  53.0537949
  75.9928131  35.3152733  52.5015869  75.9815674  35.7991104  53.9357262
  33.7458725  44.8484459  14.8434696  33.0274467  44.6680183  14.2372160
  34.5372162  44.6491737  14.3431721  57.2040672  25.6118774  11.9347429
  57.1870651  25.1710644  11.0852566  57.6776123  26.4276295  11.7718391
  57.6659241   7.3135071   3.7988122  57.9711227   8.1968489   3.5919464
  58.3861313   6.7425141   3.5314138  62.7369118  38.1244087  75.4767990
  62.6500092  37.1782761  75.5930252  62.4863815  38.2778206  74.5657883
  75.2261734  36.2658081  15.1641369  75.5990219  36.9914436  14.6634617
  75.6145020  35.4820633  14.7753248  20.3637848  37.5513916  68.1965179
  19.8678513  37.6794968  69.0051422  20.7120686  38.4185486  67.9892273
  39.2784081  19.7849903   4.9124308  39.7452774  19.1017799   4.4312983
  39.8562775  19.9997864   5.6446605  24.5137634  49.3249359  77.2803650
  24.8934441  49.3696861  76.4028244  23.7092934  48.8186035  77.1677322
  49.1074905  47.5999222  74.6304932  48.6325150  48.2533188  74.1169739
  48.4217377  47.0734940  75.0414047  37.0122757  57.2788239  34.3977585
  37.8965302  57.5886688  34.5935059  37.0918922  56.3251762  34.3764191
  54.6381721  31.9135895  82.6631165  54.3126984  32.0231018  83.5565948
  53.9495049  31.4216442  82.2159576  35.2561836  43.6151314  29.2627640
  35.9021111  42.9122849  29.3335953  34.6016273  43.2781258  28.6510372
  55.7708130  19.5720921  21.5754795  55.7725258  20.3956356  21.0876236
  56.2690277  18.9671192  21.0259113  47.6315193  41.6914024  15.0516739
  47.3541718  40.9077721  15.5262575  46.9155350  42.3139763  15.1781683
  73.8109436  29.8263607  21.7259445  74.0086594  29.5336704  22.6155930
  74.4437866  30.5244217  21.5572643  22.7399330  66.5210114  53.4638977
  22.9765205  67.2963562  52.9548721  21.9192352  66.2198181  53.0740662
  39.1081543  63.9748268  55.9061928  38.2275047  63.6222649  56.0342255
  39.0982780  64.8157730  56.3633041  56.7258873  42.9489937  37.8048286
  55.8523331  43.0825691  37.4370041  56.9716339  42.0674248  37.5243416
  84.9548035   0.1505180  10.7581787  85.1736679   0.2937007   9.8374023
  85.6924210   0.5239567  11.2405653  23.8760414  56.1379967  62.3718643
  24.6865711  55.7410393  62.6907616  23.5841408  55.5559158  61.6702881
  20.8065205  26.1746941   8.1589699  20.7449570  25.3139725   8.5732145
  19.8971348  26.4399490   8.0215263  56.1163368  36.9284592  38.4943771
  56.9597702  36.8322716  38.0521126  55.4701767  36.6728477  37.8360672
  65.8869858  12.7103910  25.1471672  66.6704102  13.1734505  25.4439049
  65.1862717  13.3592625  25.2119694  68.0923309  43.4900322   1.1502486
  68.8163528  43.0122871   0.7455438  67.5995255  42.8207970   1.6251158
  54.9794960  60.0864830   6.1723919  55.6928253  59.4550552   6.0791550
  55.2307396  60.6223068   6.9247203  21.6161575  46.0016289  61.5116196
  21.8040562  46.9299240  61.6501503  21.6259499  45.8946190  60.5604706
   1.5270454  29.4115601  87.0845566   1.8717670  28.6502914  86.6177902
   2.1232803  30.1240292  86.8540649  77.8560257  49.2175903  59.7609100
  77.6971893  48.8372002  60.6247978  77.1041107  49.7902184  59.6094170
  21.9231815  35.1369324  17.4216576  22.1243343  34.5258369  18.1304131
  22.5247879  34.8939209  16.7179203  42.5854301  30.6566639   9.6630182
  43.5210495  30.8560982   9.6957321  42.1919594  31.4218216   9.2435551
  51.3807335  13.6531487   0.8199892  51.8901634  13.7722931   1.6215594
  51.3891373  12.7079487   0.6691263  71.0191116  16.5837536  26.0992928
  70.4655304  17.3366547  26.3064651  71.7966461  16.7007389  26.6451702
   0.3647966  54.9392319  22.7851143   1.2166708  55.1195030  22.3875675
   0.2428044  53.9964905  22.6728973  59.2678719  19.2832966  81.7006989
  59.4486542  19.3792057  80.7656326  60.1314087  19.2906952  82.1135864
  66.5554123  49.1244240  22.0262794  65.8292923  48.5326233  22.2231293
  66.5783691  49.1656456  21.0702438  42.8764725  37.5164719   1.3707705
  42.1001854  38.0247383   1.6058804  42.5332336  36.6618652   1.1098737
  12.6356335  49.5269203  50.2118835  12.9771585  48.6483345  50.0454941
  13.2979679  49.9404755  50.7655220  49.7011948   9.7682323  72.3354645
  49.0125198   9.9450684  71.6946106  50.4712296  10.2201357  71.9904022
  24.5376205  28.2104225  77.7685547  24.4025784  29.1459904  77.9192505
  25.1627731  27.9468479  78.4437943  63.9102516   5.0559592  79.8830719
  63.0025826   4.8370423  79.6722488  64.3752747   4.9772358  79.0501328
  65.0112991  56.0469894  34.3450356  65.0360641  56.7355042  33.6805344
  65.1319656  56.5098610  35.1741447  39.2194633  58.5983543  72.5478134
  39.8133278  57.8774490  72.3383942  39.1374779  59.0867844  71.7287064
   7.7128735  61.0899467   1.8278921   7.4338379  61.8268242   2.3713818
   7.8734336  60.3806152   2.4502270  62.7581749  49.4049225  45.8934326
  63.3135223  48.6277809  45.8311768  62.6134872  49.6693115  44.9849167
  27.0524006  41.8507843  15.7633228  27.8898907  41.7116089  16.2054443
  27.2561398  42.4542656  15.0488091  85.3675079  43.3963699  55.1919327
  84.7198410  44.0290794  54.8813782  84.9431458  42.9631386  55.9325180
   6.2713289  36.6607094  15.2866116   5.6200933  37.3500710  15.1566019
   6.5747476  36.4483147  14.4039688  36.7341576  46.5652046  15.5468111
  37.1504402  47.0170288  16.2808361  37.2222214  45.7461777  15.4618340
  62.1193466  22.9414501  55.6550751  62.5308647  23.7319641  55.3058319
  61.5681076  22.6226616  54.9404144  60.5216637  24.3390961  26.1216545
  60.6169205  23.3919468  26.0213203  61.4076881  24.6506939  26.3063164
   8.3902836   4.0481167  75.8787308   8.2701931   4.9957967  75.9396667
   9.1146126   3.8596182  76.4754333  68.8077164  34.8700409  53.4739265
  68.7024918  34.0701027  53.9889565  68.0867310  34.8463936  52.8447533
  51.8582497  63.0573196  87.7313843  51.4626999  63.5511208  88.4496689
  52.0696602  63.7195511  87.0733643  76.2411728   8.0248327  49.5737991
  75.7788696   7.8107524  48.7634430  75.7123413   8.7136335  49.9764404
  43.9547691   7.2094016  40.2137909  43.6016502   6.3210258  40.1655540
  44.8417854   7.1339879  39.8620148  62.9695625  70.5905914  20.3591576
  62.0593147  70.8435898  20.5130062  63.2038994  71.0259399  19.5395298
  20.8422241  36.7423859  46.6166649  20.0860748  36.3454018  47.0489540
  20.8364353  37.6527863  46.9122429  32.5693207  53.4130440  53.9774590
  32.8544502  53.4536705  54.8903046  33.3613548  53.5928268  53.4709129
  62.6795158  42.9353065  74.2504883  63.2217751  42.1541290  74.1411667
  62.5557632  43.0104752  75.1966705  41.7432938  58.8404236  22.9034634
  42.5126534  58.3346481  23.1652050  41.1761398  58.8299866  23.6744785
  24.7309208  48.9361877  68.3084641  25.5550613  49.2901421  68.6427460
  24.8588867  47.9875870  68.3115692   9.4677162  19.4584370  57.5103645
  10.3378286  19.0600300  57.5305328   9.6353769  20.4007397  57.5240746
  20.6282806   3.8085246  10.5406065  20.5144825   3.0263524  10.0007095
  20.7374973   3.4718597  11.4299660  79.5743713  66.4312592  48.6106796
  78.8612900  66.1755066  49.1957779  79.1594009  66.5223846  47.7529373
  21.9423561  26.9416275  66.2895966  21.8124962  26.0880604  65.8763275
  22.8475819  27.1731339  66.0817413  83.8904800  57.2949982  41.6401253
  83.9656296  57.7444649  42.4818878  83.8437653  56.3664322  41.8677597
  76.2554550  39.2277412  84.1554031  75.5047531  38.9068909  84.6551285
  77.0096970  38.7870445  84.5467300  51.2858315  38.1316032  60.2962112
  50.7519188  38.1618919  61.0900955  51.5256271  37.2095375  60.2038803
  47.7678223   1.7010231  33.7709618  47.3307457   0.8548986  33.6746864
  48.1151619   1.8917003  32.8996239  39.9098740  60.3688812  28.6306934
  38.9699364  60.5496368  28.6396122  40.2733002  60.9577370  29.2920532
   8.8962154  59.1569366  26.3296375   8.0440912  59.0251999  25.9139919
   9.4673481  59.4470253  25.6183796  77.8951035  15.6282310   4.9099894
  77.9864502  15.5019341   5.8544126  77.3778992  16.4291096   4.8243661
   7.1354947  42.0728378  29.8403225   6.3104577  42.1271286  30.3226070
   7.0320807  42.6926613  29.1182728  85.4010544  58.4235878  88.4679489
  85.0671692  57.9137459  89.2060623  85.7189560  59.2358322  88.8621902
  48.2341843  70.6606903   7.8213987  49.1468124  70.9238510   7.7026916
  48.2555351  69.7040634   7.7961178  35.2691917  51.0178680  67.0931473
  35.9515915  50.7013245  66.5012283  34.9239540  50.2261963  67.5058212
   7.0054970  41.7395020   1.2662628   6.0665054  41.6892891   1.4451617
   7.2953515  42.5268059   1.7270988   0.4347163  42.5851555  24.8737125
   0.9430785  42.7125816  25.6746883  -0.3984059  43.0236626  25.0464897
  54.0714684  60.1561089   2.4313338  53.5707245  60.6506348   3.0801272
  53.4871597  60.0919685   1.6758853  46.7650948  49.1774864  10.3533974
  47.4954224  48.6514015  10.0276880  46.0097542  48.5910797  10.3107605
  75.0971909  42.7574463   2.5583267  74.5296478  42.3006287   1.9374869
  75.9493179  42.3323212   2.4614415   2.3833468  63.6658020  58.1893349
   3.1109722  63.1504173  58.5374336   2.8000517  64.4300995  57.7912827
  43.4655571  52.7828789  51.6030006  44.0119057  52.2482910  51.0268517
  43.8325653  53.6640167  51.5313644  56.8987236  54.8300896  68.9593277
  56.3323631  55.2576408  68.3169327  57.2118912  55.5437393  69.5150833
  67.1595612  54.6434402  77.7697601  67.3337326  55.3175392  78.4266281
  67.9965210  54.1915054  77.6626053  38.1078949  45.8899841  81.7058182
  38.3494263  46.7686577  81.9987793  38.8485413  45.3402023  81.9615707
  37.9173431  42.1512489  20.8354836  37.9474945  42.1721535  21.7919807
  38.6560669  41.5966415  20.5846291  28.6422539  42.5231018  20.7114716
  28.5496464  41.5796852  20.5787067  29.3710632  42.7744141  20.1441021
  20.8999557   7.5555234  75.2476044  21.0878315   7.6241202  76.1836700
  19.9624519   7.3671803  75.2046509  62.0453835  64.5096436  49.1620331
  61.5257912  64.0718689  48.4877815  61.4344978  64.6418228  49.8869972
  75.4857788  58.1973763  63.5345192  75.5030670  57.6441116  64.3154373
  75.1479111  57.6268234  62.8441963  38.8624725  24.4560032  68.9088974
  38.6870842  23.5801678  68.5648270  38.1919022  25.0093632  68.5084534
  35.7444725  42.0100060  81.7268066  35.9003067  42.9449577  81.5933380
  35.7328453  41.6406822  80.8437958  62.2921791  54.8680534  21.7090054
  63.1545601  54.5305023  21.4669437  62.3951721  55.1611023  22.6144047
  57.6579208   3.7297978  80.3628616  57.7730751   4.0032954  81.2729034
  58.5017281   3.3497264  80.1183929  13.4559565  25.7606068  75.5561676
  13.0434198  25.3562908  74.7929001  14.0800161  26.3860512  75.1879272
  45.0515213  36.1556435  55.0211411  45.8960342  36.2811852  54.5883942
  45.2759094  35.9413414  55.9266548  69.4607086  16.7013206   4.1020246
  69.8652267  17.0922050   4.8764982  68.7997437  17.3379650   3.8299124
  42.1124763  65.0379257  66.3602448  42.7046280  65.0570984  65.6084290
  41.4171295  64.4328766  66.1020813  80.1576385  59.7389603  48.5846252
  79.5705109  60.1620293  47.9581146  80.2913208  60.3952560  49.2684669
  22.5341702  35.5421486  68.5962982  22.9527264  35.6653481  67.7443161
  21.7781963  36.1290283  68.5788651  12.0052929  13.0405855  85.3548355
  11.0681973  13.1816759  85.2200165  12.3871412  13.9175920  85.3190079
  24.6772194  20.4380703  13.5761137  24.1324635  19.7272358  13.9140253
  24.5979290  20.3690853  12.6247015  17.9093113  51.3439140  57.1907463
  17.5949421  52.1521301  56.7855377  18.5050812  50.9672852  56.5431061
  53.0358162  70.8114700  44.2713165  52.6660309  70.2003174  43.6341515
  53.9683609  70.5969925  44.2956467  23.3400002   2.2028618   9.9110270
  24.1702023   1.7265255   9.9210978  23.4320908   2.8592637  10.6015968
  84.8252869   2.4657593  31.4100494  84.4073715   1.6657761  31.0912952
  85.2025986   2.2188082  32.2543755  34.3261337  66.5336990  47.7787094
  34.5039520  65.6014023  47.6544228  35.0305710  66.8376617  48.3510742
  73.4334488  23.5118256  37.3922386  72.8820267  22.8329258  37.7811546
  74.0849915  23.7062702  38.0659714  80.8477859  59.3825684  77.9823151
  80.3795776  59.6004982  77.1763840  80.3945389  59.8784180  78.6641769
  66.2785797  36.0133171  86.6600418  66.1059875  35.8622665  85.7307281
  66.7956238  35.2557335  86.9338531  32.4865341  27.7201881  19.1074390
  32.2148056  28.0615349  18.2554569  32.2171745  28.3934994  19.7322025
  46.8897552   7.7869987  46.9020462  47.6581917   8.2809486  46.6161308
  46.5513687   7.3859076  46.1015129  18.0127831  27.1708984  82.3983231
  17.8906631  26.2465858  82.6150284  18.7808094  27.1835518  81.8271790
  26.2681046  18.4807377  87.4032898  26.8074207  17.8332233  87.8572693
  25.4884148  18.5696659  87.9513855  81.6054077  15.9949522  33.4356079
  80.7707901  16.2721424  33.8135147  81.4092255  15.8359146  32.5123253
  63.4570084  41.7461929  28.8055611  63.9164124  42.5109024  28.4585743
  62.5292740  41.9692993  28.7296753  28.2630196   8.9132872   8.4616356
  28.7567081   8.6192360   9.2271652  28.8853683   8.8513508   7.7370133
  41.8946457   3.1065922  60.8501320  41.7241402   2.9104793  59.9288826
  42.1692238   4.0235600  60.8529701  77.9441986  69.2373657  60.8242798
  77.5332108  69.5995560  60.0393333  78.8593216  69.5114441  60.7636642
  70.6795425  67.8384171   3.4493685  70.5408630  68.7792435   3.3405244
  71.5712814  67.6897812   3.1348178  25.4347630  40.3767090  88.5506058
  25.5038891  40.2678757  87.6021271  25.6747360  39.5217361  88.9079056
  44.3422623  -0.2083226  59.6323891  45.2893982  -0.0947825  59.5531960
  44.0823898   0.4140449  60.3116226   1.3155024  50.0805855  47.7574997
   1.1220484  49.7221413  46.8912849   0.6145274  50.7125320  47.9172173
  72.9412460  35.1838646  80.8433914  72.5408401  35.7269020  81.5223770
  72.9572754  35.7439003  80.0672913  38.6556435  32.3420258   1.9542516
  39.4128418  31.7810707   1.7863060  38.5424347  32.8402519   1.1448151
  67.1276627  32.4541664  15.7238903  67.6778107  32.6889954  16.4711647
  67.3258514  31.5319901  15.5609741   1.0641457  50.1368828  60.9769669
   0.8882783  50.5295372  61.8320236   0.8871956  50.8384476  60.3502808
  37.3132439  44.9076958  59.2909775  37.4613609  44.2784996  59.9969559
  38.1880531  45.2224274  59.0631943  80.2441711  40.7537308  69.5577698
  79.3901749  41.1372528  69.7573395  80.8038101  41.0231285  70.2861023
  34.4247856   1.1117506  22.4878922  34.0932350   1.0106032  23.3801231
  35.0043526   0.3605696  22.3611488  86.2780685  51.6837196  21.7508068
  86.7982788  50.9086456  21.9626350  86.1214905  51.6169853  20.8088608
   0.5533594  62.7805977  29.3910217   0.7677451  62.3293076  28.5745621
   1.3474746  62.7079582  29.9204903  14.9355259  65.7416687  55.8656387
  15.3860235  65.4917603  56.6723785  15.5736151  66.2733536  55.3898392
  30.1290703  60.0653763   3.5422504  30.3525524  59.5565262   4.3215842
  29.6459713  60.8198814   3.8792465   1.7796899  64.7572708  72.2365570
   1.5525484  63.8897972  71.9016953   1.8091381  65.3141556  71.4585800
  67.9637909  16.4072495  50.5899239  67.4622421  17.1416607  50.2359161
  68.2419510  15.9132757  49.8186607  69.1712570  27.1301117  61.0012054
  68.6846619  27.1423225  61.8254013  69.1447449  28.0362759  60.6939659
  35.8869133  68.2913437  15.6485577  34.9715843  68.1482925  15.4078360
  35.9476318  67.9836426  16.5529175  39.2250671  48.9314842  55.4906921
  38.9605064  49.7081757  54.9977531  38.7083206  48.2201347  55.1122932
   7.4859204  34.2318459   9.8835449   7.8187609  35.1270752   9.8201942
   8.1551361  33.6967506   9.4568644  74.0306244  47.7673759  81.7263107
  74.5189667  48.1585693  82.4506836  73.1166992  47.7984085  82.0091858
  79.2162704  12.0545797  18.6539841  78.4882050  12.4672298  18.1893749
  78.8089828  11.3540306  19.1634750  86.1807022  23.5585747  16.6250973
  86.0273743  24.0316925  15.8072462  85.5406189  23.9231606  17.2363281
  73.2198715  35.9964104  57.2719345  73.2875061  35.0651970  57.4828949
  73.2947617  36.0320091  56.3183327   7.1155038  51.7281036   5.0129890
   7.9800067  51.4773026   4.6874661   6.8035855  50.9554901   5.4841647
  44.0660286  39.0539017  84.4515839  43.9056664  38.5777168  85.2662964
  44.5873299  39.8119507  84.7158585  10.7397690  46.9409485  42.2091751
  11.2026806  46.1105957  42.0975533   9.8522224  46.6880951  42.4632607
  12.8963366  22.6826096  68.0099640  12.0998163  22.5201283  67.5046082
  13.0567665  23.6208649  67.9091034  30.7478409  70.5151138  75.1714630
  30.1648426  69.7589188  75.2387009  30.1596889  71.2700653  75.1527100
  32.0907898  60.7646446  69.8817062  33.0284691  60.6380882  69.7368927
  32.0394173  61.2604675  70.6988678  26.7780476  49.0202446   3.3454607
  27.5889854  48.9253845   2.8458464  26.0994186  49.1372299   2.6806233
  15.4072075  65.4300003  75.3030701  16.0152283  65.8508224  75.9108887
  14.5748339  65.8802490  75.4468002  47.2106438  47.0015450  61.0089874
  48.0375862  46.8205833  61.4558144  46.5972862  46.3628120  61.3723640
  13.4211216  37.3946228  41.4029694  14.1767464  37.0458755  40.9300613
  12.8934145  36.6240845  41.6128044  57.4164085  12.4327297  19.0960922
  56.6710854  11.8593626  19.2749100  58.0356483  12.2478428  19.8022003
  67.7027664  50.3043175   0.1593131  68.3465576  49.9102364   0.7479329
  66.9001389  49.8063126   0.3142633  76.3188553  53.5242386  37.6497688
  76.7524414  53.9399376  38.3950386  76.8053284  53.8345413  36.8860397
  51.3998108  26.8595695  18.7542744  51.1589165  27.5940723  18.1897335
  50.7856903  26.1644077  18.5179806  52.9936104  30.9364681  39.4715652
  53.2508240  30.4521313  40.2560997  52.0448837  31.0353241  39.5514183
  69.8013153  41.8778725  88.4202499  70.1205444  41.5357399  87.5852203
  69.4974594  41.1045380  88.8955002   7.8340259  71.5100250  18.8488731
   8.6286173  71.3784637  18.3316250   8.1478767  71.6186447  19.7466106
  82.4914017  32.8563385  66.2746048  83.1519852  32.4029884  65.7508316
  82.4088440  32.3260422  67.0671921  22.8755436  63.1937981  20.9338341
  23.4051304  63.0923042  20.1429672  22.2725773  63.9082260  20.7282715
  70.5989685  30.2832966  16.6193275  70.9284210  29.4536037  16.9647255
  70.5683212  30.8639736  17.3796616  75.7605667  52.4397659  67.7546158
  75.4892807  52.2444038  66.8576889  76.4702911  53.0746231  67.6572723
  17.1240921  25.8646336  78.2532349  17.8499298  25.2916775  78.0060196
  16.5462418  25.3076630  78.7748642  49.9895592  33.1335945  14.5740137
  49.6416893  34.0046501  14.7650156  49.2169113  32.6064034  14.3707409
  72.5617599  67.7019882  46.7199287  72.1063614  67.4211655  45.9262161
  73.0439072  66.9263535  47.0065689  28.4237556  13.5663958  66.1437988
  29.3308868  13.8712902  66.1242752  28.0274525  14.0403795  66.8749084
   6.9582992  34.8421173  46.6062431   6.3759155  35.2061310  45.9394913
   6.7311201  35.3151550  47.4067764  61.8386116  15.6577663  60.4760704
  62.5891342  15.9525805  60.9918556  61.1239967  16.2372379  60.7402039
  69.3899918  12.0636168  15.4091110  69.9742279  11.3266077  15.5872173
  69.4970322  12.6420183  16.1642456  76.9780579  44.8286247  44.0700455
  76.7270126  44.3335724  44.8498764  76.1528244  45.1742821  43.7298317
  15.2153492  43.0548248  29.9385757  15.0446520  42.2532196  29.4440823
  16.0505943  42.8924904  30.3770332  51.0628471  43.1803436   7.5021410
  50.2252769  43.6102791   7.6749506  51.2119980  43.3138962   6.5661130
  49.8639603  50.4885902  61.2362137  49.2762642  50.2995796  60.5046959
  49.2936707  50.4997597  62.0048981  59.3225937  26.6626186  71.1903610
  59.2480431  25.9588833  71.8348999  59.8384857  26.2825012  70.4793091
  42.4231491  68.3644104  79.2970276  42.3018303  68.2325058  80.2372971
  42.6502724  67.4974289  78.9608841  38.5722504   8.8441868  10.7984533
  37.8737831   8.4820776  10.2532444  39.0664215   8.0794573  11.0937767
   7.8454280   6.8541327  79.0193710   7.3914561   7.6261792  79.3571396
   8.1745338   7.1255774  78.1624908   5.3081489  67.8202591  60.0272446
   4.9553246  68.0321350  60.8914528   5.4192338  66.8696213  60.0403709
  63.2506256  49.3237991  38.1944923  64.0616684  49.2165947  38.6914291
  63.5354691  49.6357040  37.3355331  67.5473022  69.5668411  58.3786240
  67.7721786  70.4953613  58.4378853  67.2426300  69.4511642  57.4786110
  70.4540482  54.8700409  58.3884430  70.3644028  54.4360619  57.5399971
  69.5586700  54.9333687  58.7208748  55.1725349   7.7549515  32.2124786
  55.6626930   8.2481928  32.8702698  55.7934341   7.1008453  31.8917599
   2.2421219  45.4991837   6.2255864   2.3865867  46.1052094   6.9522867
   2.3017051  46.0460205   5.4422278  25.1374950  54.7125816   4.0357590
  24.1883831  54.8197517   3.9730554  25.2891140  54.4467735   4.9427257
  54.8475609  13.7280550  20.2524433  54.1571388  14.0619164  20.8252296
  55.2921524  13.0617409  20.7764626  69.1905899  46.5779648  69.4960175
  69.7415390  47.2371368  69.9181366  69.0239716  45.9306602  70.1811981
  52.2974167  71.0523911  49.7297516  52.0063019  71.7712402  50.2907677
  51.6593857  71.0317230  49.0165062  20.9764805  25.6784687  75.6550903
  20.5581017  26.5340157  75.7511826  21.5503731  25.6054935  76.4176865
  40.8416443  52.1453056  35.0750122  40.9179764  52.6632118  34.2736511
  40.3412361  51.3722572  34.8138275  71.9505005  31.3779812  64.8360214
  71.4925690  30.8909988  65.5211258  71.5710526  32.2560234  64.8718719
   2.0449123  53.9545555  83.9242477   1.1135871  53.9344521  83.7041092
   2.1430614  54.7278099  84.4798355  18.9347839  17.8764210   2.3946798
  19.2284050  18.7738476   2.2376881  19.0612030  17.7439499   3.3342018
  14.6179762  68.4041367  47.9692307  15.5131750  68.2387314  47.6734352
  14.6900187  69.1760025  48.5307121  79.0710831  49.0229301  50.9623528
  78.9001923  48.0822601  50.9157829  78.6238327  49.3084679  51.7590103
  48.0233192  58.9717445  84.2831192  48.3252373  58.7160988  83.4114990
  48.8263168  59.1581116  84.7696304  73.4198761  15.5039854  35.7766380
  72.4977722  15.4902000  36.0331001  73.5935822  16.4191761  35.5564461
  67.1052322  52.6739922  21.0654335  66.8215714  52.3436394  20.2130051
  67.5224075  53.5131226  20.8703613  81.3254929  58.0940514  41.5801430
  82.2275772  57.7742958  41.5650940  81.2127228  58.4514503  42.4609261
  81.0996704  18.5695648   9.9318762  81.2680283  19.2504272   9.2804813
  81.8059769  17.9362278   9.8043833   6.9913740   0.1783564  55.4619179
   6.3177452   0.1801101  56.1419601   6.5247812  -0.0678551  54.6632309
  62.6768112  35.4123650  76.0170441  63.1237183  34.7264290  75.5210724
  61.7471008  35.1995773  75.9358444  57.6776390  48.9521446  34.1432304
  58.5300407  48.7987976  34.5508194  57.5595779  48.2111778  33.5488739
  73.7528076   4.6098814  43.7075844  74.0646057   4.5192509  42.8071404
  74.1871490   3.9022188  44.1838188  46.7252350  22.7493496  43.4899178
  45.8565254  23.0835934  43.7132072  47.3299255  23.3115253  43.9742088
  59.9373970  29.9553795  18.6061897  59.8422089  30.3174839  19.4871292
  59.8166885  29.0127125  18.7203789  23.9026623  24.4662533   5.4822993
  23.3512745  25.0118313   6.0431442  24.5948105  24.1491432   6.0624771
  67.0555573  10.7462320  17.5323849  67.9182892  10.4547110  17.8272476
  67.2296906  11.5459557  17.0360470  35.9578285  20.9863682  75.7176590
  35.9560280  21.8186226  75.2448120  35.7137566  20.3361416  75.0589752
  54.2488708  47.2191696  50.8070335  53.9149284  47.6515083  50.0210304
  53.5010185  46.7269974  51.1457291  30.5537395  67.0908203  36.8493309
  29.7911282  67.6665192  36.9061775  31.1311455  67.3880310  37.5525360
  42.0658607   1.2350265  87.2840881  42.1621475   1.8720452  86.5761566
  42.9372902   0.8510100  87.3809052  40.3429298  26.4913845  79.8601532
  40.6377945  27.3258343  79.4954910  40.7226372  25.8297768  79.2819443
  58.5336533  56.9712830  44.8977280  58.7910728  56.7584648  45.7947655
  57.8935623  56.2983055  44.6661758   3.0703187  13.7261581  83.1965103
   3.8075140  13.8461094  83.7951660   2.5038724  13.0932674  83.6378937
  72.9388809  50.9269638  74.5973206  73.1695480  51.3470535  73.7687378
  73.5421524  51.3082047  75.2352448  44.7368813  19.3732243  71.0696182
  43.9167671  19.0501747  71.4428253  45.1357079  19.8841476  71.7739792
  21.7033367  14.4815931  14.3715754  21.6541595  14.5339251  15.3260784
  21.5568275  15.3796873  14.0746002  17.8853092  59.6972427  13.4985619
  18.3279934  59.6183968  12.6535492  18.5554314  60.0419502  14.0887699
  12.4983177  19.7056618   8.1342278  12.4143019  19.2195377   8.9545059
  12.2994146  20.6114883   8.3711882  66.5952759  66.7040176  84.3995132
  67.0612869  67.1530457  83.6942215  67.2859497  66.4079285  84.9924164
  58.4609375  48.7312737  76.1665192  58.8550301  47.9974480  76.6381302
  58.9045830  49.5051155  76.5137634   8.2684193   8.1718369  88.0671616
   9.1669931   8.1484861  87.7381516   8.2811766   7.6058297  88.8389816
   4.8292451  33.4897423  84.1190262   3.8747709  33.5614700  84.1271591
   5.0677080  33.5713577  83.1956100  11.8290873   6.9437180  88.9771957
  12.3878298   7.3288374  88.3021240  11.4416828   7.6957030  89.4251556
  60.2325058   0.9534972  27.5317764  60.9671783   0.6055122  27.0264111
  60.0413399   1.7988263  27.1254425  83.6920090  21.0486660   0.3391162
  83.3736038  20.3431168  -0.2239548  82.8994141  21.5017834   0.6267031
  16.3150768  39.0182076  20.5817375  16.5199127  39.3904610  19.7240067
  15.3613834  38.9364395  20.5857830  52.1129112   1.6145990  54.8602219
  52.6003494   1.8004849  54.0576744  51.7469215   0.7411115  54.7212791
  44.8587837  52.3843117  24.3400612  44.5929337  52.0682411  23.4765491
  44.1602974  52.0942764  24.9267673  48.9384003  61.4714890  57.5951080
  49.0176849  60.8922653  58.3530312  49.2789154  62.3125916  57.8997917
  62.6224785  47.5140839   8.6469564  62.9805145  46.7336464   9.0699892
  62.6819687  47.3272896   7.7100468  43.1705399   3.9572928  10.4297028
  43.4424515   4.4961925   9.6868143  42.5423203   3.3375931  10.0588312
  27.6677265  23.8264351  19.2494717  27.8958549  24.7515240  19.3411331
  28.4741726  23.4098454  18.9456120   2.4467666  48.7802925  73.4511566
   1.7961682  48.5695076  74.1208725   1.9314234  49.0829620  72.7034607
  58.2821884  54.9372368  56.0010834  57.5615196  54.5936584  55.4730453
  57.8525810  55.4027481  56.7186928  22.8452034  12.4748735  11.7732573
  22.1940937  12.5228596  11.0732660  23.5553246  11.9497175  11.4042435
  40.8662415  66.9557419  20.1999874  41.7577209  66.9979324  19.8539791
  40.3361778  67.4222946  19.5537720  82.7175598  22.1715546  86.6089783
  83.2632675  22.8527107  86.2159576  83.3418808  21.5266857  86.9415359
  78.6094131  48.4075775  42.2584496  77.6576157  48.3334198  42.3278694
  78.9423294  47.9473381  43.0288887  61.9868011   0.9587015   3.4316337
  61.4200058   1.7300347   3.4270747  62.5206985   1.0491319   2.6423264
  74.6281967   8.8182106  61.9595299  75.3676529   9.3653507  62.2242508
  74.6820374   8.0508337  62.5291481  75.9996109  39.1756401  79.1696091
  76.8332367  39.3035583  78.7169037  76.2454529  38.8647194  80.0408859
  52.8945656  20.0126324  86.8483047  53.5758400  19.3778782  87.0700760
  52.2480850  19.5076275  86.3550797  50.2533340  50.1400146  19.1939030
  49.5415459  50.7321548  19.4367180  49.9116249  49.6483154  18.4471130
  51.9923706  71.3545074  63.1581726  52.1591187  72.0196533  62.4903374
  52.5840797  70.6363068  62.9338951   3.9494438  59.8238754   2.0407145
   4.4802275  59.5354958   1.2981943   3.7038505  59.0142326   2.4883664
  58.7116165  19.0861740  42.8634148  59.6200790  19.1451092  43.1591454
  58.2339401  18.7513046  43.6223068  25.9513588  25.9037647  20.6901340
  25.1688290  26.3884010  20.9528275  25.9283886  25.9122925  19.7332478
  37.9103546  34.0470314  88.8679199  38.6098061  34.4906273  88.3881073
  37.3266869  33.7134857  88.1865082  59.7647858  12.2807512  56.4481697
  59.7437439  12.1319408  57.3934975  58.8878784  12.6008635  56.2365265
   8.2592602  53.3377533  43.4239159   7.9902782  53.6277351  44.2955742
   8.7817831  52.5518150  43.5836067  79.3748322   0.8979225  60.1053848
  79.9443436   1.0703266  59.3556061  79.7354813   0.1053395  60.5028458
  54.8371048  16.5193462  25.9417801  55.4138870  16.0657883  25.3270931
  54.5611420  17.3076363  25.4741516  49.1388512  46.1934547  43.9397087
  48.2900429  46.6334496  43.9862442  49.7585144  46.8301353  44.2959175
  52.6291046  47.0849838  43.2660561  53.5116386  46.7685852  43.0730247
  52.2573586  46.4194832  43.8449669  84.2601547  18.9214783  36.6294594
  84.5201187  19.7300072  37.0709724  84.0495911  19.1934185  35.7361832
  46.5872307   7.4743266  53.2081413  46.5701828   7.7796245  54.1151886
  46.1277046   8.1556892  52.7174149  70.0757065  62.7889748  47.3979454
  69.7487411  62.9100418  46.5065041  70.9368973  62.3868065  47.2846413
  55.1241684  61.9731026  13.5859308  54.7204475  61.9445457  14.4533558
  54.3976288  62.1534958  12.9894190  15.7207355  52.4971313  84.7392273
  16.3178730  52.8870850  84.1007919  14.8566256  52.5685005  84.3336945
  53.9814835   1.3619061  61.1770401  53.6556015   0.7017365  60.5653152
  54.6637840   0.9112694  61.6746635  20.4946423  65.3521347  52.6692657
  19.5975990  65.5021057  52.3708458  20.5925426  64.3999634  52.6647263
   6.1602516  14.6056576  61.8732910   6.5261073  13.8611832  61.3956528
   5.4167352  14.2404881  62.3529434  35.9938698  20.2537174  80.8218918
  36.5554924  20.2366886  80.0469589  35.5234680  19.4205055  80.7951279
  27.2133121  44.8670959  63.7459641  26.8494797  44.9528809  62.8647728
  26.5155792  44.4531059  64.2539139  43.6724854  63.5233498  77.1839523
  44.2734795  62.7818947  77.2566452  43.1344070  63.4738655  77.9740524
  23.4081078  48.5672951  54.4752274  24.0342350  48.8622131  53.8140030
  22.5587559  48.8673782  54.1515198  60.0478439  12.0407019  37.0043335
  60.0356102  12.2192287  37.9446564  60.7960548  11.4565372  36.8811646
  86.1027222  33.2923660  22.4221764  85.5352783  32.5692749  22.6893425
  85.5000305  34.0089760  22.2235088   3.9020452  11.7039843  21.3192005
   4.1731749  12.6031942  21.1344261   3.0309575  11.7912149  21.7062778
  11.4807377  33.3478775  55.6342773  10.8654356  32.8206215  55.1247330
  11.5322342  34.1789169  55.1620979   0.6030861  35.8518333   6.1916065
  -0.2077736  35.6552925   5.7224469   0.8137697  36.7508850   5.9395103
  49.9078598  35.5886269   0.2206191  50.6165352  36.1775284  -0.0386179
  50.0105820  35.4925003   1.1674238  10.0149279  52.8281250  76.4170456
   9.8196583  51.9010887  76.2802582   9.2526007  53.2878990  76.0653381
  44.0975533  68.3314590  68.9316330  43.7706070  67.7286758  69.5994568
  45.0492516  68.3054428  69.0307770  81.6995850  70.1063919  77.6061935
  82.0986633  70.8704681  77.1900635  82.3884125  69.4418106  77.5974503
  10.1442518   6.5700669  13.6672249  10.9869013   6.7795463  13.2643690
   9.4938593   6.9092174  13.0522461  65.0026627   3.0568464  52.7096825
  64.9382324   3.9336994  52.3312531  65.2723846   3.2062912  53.6158562
  32.2243767  70.6191025  22.4507141  32.3985023  70.8089523  23.3725986
  32.1338158  69.6668625  22.4152317  30.6652203  35.8883438   8.0647974
  31.2329216  36.5232735   7.6279740  31.2668552  35.2353859   8.4224453
  80.5388565  56.8784065  81.5278778  80.3186798  57.8094902  81.5567627
  80.7997894  56.6660767  82.4240189  37.0477333   0.2214556   5.5246444
  36.5514641   1.0320528   5.4111619  36.4584808  -0.4656976   5.2134681
  55.1232796  45.7828217  43.3319206  54.7155952  44.9314804  43.1730423
  55.3350029  46.1136284  42.4590111  83.9266663  52.2851219  39.6462059
  83.9907455  51.3300858  39.6517410  84.6694565  52.5780754  40.1741028
  18.5605030  20.5175762  17.9693050  18.9728794  20.3805962  18.8221912
  17.6700039  20.8009224  18.1765709  72.9082794  34.5167465  35.5082283
  72.3145981  34.2141876  34.8210411  72.5923080  35.3928833  35.7290802
  52.0598373  64.4749146  48.8659630  52.5237846  65.0464401  48.2541313
  52.7308197  64.1962128  49.4891319  76.7552643  18.1659336  88.0168533
  77.2609253  17.3608551  87.9055710  76.3538666  18.0790730  88.8814774
  64.8158875  17.5709019   3.2343392  64.8830032  18.5250874   3.2697654
  65.6887283  17.2790070   2.9713092  27.2345943  49.5295067   6.0670815
  27.8588772  48.9203682   6.4613605  27.1558838  49.2373924   5.1589479
  78.2025833  28.8958263   8.0692301  78.3840485  27.9565125   8.1007605
  78.8965836  29.2554207   7.5166993  29.8462563  48.1948357   7.8912687
  30.2290154  48.3285332   8.7583628  29.2806168  47.4295807   7.9945512
  82.5701065  42.4180183  40.3065109  82.4568100  42.6802483  39.3929291
  83.4644623  42.6821404  40.5223618  44.6445694  54.0640450  72.4763794
  44.0986404  53.2781906  72.4513321  44.5057220  54.4243202  73.3522568
  28.9628315  25.1382236  73.0870590  28.9817562  26.0801926  72.9180298
  28.8792877  24.7409725  72.2201996  48.3451500  39.1721420  84.1693726
  48.3092728  39.1633835  83.2128906  47.6407433  38.5836449  84.4408798
  76.1617432  45.5581818  52.7689209  75.4794617  46.1926079  52.5493050
  75.8117142  44.7179031  52.4728661  66.8924637   3.4812844  49.4648438
  67.6829147   3.7516541  48.9975967  67.1740036   2.7423222  50.0041962
  17.7813606  70.2897415  65.0925293  18.7180500  70.1315155  65.2100525
  17.3561592  69.6045761  65.6082611   3.9064178  36.7341347  55.2785912
   4.4934740  35.9857368  55.1713715   3.1279128  36.5023460  54.7721977
  28.2717800  46.9812279  19.7552414  28.9115677  46.7757530  20.4369183
  27.4270725  46.9585686  20.2048931  64.2875214  67.9468765  46.4045982
  64.7441254  67.2710037  45.9036636  64.7561264  67.9846878  47.2383919
  61.1636581  59.8363228  37.4739075  61.9498177  59.5223274  37.0271492
  61.3584862  59.7295265  38.4049683  72.2446136  20.6259518  56.6246109
  71.5779800  20.2099686  56.0779953  72.1942520  21.5547314  56.3986359
  47.5944710  45.1315918  28.6106815  46.9654770  45.7223053  29.0249958
  47.1064644  44.7268219  27.8935719  26.9688740  34.9521103   4.6763992
  27.7385445  34.5321236   4.2924032  27.1463203  34.9632301   5.6169424
  69.2186127  21.6140633  88.3420181  70.0744400  21.9031487  88.0254593
  69.2937775  21.6429176  89.2958221   1.0218052  60.7167053   5.4728885
   0.6613388  60.0541191   6.0621915   0.3510946  61.3988609   5.4405713
  60.7341423  38.1512413  85.1815033  60.3586655  38.9527855  84.8171158
  61.6776123  38.2485619  85.0525589  80.6421585  36.9933891  63.5296173
  79.6928940  37.0969658  63.5959473  80.7918396  36.0591087  63.6743660
  67.4663849  64.5004196  15.7837381  67.1044922  64.8936081  14.9895878
  67.8391113  63.6688423  15.4908600  82.5399094  51.1710205  64.9140854
  82.9336014  51.8036118  65.5149765  82.2776108  50.4401703  65.4738083
  55.1898537  17.5144501  71.7639847  54.6539001  17.4373093  70.9746628
  55.2036324  18.4526215  71.9533920  67.8289413  59.6829948  20.0629349
  67.4445496  58.8149376  20.1852016  67.1433258  60.1893501  19.6273136
  47.9490700  20.0610676  38.6513977  47.3074417  19.8142757  37.9853325
  48.3039970  20.8953972  38.3445549  73.8784866   4.2516723  86.8497696
  74.4141922   3.7690065  86.2202530  73.2289505   4.7058039  86.3130188
  57.4501457  50.5782433  79.2357330  56.7512856  50.9521675  79.7723999
  57.2972107  49.6338692  79.2673798  15.4341803  26.3044357  17.6664715
  15.5340710  26.8100777  18.4730568  16.2217388  25.7619953  17.6247540
  79.2637634  39.4501839  46.3772697  78.6578064  40.1435699  46.6385574
  79.8239517  39.8579559  45.7168655  18.6889172  35.1295776  47.2954559
  19.0939655  34.3703537  47.7146759  17.9831123  34.7614746  46.7638817
  16.9279327  58.4216461  16.8472271  16.4656448  57.7413940  17.3369007
  17.0217228  58.0604248  15.9657764  40.3812408  49.1452370  49.5438309
  39.9458733  48.9689445  48.7097969  39.9502869  49.9321861  49.8773308
  69.4727936   7.4306202  78.1931610  68.8051987   8.0820646  77.9782867
  70.2403259   7.9466271  78.4398651  62.9211349  26.3077221  10.4735270
  63.2349243  27.2120190  10.4700041  62.9652863  26.0353069   9.5569725
  53.8695526  55.1311188  16.6179256  53.6276131  55.3071823  17.5271549
  54.7629089  55.4655914  16.5387268  55.7407494  39.6859093  84.4060974
  56.0283470  40.2935638  85.0874786  55.0342407  39.1853828  84.8142090
  29.4726295   9.4248142  82.8475113  29.9402771   9.3773842  82.0136719
  28.6567974   8.9489365  82.6919785  82.4983063  53.6968460  16.7232323
  83.1945419  53.0427170  16.7832718  81.7238312  53.2549515  17.0713043
  43.9338760  60.5779457   5.1385403  44.7911186  60.5409012   4.7142825
  43.3120003  60.6584854   4.4153428  82.1008911   6.2218418  16.8188496
  82.6002579   6.8992758  16.3628387  81.9301453   6.5922050  17.6848221
  81.1844177  51.0943565  43.9892731  81.4065247  50.2117577  44.2857780
  80.6762695  51.4681015  44.7092247  83.9600372  32.7469864  88.6627197
  84.0247803  33.5971184  89.0978241  84.7345047  32.7054558  88.1017303
  60.4832916  25.9027100  77.4746323  61.3511047  26.1912384  77.1920090
  60.5264969  25.9147644  78.4307785  65.4168320  52.9688072   4.1822591
  65.2853699  52.7632332   5.1078343  65.0685654  53.8547287   4.0818639
  56.6701546  15.2269192  10.0484180  56.9958496  14.3310623  10.1355734
  55.7522964  15.1246595   9.7968035  40.6809464  68.1857224  33.5645370
  40.3539543  68.8712769  32.9820290  41.6195297  68.1434479  33.3814964
  14.6971397  16.8451538   2.9159100  15.1064167  17.6750717   3.1607769
  15.4086990  16.3302841   2.5353506  67.1778946  51.3615913  26.0693302
  67.7429199  51.4285049  26.8390713  67.3860245  50.5064163  25.6930485
  68.9206696  22.9432716  64.6262131  68.6191635  23.7722473  64.9978638
  68.2328568  22.3162785  64.8498535  50.5274506  28.0097599  44.8994484
  50.3599701  28.2368546  43.9847832  51.2229004  28.6085968  45.1714363
  66.0188293   8.4228601   7.7812071  66.9621887   8.2656364   7.8211436
  65.6868744   8.1022873   8.6198187  71.7454300  53.4108276  45.6335831
  72.1749725  53.4650726  44.7798958  72.1274948  54.1276817  46.1399269
  61.6604042  61.4440079  60.7750473  62.3947601  62.0312233  60.9542885
  61.5953445  61.4263954  59.8202248   5.0823131  38.9766273  14.2232599
   5.4446597  38.9610443  13.3374300   5.0924425  39.9014359  14.4699450
  86.5381241  13.5426512  78.6944809  86.4675293  13.0434923  79.5081711
  86.7440033  12.8868723  78.0282974  86.4298172  12.1974802  45.6341057
  85.8291092  12.7037096  46.1810226  86.6136246  11.4097652  46.1459160
  20.7895184  57.8935928  45.2548065  20.0049400  57.3813248  45.0592270
  20.4555721  58.7145424  45.6164055  38.3373566   0.8184163  84.7997131
  37.9950752   1.3804889  84.1046219  37.9897461  -0.0503672  84.5981903
  51.7784882   5.7013693  25.0273876  52.2252884   6.4131880  25.4855518
  52.4755363   5.2452259  24.5559158  48.7183495  38.9815674  54.8476143
  48.3514900  39.8036232  54.5222359  48.9338264  39.1610870  55.7628059
  46.8163376  18.2682590  15.7198868  46.0472794  18.6424618  15.2900524
  47.3452263  19.0267429  15.9672871  52.0887222  44.7601013  45.1103020
  52.0031013  44.0157318  44.5146408  51.4323425  44.6008377  45.7885590
  11.0678825  54.4596367  17.3591194  10.6382637  54.1689911  16.5546417
  10.6133213  55.2684212  17.5946484  74.0570297  54.2272377  32.4500656
  73.4880753  54.9881134  32.3334961  73.6621704  53.7416115  33.1742744
  86.6912994  46.9466934  87.6589737  86.8866806  46.4543457  86.8617020
  85.7355270  46.9926300  87.6839447  40.1018677  40.2460442  21.6271820
  40.3100510  39.8901100  22.4910126  39.6780777  39.5223770  21.1657314
  67.2993317  29.1544743  12.2213020  68.0620041  29.6573486  11.9355078
  66.6578293  29.8170967  12.4775124  80.0025024  51.2543221  26.1729336
  79.7253265  52.0481644  25.7155266  80.1352310  50.6108017  25.4768772
   6.6432037  69.9198303   6.8957820   6.5603981  70.6722794   7.4816103
   7.5863252  69.7699814   6.8302150  76.7802124   1.6232808  53.2540894
  77.3763962   2.3607075  53.1237030  76.6233902   1.2834059  52.3731117
  79.6016922   9.0596380  31.6021442  79.6858902   9.4001808  30.7115402
  79.0455322   9.6966877  32.0505753  27.8427830  50.1784592  78.2193756
  28.1479893  49.3169861  78.5038757  27.5485363  50.6059608  79.0236740
  16.5459957  43.5426216  73.8682251  16.3886375  44.2775192  73.2754364
  16.3900986  42.7649879  73.3323059  77.5707626  36.5496025  20.2591133
  77.7038422  35.6024551  20.2212811  76.9278030  36.7287216  19.5730000
   3.6677792  70.9638748  44.3374214   3.0073631  70.3154602  44.0932198
   3.2432561  71.8078461  44.1833611  75.6358414  31.7705231  59.5008736
  75.2336197  32.5944633  59.7757874  76.1231003  31.4736996  60.2694473
  83.3878555  62.4779243  38.2312088  82.7352524  62.3521271  38.9200592
  84.2036896  62.1527786  38.6119118  17.6106663  59.4686356  68.6693268
  17.5815773  60.2137756  68.0691986  17.4760056  58.7043839  68.1089478
  46.2285461  52.5366707  65.0564041  46.3142281  53.4847946  64.9566574
  46.6409836  52.3462296  65.8989334  78.1628342  61.8040504  35.3819389
  77.5671997  62.1682663  34.7271156  77.9505920  62.2756500  36.1874084
  40.3751221  63.0100212  72.5071945  39.9528351  62.9479561  71.6504288
  39.6547661  62.9472084  73.1343918  34.9988060  65.7077332  87.8857651
  35.8894539  65.4352417  88.1064987  35.0492134  66.6614151  87.8210602
  63.7967949   0.4451165  18.0056267  62.8890915   0.6281345  17.7631035
  64.2928162   0.5832873  17.1987190  56.5626869  57.9694023  51.4510994
  57.4697456  58.0267181  51.7514191  56.1066780  58.6591225  51.9333611
  35.4610329  54.5648346  18.8519878  36.2586136  54.8520164  19.2965412
  35.1443405  53.8309097  19.3785763  17.5781097  35.0365524  84.5175476
  16.7794018  34.7525330  84.9621048  17.8230667  34.2929420  83.9668503
  76.2427597  65.8729324  86.6463623  75.5004883  65.2910461  86.4830475
  75.8592758  66.7496567  86.6693573  52.1282654  37.4032059  17.9092751
  51.7854309  36.5660782  17.5963669  51.3488350  37.9199638  18.1134319
  14.4103098  37.8851852  79.7486572  14.5628109  37.4212456  80.5719070
  15.2858696  38.0324326  79.3909607  56.6583061  40.1883545  72.7037430
  56.6474075  39.8883133  71.7948456  55.7377357  40.3419724  72.9163055
  60.1972771  59.6613922  69.5973206  60.6298752  59.3859673  70.4055481
  60.7445755  59.3029671  68.8985901   3.1748683   4.4453764  57.2918549
   2.7171106   4.7444062  58.0775223   2.7890453   3.5905058  57.1006241
  37.9168205  14.7395639  80.1821442  38.3060226  15.6136789  80.1561203
  37.7109566  14.5417528  79.2685089  74.2194366  22.2318287  43.3227272
  74.8847733  21.7060814  43.7667389  73.9050903  22.8372078  43.9942436
  44.3929749   4.4317141  69.6805573  44.4337883   4.1294088  68.7732620
  43.5407486   4.8616977  69.7516403   0.7724013  57.2892609  63.0416145
   0.8687581  58.2370033  62.9481812   0.1968050  57.0347786  62.3203964
  16.7853146  24.4573421   3.4331236  17.0904808  24.4760189   4.3401828
  16.1052265  25.1298618   3.3953290  15.3715439  66.6986160  63.2759209
  14.7102509  66.0066605  63.2869797  16.1720867  66.2602539  62.9874687
  77.0166168  21.2963028  26.1155357  76.5882797  20.7327271  25.4712238
  77.7817307  20.7963791  26.3999920  59.1417580  20.9138641  67.5120773
  58.6662407  21.3003712  68.2474136  58.8604240  21.4220448  66.7512665
  47.7033539  60.4577637  48.6717606  48.0007210  60.3872948  47.7646561
  46.8659477  60.9178467  48.6142426  44.1230888  20.8004036  68.5568390
  44.0685883  20.3948174  69.4221497  44.7025604  20.2242565  68.0583344
  81.7646027  49.5949936  27.7747250  80.9050064  49.1738930  27.7751484
  81.7235184  50.2225609  27.0531254  53.2801628  39.7439575  16.7484951
  52.8362236  39.0714836  17.2651501  53.5390968  40.4062347  17.3892574
  70.7914352  64.3984222  34.9088478  70.9676208  64.9182281  34.1246300
  69.9083023  64.0544357  34.7747765  14.0828104   1.8304487  61.4925804
  14.7540512   2.0888014  62.1241798  14.4184036   1.0229717  61.1032333
  29.3668823  49.0067673  50.5009155  30.0797081  48.7981644  49.8970947
  29.6623859  48.6686707  51.3462524  72.9340363  33.1714096  76.8537979
  72.7960510  32.4057770  77.4114685  72.1615601  33.7171936  77.0008545
  17.1351185  46.9067650  36.5638618  18.0456982  46.9664421  36.2748756
  17.1919651  46.6380882  37.4808197  30.7033005  22.9049435   7.3993430
  30.1976509  22.5486164   8.1298113  31.6165047  22.7987194   7.6658154
  21.3184929  45.6408424  35.5862656  21.4440918  44.7079849  35.4123840
  22.1933975  46.0200043  35.5025368   0.6632561  38.9160423  85.1515274
   0.3159822  39.6885605  85.5974503   0.4248665  39.0422440  84.2331161
  58.4309845  54.3286171  51.1925735  59.1151962  54.9969559  51.2300835
  57.8628693  54.5253944  51.9373970  15.6629381   2.7461543  63.7216797
  15.5861387   2.0984118  64.4222260  16.6048775   2.8255432  63.5710869
  75.9238052  61.1613693  79.6035461  75.7218246  60.2783127  79.2942734
  75.4013443  61.2618103  80.3992691  51.1260796  17.9831104  31.5257397
  50.5476494  17.8273258  30.7791576  50.8110199  18.8031883  31.9057961
  72.3664932  16.1700630   9.4281445  72.5800018  15.7466612   8.5966539
  72.5201950  15.4936676  10.0877619  27.5613956   2.4993694  16.3747902
  27.9874077   2.0827370  15.6256809  27.8890209   3.3987210  16.3669567
  52.2495995  12.4204044  43.1915741  51.8015251  13.2647429  43.1410408
  51.8623009  11.9011669  42.4868584  27.0942841   7.5504799  68.4695587
  26.5929508   7.7226634  69.2665863  26.9159355   6.6318550  68.2681885
  86.5622253  45.9858742  85.1232758  85.8164368  45.9815331  84.5232620
  86.7863464  45.0618286  85.2334747  51.6410522  37.6017914  88.1922989
  51.2300491  38.2267609  88.7895660  51.3125153  37.8458290  87.3270035
  21.4736919   7.6943254  19.9699688  21.7925396   7.3443890  20.8019028
  20.7056522   8.2139492  20.2073231  42.8708344  20.1989498  43.6015663
  43.6344872  19.9851494  44.1376228  42.6089439  21.0716057  43.8950195
  50.6986084  24.8222141  65.5595398  50.7635689  24.2875443  66.3508301
  51.5424004  24.7068386  65.1225815  32.9536743  68.9392548  43.7207794
  32.1536140  69.4635391  43.6852646  33.0722504  68.6222687  42.8254089
  80.0180206  66.1148148   0.9570775  79.1661224  66.2973328   0.5606017
  80.2203751  65.2187653   0.6880265  77.9489059  37.0233040  45.6394386
  78.6851501  36.7404633  45.0970573  78.1091690  37.9542160  45.7942200
  60.8580666  55.0560112  56.7139969  60.6025085  55.6531105  57.4171333
  60.0448151  54.6165466  56.4655533  76.1277008  11.5288210  44.8134804
  76.4656143  10.7848654  45.3120575  76.8926010  11.8777122  44.3558388
   4.6304789  49.2587738  50.4958725   4.2242174  49.9173965  51.0592537
   5.5639353  49.4697456  50.5154266  27.7246113  13.8139277  87.9238968
  28.1599751  14.2115431  87.1698456  26.8982716  14.2906485  88.0022125
  62.0730896  28.4034138  39.0926399  61.3025970  28.5454845  39.6425438
  61.8845787  28.8850002  38.2871780  73.6496277  58.8760109  74.3391342
  73.4868546  57.9756775  74.0578232  74.0795441  58.7871552  75.1897278
  73.3583603  40.6166611   4.1335750  74.2860260  40.5847588   3.8997817
  73.3179703  40.2272224   5.0070391  30.3425598  23.9867668  77.2888947
  29.9608803  23.1090698  77.3029251  30.8812847  24.0263348  78.0791092
  16.3651676  33.0501671  17.2743149  16.4728737  32.8887291  16.3369942
  17.2588043  33.0857964  17.6154556  24.0143986  19.1476574   6.0615978
  24.6268291  19.8831425   6.0765009  24.4163494  18.4897480   6.6288924
  39.5863037  21.3177376   7.8067789  40.5314789  21.4584656   7.7513995
  39.2651367  22.0517807   8.3304834  83.4371185  71.0776215  68.0570297
  84.1286087  70.5798416  67.6208191  83.7281113  71.1455460  68.9663925
   4.0030365  71.4238892  56.1505432   3.8298652  70.8116684  56.8656883
   3.9634101  70.8859100  55.3598213  48.3062706  45.3229485  87.1825104
  47.5894279  45.8180923  86.7860336  49.0063019  45.3511353  86.5302887
  49.2930489  71.3646622  30.4672775  48.5895615  71.2619553  29.8263493
  50.0177650  71.7424469  29.9689865  55.9209785  67.4193726  54.4519119
  56.0878410  67.7260590  55.3431664  55.2082138  66.7873764  54.5455971
  24.5176640   8.6914282  12.2030449  23.9419594   8.5095587  12.9458237
  25.3929749   8.4650402  12.5173874  18.4971428  47.8894119  84.8505707
  19.2692528  47.4216423  85.1688004  18.4691448  48.6898766  85.3746948
  36.1421204  64.8067627  42.8584824  35.8723869  63.8895035  42.8124733
  35.3761940  65.2645569  43.2049179  64.8651810  40.9114227  52.4349899
  65.4805298  40.5876122  53.0928078  64.1787720  41.3450241  52.9420052
  52.5715218  48.3551445   1.7985165  52.5865288  47.5528069   2.3203030
  52.2797546  48.0718956   0.9319868  52.9697456  16.4651146  88.2744675
  53.6490631  16.7975426  87.6877365  53.3990669  15.7643585  88.7652435
  16.3183327  33.8886337  38.1997604  16.9357452  33.3213539  38.6615295
  15.4742718  33.4458923  38.2879372  65.9000702  64.3291016   7.5390329
  65.3884735  64.2537994   6.7335324  66.4016647  65.1369705   7.4295535
  68.0496826  41.4232254   5.6561661  68.8620529  41.8789368   5.8766546
  67.3574219  42.0431862   5.8856187  58.8902397  47.2536469  67.6241989
  59.1050301  47.8008347  66.8687668  57.9945946  46.9588280  67.4594803
  23.8458214   7.3620300   9.9921932  22.8953590   7.4143362  10.0927820
  24.1925621   7.8724837  10.7239304  26.3126087  17.6956520   2.5782988
  26.5105934  17.0443153   3.2511981  25.3635674  17.6425743   2.4654479
  56.3239250  24.9370346  45.0922432  56.5194473  24.4762058  45.9081116
  57.1538925  24.9424973  44.6154251  71.2007904  13.6993637  36.8064575
  70.7358398  13.0982723  36.2244453  70.6589355  13.7367477  37.5946312
  49.4978676  65.1835480  42.9961433  48.8960266  65.4270859  42.2927895
  50.3523712  65.4964752  42.6992683  67.6960831  15.1308155  59.3696671
  68.1961899  15.9231825  59.5653076  67.2879486  14.8934860  60.2023354
  39.4116058  34.3323822  47.2606544  39.9452286  34.2021751  46.4767380
  39.9216843  33.9348488  47.9663582   2.9073005  36.7438354  82.7756195
   2.3546381  37.5249748  82.8004150   2.3285081  36.0321617  83.0490341
  86.3290253   5.9728956  14.4531565  86.9369202   5.3261347  14.0948362
  85.4672928   5.6835661  14.1532631  24.0269985  48.2249832  37.8078079
  24.6561184  47.6984329  37.3146744  24.3579865  49.1204834  37.7387924
  76.3654022  62.7708855  42.5038261  77.2673721  62.4603081  42.4249611
  75.8579865  61.9844627  42.7045822  50.3904114  49.5069962  37.3843155
  50.0958862  49.5989456  38.2904243  50.9110146  48.7037544  37.3820305
  59.3102112  55.4211311  78.8175964  59.8169937  54.6278496  78.9911041
  59.1694450  55.4131317  77.8708420   9.0070677  14.4645233  20.0513039
   9.4464130  15.3042879  19.9171314   8.6643324  14.5134125  20.9437027
   0.3579000  37.5308876  32.5431862  -0.3226916  37.8868713  31.9719601
   0.7096977  36.7834816  32.0596008   3.8320851   0.1933682  25.2421646
   3.6677513  -0.5996297  24.7318897   3.7707238   0.9051308  24.6050930
  74.8963623  31.1899662  34.8236732  74.0453644  30.9069328  34.4891167
  74.9871216  30.7364750  35.6617317  84.4817505   9.5125427  44.7273483
  84.9199142   9.0641317  45.4506569  83.7623367   9.9890604  45.1416054
  67.3305893  62.4221611  18.3894138  68.2269516  62.3920937  18.7238712
  67.4251328  62.6866875  17.4743614  33.7116165  52.4882469  13.1409168
  32.9370193  52.1784744  12.6715879  34.3201065  52.7523384  12.4508219
  57.8217926   4.4174709  23.9852066  57.9015350   4.1000438  24.8847141
  57.1243248   5.0719409  24.0231228  79.9758911  20.9896469  15.6131477
  79.9453812  20.6839314  14.7065945  79.8613586  20.1968975  16.1372318
  13.9472380   2.5321488  13.1416330  13.1209173   2.5010090  13.6237698
  14.6208420   2.4301531  13.8140068  72.8496475  66.7052460  57.2074928
  72.6502457  67.3825226  56.5611458  71.9957428  66.4450836  57.5530167
  24.0350361  51.8757935  53.7391586  24.1991825  52.7261162  53.3314323
  24.4318161  51.2426910  53.1408424  27.6386089  58.8961105   8.9694319
  26.9107876  58.9277611   8.3485394  27.4147778  58.1806183   9.5645819
  57.4929161  14.2723494  57.2803230  57.7202034  13.7673798  58.0610771
  56.6977577  14.7459850  57.5244942  78.5917816  23.6111603  52.9323006
  78.3228455  23.4190559  52.0339699  79.5325317  23.7767029  52.8704758
  29.9528809  47.2671089  52.4795837  29.8559456  46.5788841  53.1377487
  29.4892521  46.9317131  51.7122574  26.3806076  22.0758667   1.4464303
  25.8674698  22.6387272   0.8666794  26.0530720  22.2736797   2.3238261
  43.4450073  28.2804489   9.3270864  44.1884041  28.3055668   9.9295502
  43.0597153  29.1547298   9.3855219  46.3735771  21.8010292  86.9936905
  46.1672974  21.2686443  87.7619705  47.2241135  22.1916351  87.1943207
  60.0930328  68.6308136   9.7617855  59.5370407  67.8520508   9.7365942
  60.6165619  68.5773010   8.9622316   4.4507380   4.6489062  63.7271767
   4.2922888   4.5455217  62.7888603   4.1087971   5.5188375  63.9334030
  55.4143372  44.4049911   9.7256861  55.8019066  45.2692680   9.8636875
  55.5982208  44.2037773   8.8081179  26.0367374  65.8311310  88.4934692
  25.4176159  66.5611343  88.4903564  26.8111382  66.1719437  88.0458298
  23.2395229  64.8019028  75.3653412  22.3570728  65.1246643  75.1827469
  23.1983395  63.8664970  75.1664810  67.0997696  30.5762520  86.4231949
  67.9785156  30.7228336  86.0731125  66.6195831  31.3756962  86.2074738
   9.7250328  48.2184334  12.8948793  10.4819670  48.1979828  13.4804249
   9.2558298  49.0166130  13.1377592  67.1840973  48.4778824  16.4882889
  66.9493408  49.0423279  15.7517252  68.1244202  48.6141510  16.6042728
  73.0751572   2.3930540  76.7390442  72.7695084   3.2983918  76.7954102
  72.3518448   1.8737621  77.0903168  56.6191864  64.2093277  16.8411579
  57.2722206  64.8592529  17.1007252  56.9145660  63.3961868  17.2507763
  82.6162796  14.8412828   0.0232067  83.3742523  15.3844719   0.2392119
  82.1685028  14.7115993   0.8592157  51.5207825   5.1175838   7.8476214
  50.7237129   5.5579209   8.1426039  51.7862663   5.6014204   7.0655398
  20.4747429  63.1984673  60.7765465  21.1266747  63.8387947  60.4915886
  20.5013809  62.5152168  60.1067047  74.1000900  26.9691868  27.8255768
  73.5554276  27.6139545  28.2770748  74.6455994  26.5913658  28.5154285
  49.7855797  10.7279406   3.7682903  50.0944977  10.4997740   2.8915114
  49.6530151  11.6753836   3.7365093  12.8122425  63.4329071  47.6985397
  13.5887899  63.4603386  48.2575150  12.5730829  64.3515549  47.5755615
  53.6089096  23.9210472  27.2155342  52.7374611  23.8334370  27.6017208
  53.8691597  24.8207188  27.4132519  81.3620758   8.4385462  33.7755203
  80.9498062   8.6691885  32.9430084  81.9354935   9.1793251  33.9721718
  82.5251160  28.6708469  57.7462616  82.5273132  29.1144810  56.8980789
  81.9347229  29.1938648  58.2885933  40.9360962  25.4470291  23.5480843
  41.7601013  25.3148079  23.0792904  41.1929169  25.8621578  24.3714581
  77.2926407  58.3420486  76.7894135  77.3677368  58.1112022  75.8635101
  77.8360901  57.6969681  77.2419281  82.7930450   9.3950882  63.6254044
  83.1478500   9.6908522  64.4637756  81.8796234   9.6809893  63.6376495
  13.6500330  62.7354393  69.5828857  13.4034777  63.6179352  69.8597336
  14.0758619  62.8606758  68.7348175  77.0865936  61.5518494   3.1319168
  77.5492630  61.8285027   2.3409460  77.5957108  61.9266243   3.8506477
  77.2544174  37.2869682  68.9158554  77.5407944  36.9049149  69.7454681
  78.0026169  37.1746140  68.3294983  23.4367657  14.1287622   2.3829582
  22.5401936  14.2740412   2.0808265  23.8330498  13.5832882   1.7035103
  55.2605133  57.3366394  82.3489838  55.5493240  56.4844437  82.6754456
  55.5968208  57.3766670  81.4537048  11.2782393  71.0385971  65.2153854
  10.7999239  71.8242950  64.9505615  11.4371138  71.1590729  66.1515884
  86.2377167  60.4062691  27.5283279  86.1476288  61.1659889  26.9530544
  87.1771011  60.2226677  27.5372753  75.1025925   1.1137594  55.6105347
  74.7497482   2.0022547  55.6586189  75.7610092   1.1547346  54.9169693
  40.7570839  43.2463722   3.0912385  40.3641510  43.9252701   3.6398118
  41.5271492  43.6651154   2.7066751   5.9789939   1.8166481  73.7891464
   6.9184084   1.8802201  73.9614563   5.7789769   0.8862858  73.8923492
  20.2564335  58.0909996  79.4646301  19.9258938  57.7771950  78.6229019
  19.9516125  57.4419289  80.0986786  26.6494102  10.8872080  76.4979782
  26.7186298  10.0642834  76.0139999  26.8726921  11.5617752  75.8566284
  49.7072945  38.2547150  62.7703476  50.2846680  37.6567993  63.2450790
  49.9259720  39.1213379  63.1129532  20.1963539  32.1144066   9.6414948
  19.7438049  31.6689701  10.3577480  20.2734661  31.4498901   8.9568739
  33.5366364  68.6263962  31.6190929  33.4201241  67.7043762  31.8483219
  33.8866653  69.0284653  32.4141083  57.5609741  17.7041092  20.5462284
  57.6385880  17.5615654  19.6028881  58.4423218  17.9536400  20.8240662
  18.0256901  34.6955452  53.6679993  17.5624676  35.3808746  54.1496429
  17.4893761  33.9122581  53.7907333  48.8454018   6.2364759   8.5791979
  48.8276024   6.6823397   9.4260273  48.0790825   5.6630979   8.5942497
  56.6671600  26.3263416  30.7328491  56.2313271  25.5381088  31.0568428
  56.7182426  26.9024525  31.4955540  13.7501240  69.2585373   6.7931604
  13.6378822  68.3117676   6.7079430  12.8591328  69.6079025   6.7755456
  41.3281860  24.1161976  57.7251930  41.8649063  24.8824348  57.9277802
  40.8904839  23.9055233  58.5499763  83.6290588  53.0930748  28.0898762
  83.9327469  53.3864403  27.2308407  82.6756744  53.1652412  28.0443630
  74.4826508  55.9289207  35.1062126  75.3700180  56.1723518  35.3699341
  74.5381165  54.9927864  34.9143639  59.4859848  11.3199854  74.3437576
  59.7320747  11.1953096  73.4271698  59.6809845  12.2401857  74.5210724
   6.1041279  41.4982109  71.9231644   5.8073330  40.9294548  71.2127686
   5.4858775  41.3344154  72.6353226  75.0420456   3.1104193  18.6763515
  74.7882462   2.2965529  19.1115971  75.2246857   3.7183182  19.3928242
  27.5338573  64.4327698   1.5409898  27.1289120  64.5725479   2.3969758
  26.9361038  64.8519211   0.9219290  12.5790300   0.0998862   4.9466577
  11.7859650   0.4457257   5.3561387  12.6027031   0.5131508   4.0835910
  40.3902397  45.9791260  52.9248772  39.6242371  46.4861450  53.1939659
  40.3020401  45.8977051  51.9752350  17.1490574  69.5068130   8.0496788
  16.3509884  69.0976486   8.3842030  17.8596401  68.9790649   8.4140787
  38.2869606  61.2474747   7.0723057  37.4136009  61.1275558   6.6993513
  38.1909523  61.9851723   7.6746492  30.3149338  31.5103779  85.3200378
  30.9125042  30.9901352  84.7829208  30.5735703  32.4172935  85.1561966
   7.5691528  52.2842102  15.6005239   6.7757845  51.7774239  15.4274254
   7.5880823  52.3817825  16.5525494  61.4817581  25.7035351  40.5111771
  61.0472412  26.5505180  40.4109497  60.8766022  25.0756855  40.1164322
  23.1319904  66.8741684  56.5850067  22.4367294  67.2622223  57.1162872
  22.8509769  67.0172348  55.6812363  28.8362026  42.6225739  67.0711136
  29.2051659  42.5053902  67.9465408  29.4759140  42.2176628  66.4854126
  19.8139019  45.1628304  31.3049812  19.0062637  44.6580963  31.4008636
  20.4243584  44.5596924  30.8809528  74.0077591  28.4614563  48.1438484
  73.2085953  28.7438717  48.5886078  74.5319672  29.2583885  48.0642624
  45.9438400   3.2952826  44.4527397  46.8014297   3.1805625  44.0433311
  45.3242950   3.2638667  43.7237625   2.7796690  66.1586533  18.0554581
   3.1346128  66.3442307  18.9248295   2.0239687  65.5948563  18.2206345
  14.1410198  57.1090965  39.9847641  13.7336540  56.2587357  39.8199196
  14.9259558  56.9041862  40.4928169  53.6189499  25.1054993  55.1535912
  54.3708992  25.2320271  54.5749779  53.0074844  24.5778999  54.6397972
  36.7479172  38.5268440   0.7886294  36.0737534  39.1496353   0.5168351
  37.4741707  39.0747643   1.0862280  38.6878319  34.8161583  14.2419167
  38.8930397  33.9127121  14.4825516  38.9921570  35.3369942  14.9851170
  71.5370789   5.0377464   5.6813145  71.3073425   4.1823926   6.0443902
  72.3151321   4.8709731   5.1492901  73.9270248   7.5958724  64.2774353
  73.0852890   8.0421858  64.3697510  74.0132446   7.0791073  65.0785294
  71.2006683  56.7603683   9.7807627  70.9439240  55.8495369   9.9246359
  71.3050995  57.1216736  10.6609812  38.3143959   2.1604850  29.3295670
  37.5192451   2.6799831  29.2108688  38.9726830   2.7926726  29.6180630
  64.0439453  18.0785141  66.0983429  64.5982819  18.4955158  65.4387589
  64.5580673  17.3320599  66.4060974  73.0266800  22.1827469  62.0730438
  72.5687027  21.7701244  61.3407669  73.8893967  21.7681408  62.0801849
  78.7884979  66.5813980  18.5343819  78.3073730  67.3868179  18.7242432
  78.7727509  66.0932846  19.3576241  76.8434753  57.8195229  38.5712090
  76.8093033  58.4535713  39.2874794  77.7108002  57.4213562  38.6449738
  70.1784058  18.4483700  41.4817848  70.3210602  18.7974739  42.3615646
  69.3359375  18.8144169  41.2125435  71.5912247  36.8076401  82.6739044
  71.9961166  37.5902557  82.2999954  70.7707062  37.1209946  83.0544052
  62.6005974  62.8795586  41.3034554  62.2705002  63.5212173  40.6745338
  62.4964523  63.3035889  42.1552696  81.3339539  22.3066883  79.4675827
  81.2334747  21.3932037  79.7353210  82.1823196  22.5690670  79.8248825
  71.2524261  60.4509392  36.3200760  70.4227142  60.0217743  36.5289612
  71.4564362  60.1583748  35.4318085  14.5428896  50.8537636  47.4500008
  15.0768452  51.6287575  47.2753258  14.4685154  50.4178467  46.6010742
  14.3998861  58.7013702  52.3494873  14.0857067  57.9898186  52.9073563
  14.3418598  58.3519859  51.4602203  84.4964676  26.4028873  11.2117682
  84.2885284  25.7912693  10.5054283  85.0005035  25.8832035  11.8379555
  12.5553331  67.6031647  27.8190804  12.8689289  67.6865234  26.9185581
  13.2443409  67.1135635  28.2682877  24.2347946  39.5450020  65.9726562
  25.0943794  39.9634819  65.9255524  23.6572361  40.1280441  65.4799881
  78.2331390  44.4781876   0.2848623  78.1923828  43.5852089   0.6271518
  79.1689072  44.6557312   0.1896935   8.0178585  22.8666000  87.9499817
   7.8273940  21.9517269  88.1572495   8.2469578  22.8589458  87.0206299
   5.8104467  39.6316757  69.5283508   5.0254092  39.3219948  69.0766373
   6.2782626  40.1458817  68.8703461  62.8308830  10.8243771  52.7727699
  62.8140907  11.7483730  52.5234032  62.2471428  10.7698488  53.5294075
   9.5233078  28.2364864  13.0014849   9.5390301  28.8712959  12.2852430
   8.6905289  27.7765789  12.8956747  17.1338596  20.6503448  81.2170029
  18.0737629  20.8230610  81.2715912  17.0239658  20.1826782  80.3890839
  30.6876659  48.5621948  33.8619308  30.6875401  49.4305305  33.4591560
  31.5251865  48.1780396  33.6026726   2.5484898  31.3152142  45.9590645
   2.3096807  32.2332001  46.0875397   2.1396713  30.8564091  46.6929550
  36.8218575  60.9298439  29.0068893  36.7249565  61.8449669  29.2703152
  36.6579056  60.9334221  28.0638409  21.1079292  39.6390228  61.5118904
  21.2274208  40.1972198  60.7435341  20.9899082  38.7595406  61.1529846
  65.0272141  23.9680328  53.9705467  65.0507584  24.0796738  54.9209251
  65.5428696  24.6993313  53.6306381  22.7026062  40.1969070  69.8351440
  21.9259796  39.9714012  69.3230591  22.7267189  39.5433502  70.5340805
  76.9383774  43.7882271  63.0683136  76.5424347  43.0588684  62.5913429
  76.3084869  43.9924927  63.7595062  42.3070145  68.3288116  39.0991440
  42.5800476  67.9011459  39.9108009  42.2832222  67.6231308  38.4528618
  31.6456738   4.9159455  86.8219833  31.0494766   4.6925983  86.1072159
  31.9214954   4.0707879  87.1767578  85.9515762  61.2847939   9.2600355
  85.5353012  61.1073761  10.1035204  85.7091675  62.1886444   9.0587187
  84.2315598  25.5372715  72.9819412  84.5175247  25.0401821  73.7483292
  84.8198929  26.2917519  72.9526367  42.6417274  14.4277172  75.7607193
  42.6485558  14.0526829  76.6413574  43.2484627  13.8801184  75.2624741
  71.1175156   8.8388281  23.7185574  70.4438248   8.7791767  23.0412006
  71.9298248   8.6043701  23.2697582  26.5837765  67.7720947  75.5038223
  27.3550186  67.5733948  74.9728470  26.8762913  68.4582520  76.1036987
  40.1269798  47.1599350  42.7271080  40.5339928  46.3356857  42.4603004
  40.7017403  47.8372879  42.3706322  40.4828568  48.8077698  58.1641693
  39.8831406  48.8767014  57.4213257  41.2649460  49.2841835  57.8856087
  22.7550087  45.5457344  28.9079628  22.3795471  45.9442711  28.1228352
  22.1389751  44.8515663  29.1422024  22.4245129  51.5485420  65.4984131
  22.4898014  51.7105179  64.5572815  23.3249378  51.3787727  65.7752609
   3.4389970  29.1184673  60.2602539   4.2845726  28.8053875  60.5815239
   3.1253486  28.4174042  59.6889687  61.2363968  25.6937675  14.6437960
  61.1957397  25.4190502  13.7277660  61.7923355  25.0387516  15.0658369
  68.2014618  68.0111542   9.3738146  67.5269012  67.4187927   9.0416927
  68.3896713  68.5955887   8.6394749  33.6552238  67.9903030  21.0305901
  33.4984169  67.6083374  21.8941555  33.4423065  67.2881470  20.4158726
  78.2348251  27.7301140  45.8194427  77.5007553  27.3908405  45.3073196
  78.9959641  27.6189308  45.2497673  22.6066628  42.7646446  49.3453484
  22.5009022  43.6477203  49.6992226  23.3986969  42.8143578  48.8101463
  61.6338196  12.4672480  62.4317741  60.8865967  13.0623417  62.3705292
  61.9076805  12.3325014  61.5245399  80.8475418  13.2601042  84.1244659
  81.1287384  13.4033670  85.0281448  80.4694672  12.3807402  84.1278229
  35.3433800  61.5175400  22.2066994  34.5191269  61.1696167  22.5469799
  36.0179558  61.1086922  22.7489376  51.1823959   3.1617672  35.6527367
  51.5116272   4.0190763  35.9226608  51.9218140   2.7516501  35.2040749
  86.1381989   2.7573624  85.5888596  86.8196869   2.3653800  85.0428314
  85.4152908   2.9268827  84.9847870  66.5355530  11.2511654  76.1100616
  66.4721909  12.1195774  75.7124710  66.2613831  10.6500521  75.4174423
  67.7204208  46.3448181  67.0757828  67.2991333  45.5410500  67.3802643
  67.9620438  46.8073769  67.8782120  47.5861015  25.5367241  22.4369698
  47.8098984  24.6597576  22.7485371  47.4811821  25.4352798  21.4909611
  24.7526627  28.6759624  17.6787720  25.1970787  28.3537025  16.8946304
  23.9036179  28.2340355  17.6715622  22.1604824  69.6935043  63.5161057
  22.7933025  69.6591339  64.2334518  22.6647434  70.0106583  62.7668648
  44.3479614  50.6521416  59.9822311  43.9787941  50.0580826  59.3287430
  45.1972961  50.2690277  60.2015266  10.5634308  35.8783836  79.5082092
   9.8192558  35.6487236  80.0647049  10.5166922  35.2604141  78.7787170
  44.0663872  10.2669792  42.0463867  44.7694321  10.5455446  41.4595680
  43.2811546  10.6874762  41.6959267  78.0563354   4.4651546  85.6456680
  78.3387756   4.1751571  86.5130539  78.4060516   3.8053222  85.0468750
  21.9170666  58.5009117  40.6752663  21.9504967  58.8421097  39.7815704
  21.3983269  57.6994133  40.6063957  82.9486313  16.7385445  58.3265991
  82.7385635  17.4699440  57.7459412  83.8234100  16.4606857  58.0549583
   6.9816465  64.9566422  38.2139626   7.1099520  65.5800018  38.9289360
   7.1823840  64.1042557  38.6004486  41.6987686  13.3043871  86.1994705
  41.0857048  12.7207575  85.7525253  41.6004105  14.1441555  85.7507553
  69.1684036  42.6716003  66.7186890  68.9834290  43.0459328  65.8573532
  68.3289185  42.3163528  67.0107498   3.9550948  38.2337036  67.6414642
   3.9058580  37.2946358  67.4627075   3.0726166  38.5582390  67.4621811
  42.6622276   4.5053296  58.2568245  42.9086609   5.4269080  58.3355370
  41.7648392   4.5249214  57.9243355  52.1854019  10.7666006  26.7467670
  52.7143440  10.6094933  25.9646091  51.4149246  11.2345409  26.4248447
  77.5079498  24.1823997  37.3949280  78.1753082  23.9293575  36.7570877
  77.7310410  25.0829315  37.6305199  63.1076126  17.3020782  81.8092804
  63.3098679  16.5037651  82.2971497  62.5529022  17.0073299  81.0870285
  70.3132477  31.7615223  50.6208420  70.6703033  32.5261421  50.1690712
  70.7499161  31.7610435  51.4726334  48.5947533  24.9292984  50.2236137
  49.4574509  24.8214054  49.8231850  48.0892067  24.1798935  49.9089012
  36.3172417  56.7844276  69.5960388  35.4555435  56.7645836  69.1797333
  36.2532349  57.4843330  70.2458572  81.8467102  66.8868942  84.3773651
  82.2898026  66.0587921  84.1925583  81.1265640  66.9189529  83.7476120
  53.8882103  32.0512543   2.7281263  54.5913658  31.9905758   3.3747478
  54.2878380  31.7531204   1.9110305  78.6290436  57.7454224  69.3904190
  79.1203232  56.9552078  69.6150055  78.6241150  58.2615738  70.1965179
  64.5623779  69.0739822  17.1965103  65.0298004  69.1707382  16.3668213
  65.0875092  69.5678177  17.8262672  81.2986603  46.4383850  60.9615860
  80.6948700  45.7033424  61.0682793  81.3965683  46.5323219  60.0140533
  20.7879543  65.1152878  87.6915741  20.3646355  65.9677124  87.7935638
  20.2974110  64.6866455  86.9902420  60.1479149  11.5419331  26.1252346
  59.6770859  11.5462294  25.2918472  60.6397209  12.3631248  26.1267109
  47.6258926  70.5816727  57.7238235  47.8685760  69.6932983  57.9848175
  47.2367516  70.9644470  58.5101357   5.2859187  52.2867622  12.9611874
   5.4537139  51.4106827  12.6139727   6.0428243  52.8031578  12.6843052
  42.8653526  51.6729660  17.6002350  43.5471954  51.5587463  16.9382095
  43.3121338  51.5206947  18.4329624  69.9967422  44.0108757  70.8242416
  70.9188919  44.0990868  70.5832138  70.0092621  43.8661766  71.7703629
  84.1084595  25.9203663   7.6911941  84.6014862  26.7106419   7.4706893
  83.2460556  26.0590553   7.2997127  80.1209412  20.5871696  -0.1752683
  80.6285324  19.8475800   0.1587842  80.4513168  21.3431339   0.3101209
  68.7253876   1.0669017   2.8397934  67.8588791   1.4240956   2.6453691
  69.3035583   1.8297502   2.8436790  65.9867325  45.3925476  73.0508881
  65.0846939  45.3050079  72.7428360  66.1953354  44.5375214  73.4272537
  25.1171894  42.7533913  21.9446354  24.7865124  42.3789558  21.1281261
  25.4097137  43.6324120  21.7038479  33.3193207  30.6739120  85.6597672
  32.9015541  30.5256615  84.8114014  32.7077751  30.3030872  86.2959518
  30.8677158  65.3287735  65.7466507  31.4701881  64.7839203  65.2402954
  31.4357910  65.8532867  66.3109283  26.6263161   9.2509727  13.8147974
  26.1522369   9.7979650  14.4411201  27.2313633   8.7402983  14.3527203
  66.6578979  64.0146408  10.0645895  67.5891724  64.2348785  10.0432453
  66.3696899  64.1043015   9.1562223  26.0567207  31.7200851  66.5382233
  26.8895283  31.5760822  66.9875870  25.3940239  31.6045685  67.2191925
  38.8246803  64.4061661  33.3665276  38.2905731  65.1450577  33.6580887
  38.2372131  63.8884888  32.8159637  17.1114426  62.9089088  46.2381554
  17.6448631  62.1531677  45.9920883  17.7306080  63.5185699  46.6396294
  58.7033920  13.9225893  51.8373680  58.0023537  13.8558102  51.1890450
  59.4914055  13.6506910  51.3669052  19.0725193  11.6413183  51.0316811
  19.0366211  11.0807657  50.2566185  19.3149471  12.5031328  50.6929550
  56.3585052  62.1056099  42.1007347  55.4631577  61.7768402  42.0201569
  56.5261612  62.1153984  43.0430832  14.4809446  54.7257462  37.1053543
  15.2791567  54.2448311  37.3240128  14.0366783  54.8466377  37.9445496
  85.4439392  40.3491478  23.5476131  86.0958099  41.0472755  23.4850769
  84.6222229  40.8044662  23.7312164  11.1297808  55.2932854  14.2866325
  11.7802010  54.5937004  14.2252970  11.4046164  55.9340172  13.6307650
  46.5797386   2.0564990   0.2745356  47.4555054   1.7555122   0.5167570
  46.7314835   2.7111707  -0.4070883  49.5702209   5.7665081  49.5026207
  48.7547951   5.4344931  49.1270180  49.4165649   5.7655816  50.4474068
  85.5183792  65.1803818  23.4479446  86.1082840  64.8882370  24.1428471
  85.1014175  65.9658127  23.8021851  73.2193756  15.2660561   6.9253120
  74.0613251  14.8824329   6.6799779  72.5725555  14.7556372   6.4381452
  18.4315052  31.7141495  38.9175186  18.0148010  31.8586731  39.7670517
  19.3350086  31.4806328  39.1305580  50.7850723  16.5595531  50.8131943
  51.5073395  16.6741257  50.1955910  50.8230133  17.3352890  51.3726845
  81.9325867  57.5816727  57.6666374  81.1751328  58.1388054  57.4874725
  82.6593933  58.0141449  57.2183571  15.7334661  28.5025959   6.4718027
  15.6074286  28.8032360   5.5718241  14.8722820  28.1823139   6.7401567
  56.1722755  43.0916290  32.7115898  55.7051125  42.7503281  31.9490242
  56.4372787  43.9747849  32.4546127  50.7017517  16.5364361   0.4020665
  50.1713295  17.2103863  -0.0229937  51.4981232  16.4894104  -0.1269058
  48.5659599  13.0717449  12.3532734  48.1647644  13.7650156  11.8292036
  49.4114342  12.9130058  11.9335051  43.8340836  58.5020561  14.9974146
  43.8235397  58.4084930  15.9499722  44.7607918  58.4550629  14.7623796
   6.9153094   4.7173300  86.2789459   6.5906248   5.4514551  86.8003616
   7.1382308   4.0457783  86.9235840  69.2555389  67.1696854  37.5908432
  68.4707413  67.7103729  37.5015640  69.7605286  67.5932617  38.2849617
  50.8019142  19.7092686   8.1251497  50.6671791  20.4305134   7.5104270
  51.6373863  19.9078541   8.5479784  29.0498295  30.6670666  72.2317200
  29.6701660  30.7743397  71.5106735  29.2726803  29.8188286  72.6152039
  21.1899071  59.5091972  33.8895798  21.3071156  58.9141579  33.1490250
  22.0801506  59.7444534  34.1510277   6.1448250  13.8768187  54.7387123
   6.2114091  14.0614223  53.8018456   5.3783498  13.3088274  54.8170280
  36.0872688  36.3032303  12.9895859  36.2769165  36.5915337  13.8824167
  36.0797195  35.3475533  13.0430069  10.8016148  71.6412277  58.8283958
  10.7403584  71.4302444  57.8967514  11.7007685  71.4152832  59.0665245
  28.3028698  35.7827606  70.6803818  28.1777554  35.9674187  69.7495346
  28.8943062  36.4715042  70.9838104  82.9185028  59.2434731  15.5500078
  83.3639374  59.5761566  16.3292027  82.5285339  58.4160423  15.8319864
  19.7843456  41.1770782  50.4576111  20.3575592  41.9024506  50.7055931
  19.0105534  41.5998421  50.0851212  61.9257927   6.8729439  56.3199043
  62.6098900   7.5379024  56.2419624  62.3214912   6.0789475  55.9604263
  24.3115330   4.2517352  77.3626862  24.8554630   4.8586502  76.8606644
  23.4999008   4.7334104  77.5222855  39.2638626  34.5680199   6.3514228
  39.5552635  34.3872604   5.4577541  39.3716431  35.5138206   6.4518032
  79.3146591   5.0192351  17.6250095  79.9362259   5.6998143  17.3667412
  79.8105545   4.2033939  17.5562630  37.2462845  65.9906769   9.4961109
  36.3189354  65.8321381   9.6725073  37.6190033  66.2074509  10.3507013
  65.5714493  11.9976120  78.7486115  66.1163406  11.7051983  78.0179825
  64.7038116  12.1242104  78.3646622  24.7509575  10.9889336  10.7356272
  25.1241169  10.9750118   9.8542700  24.7877254  10.0774899  11.0257139
  61.4446182  61.7951813  14.7461586  60.5786324  61.5016403  14.4630766
  61.3050003  62.6904411  15.0547895   4.4806771  31.1691914  68.3888550
   3.7852347  31.5082912  67.8252945   5.0643950  31.9155941  68.5244598
  52.4312782  69.0029602  77.5622101  52.7336082  69.8266754  77.1796951
  52.6077042  69.0946884  78.4985275  12.1991043  36.0233612  70.7012863
  11.6774635  36.3962936  71.4119568  12.9580078  35.6370964  71.1384354
  63.1476021   8.5310516   1.9678845  62.3342896   8.9335155   1.6632962
  63.3352623   7.8510094   1.3209229  78.1155777  54.7739258  70.1142731
  78.6898575  54.1114044  70.4983292  78.1363449  54.5932007  69.1745148
   9.6865559  36.4098015  83.1734390  10.5137787  36.2300949  82.7266312
   9.0602455  36.5620232  82.4657745   7.1771517  62.0363579  22.3847218
   7.2276649  62.3254852  23.2958126   8.0330725  61.6451721  22.2097721
  32.5695953  38.2997932  45.6385269  32.2638512  37.6436005  45.0122948
  33.1020889  37.8059731  46.2620850  16.6365528  60.4418640  78.8762741
  17.4891949  60.3129082  78.4608154  16.2114239  61.1161346  78.3463135
  30.6492119  26.2649899  67.3003693  30.4736233  27.0292034  66.7513885
  31.3167114  25.7740841  66.8211136  66.6327286  62.0125694  31.0355244
  66.5165787  62.9176254  30.7463531  67.5709763  61.9348984  31.2083931
  57.1932411  48.3879547  11.4337492  57.0384750  47.9022064  10.6236076
  57.4312134  47.7169762  12.0735846  33.7747116  33.3594017  85.4700546
  33.7567558  32.4160919  85.6315384  34.1213799  33.4437904  84.5818405
  38.9372063  28.5861492  18.6112804  39.0865936  29.4827175  18.9114132
  39.5266876  28.0534992  19.1451607  48.9317703  43.1626129  17.6222992
  48.1720734  43.7235107  17.4658165  49.0949326  43.2371788  18.5625401
  53.5925941  68.4399338  56.7666359  52.8818169  68.7970810  57.2990608
  53.3836708  68.7136536  55.8735199  13.4793224  37.7770920  44.7927094
  13.0438576  37.6231041  43.9543266  12.8910513  38.3676529  45.2632484
  79.9442596  46.4619751  66.3289871  80.1597900  46.9397583  65.5280457
  80.7110062  45.9133339  66.4942703  52.4763680  35.6555862  60.9555435
  53.1183891  34.9456635  60.9624672  51.6395302  35.2233925  61.1262512
  47.6542053   2.2531061  21.1550312  47.4318542   1.3515813  20.9225540
  47.8229065   2.2229552  22.0967655  21.7448883  39.9150124  39.0637703
  21.2492809  40.6354713  39.4530563  21.1522732  39.5416565  38.4113541
  84.5375519  22.0854607  57.0161819  84.6010361  21.6924324  56.1457024
  84.1224976  22.9347820  56.8658104   1.9344872  56.1272278   1.4458531
   1.5624870  56.4398460   0.6211606   1.5415964  55.2638016   1.5737718
   4.4245234  57.1285477  33.9918137   4.3104839  57.7390137  33.2634201
   4.5978785  56.2855301  33.5728836  29.4219856  54.5994835  34.5367966
  29.1351070  55.1842346  35.2382240  28.7590618  54.7013741  33.8538742
  16.1107063  47.2107582   0.6640129  16.1790771  46.3080444   0.9749230
  15.3224916  47.5508575   1.0874274  62.7783127  64.2318420  30.2441425
  62.2478981  64.4691010  31.0048008  63.6766586  64.4327927  30.5064926
  77.1049347  10.3347807  84.9414902  76.7375870  10.7725773  85.7093582
  76.3410950  10.0436335  84.4434891  40.0781326   5.6679606  18.8922329
  40.0567513   5.9471669  19.8075581  39.4623299   6.2517681  18.4492989
  62.1144257  28.3445835  60.4787369  61.2553749  28.1107063  60.1272202
  62.4121704  27.5542068  60.9291649  67.2766724   3.0825465   6.2140222
  67.4832611   3.8726263   5.7146969  67.6012802   3.2648098   7.0958614
  28.9861641  49.5215988  39.2503853  29.8730602  49.1696739  39.1742668
  28.4615078  48.7836800  39.5609360  54.8142738  30.1501961   0.9804006
  54.6888046  30.0568180   0.0360647  55.3849373  29.4198723   1.2195702
  46.3634148  44.0068092  80.3168869  47.2740822  43.8540154  80.5690155
  45.9501724  44.3509483  81.1087418  69.7605286  54.9104080  80.0745926
  69.0315704  55.5306740  80.0636673  69.6750641  54.4551048  80.9122238
  46.3805885   8.4235210  59.7545433  46.2076721   7.7875819  60.4487457
  46.2502785   7.9333267  58.9427795  55.2697411   5.3799038  81.6123810
  54.9805984   4.8162365  82.3299561  55.7083092   4.7860370  81.0031128
  15.7117958   9.7543058  86.2952271  16.4916744   9.4699497  86.7718430
  15.3996363  10.5179777  86.7806091  40.8540611  30.3334961  81.8661575
  40.0018463  30.2068520  82.2831955  40.6560860  30.3998451  80.9320068
  64.9219208   2.6792214  16.3657761  64.3164749   3.2208118  15.8594627
  65.1136093   1.9357821  15.7941236  32.6322327  45.7362289  72.4814301
  31.8382339  46.1789513  72.7810898  33.2092056  45.7361984  73.2451935
  33.9997559  69.0704651  51.2523155  34.5114403  68.6019974  50.5928116
  33.3965302  69.6142197  50.7456741  84.4609222  51.5253868  13.6388340
  84.9653168  52.3215408  13.8060684  84.9029999  50.8494453  14.1525459
  65.7897110  20.1786785  39.0142097  65.6870346  20.7305832  38.2389107
  65.6746979  19.2856369  38.6894264  45.9231453  27.2949505   7.2820530
  46.1773491  27.4452915   6.3715534  45.3367271  28.0222797   7.4902234
  71.4454498  60.8761826  75.9049988  71.3854370  60.5181961  75.0192947
  70.9684296  60.2497826  76.4493408   6.4179153  31.5120468  53.7924957
   6.2402716  31.0079212  54.5865555   5.7765417  31.1928864  53.1576653
  84.0522919  71.2032928  64.0716171  84.4087296  71.9268265  63.5561752
  84.6886063  71.0739746  64.7749023  44.5596008   5.3417192  72.3304367
  43.7023544   5.7310367  72.1578369  44.6889343   4.7200704  71.6141510
  39.4103775  41.3414154  25.9121685  39.3746834  42.1133881  26.4769821
  38.8826485  40.6861076  26.3685760   2.3258903  43.0182381  42.1412811
   1.8203112  42.7541924  41.3725815   2.9191236  42.2843094  42.3014565
  31.8157444  15.0529356  75.9548187  32.3525429  15.8167019  76.1663437
  32.4181290  14.3117743  76.0184402  80.5541458  70.5938950  53.7667236
  80.6484833  71.3730927  53.2188339  81.0143433  70.8135452  54.5767899
  73.5773087  52.8622818   0.4072035  72.6358795  53.0283661   0.4557602
  73.9785004  53.6464996   0.7817439  84.0892029  33.2234993  78.9148178
  83.5978241  34.0201530  79.1151199  83.4783401  32.6855850  78.4111099
  81.4446945  64.9925537  57.8155403  80.9135437  64.6842117  58.5497322
  82.2986679  65.1859131  58.2022934  61.0029602  15.8191223  28.3760204
  61.5510559  16.4467106  28.8471432  60.8485069  15.1155224  29.0063553
  84.5672913   4.2956877  71.4290848  83.8881912   4.7043300  71.9657974
  84.9982758   5.0285306  70.9892807  84.8218002   3.7181036  83.4672470
  83.9883881   3.9581900  83.0622635  85.2941208   3.2460120  82.7814789
  10.2077036  58.7115746  54.3844604  10.0651646  57.7892838  54.1716385
  10.4629374  58.7078285  55.3069992  61.0338478  58.0379791  22.7398643
  60.2103119  57.8833199  22.2771568  61.2156754  57.2118568  23.1878490
  16.5295315   1.9741949   1.9521489  15.9044981   1.2827682   2.1700773
  16.2724285   2.7123346   2.5046694  83.2632675  22.0144958  32.3880157
  83.5421677  21.4526443  31.6649876  84.0706406  22.2128353  32.8624077
  26.7829437  49.1580238  46.8165932  27.4053402  49.6585388  46.2890129
  26.1323147  49.8025284  47.0950279  62.1008987  28.1759109  79.7514420
  62.1521301  28.5058479  78.8543625  61.1639519  28.0644588  79.9125061
  10.2484665  40.2687340  54.6180573   9.5311441  40.5612373  55.1803055
  10.7288227  39.6361618  55.1522369   0.3482077  43.8444939   7.3805976
   1.0496955  44.4953423   7.3572907  -0.4498593  44.3464890   7.2152963
   6.7707429  65.3898544   7.7150154   6.5813165  66.2962799   7.9573746
   7.7192945  65.3690262   7.5883360  11.4047794  65.7507706  53.4758568
  11.6542339  66.4712372  54.0545921  10.4610882  65.6556931  53.6048431
  31.5127354   6.9056211  33.9958954  32.3552208   6.4570160  34.0680389
  31.7169323   7.7287898  33.5521278  85.0541306  46.5672646  27.8769226
  85.5874405  45.9151688  28.3314400  84.7431641  47.1483612  28.5710831
  77.6046524  52.9550171  87.5212555  78.3705826  52.6661072  87.0251617
  77.8616562  53.8012810  87.8873444  17.6486359  24.7824287   5.9686527
  17.8927784  24.2007313   6.6885500  18.4802685  25.0134735   5.5548429
   9.8920174  30.8060989  27.0704308   9.8514729  31.0902042  27.9835968
   9.1044979  31.1743069  26.6698456  81.9735489  67.7473602  56.0725212
  81.1656113  67.3461151  55.7523956  81.6939392  68.2986526  56.8033638
  21.0978661  59.0302658  57.9065666  20.8088264  59.7180862  57.3069077
  20.9257202  58.2145576  57.4362297  19.6706505  48.8116837  15.4943943
  19.8608284  47.8902130  15.3184462  19.5732746  49.2058945  14.6275911
  16.4646759  36.9752464  54.9049950  16.6892796  37.2807465  55.7838898
  15.8524952  36.2540855  55.0512619  54.4157028  45.2190781  15.6175251
  54.5934258  44.3181381  15.8876276  54.6808357  45.2502632  14.6983061
  49.0048523  30.7477951   9.1010437  48.8089371  31.6547375   9.3362103
  48.6234550  30.2289791   9.8092804  20.8722267  30.5691395  84.5862350
  20.8638172  29.7116184  84.1610107  21.6614456  30.9948235  84.2513351
  47.8904037  26.1152267  26.1607666  47.2745361  26.6184406  26.6934109
  48.3308563  26.7709370  25.6201382  48.0386620  38.2187157  81.5254745
  47.4153023  37.9921227  82.2156296  48.4795837  37.3941383  81.3208084
  25.5027866  56.6883011  72.0555115  26.0623226  55.9540482  71.8024750
  25.6235809  56.7664719  73.0018311  37.3305550  11.2088270  84.0804062
  36.3792000  11.1954498  83.9756317  37.6147842  11.9797201  83.5893173
  59.7650757  32.1079292  32.3787804  60.3734016  32.4799004  31.7401791
  59.9002838  31.1624203  32.3158455  39.7617645   6.3731599  11.0275602
  39.1028557   5.6799374  10.9886818  40.3387909   6.1151004  11.7463646
  55.4236603  55.4257622  22.4214668  54.8627663  54.6595688  22.3007336
  56.0550957  55.3758240  21.7038116  38.4653244  56.3075752  56.4275780
  39.2291069  56.4014168  55.8583145  38.7132378  56.7549286  57.2366791
   6.2073107  35.7121162  41.8639336   6.8436952  36.4263000  41.8983917
   5.4802556  36.0637512  41.3501472   4.6032815  32.8457298  26.5734825
   4.0282574  33.3664551  27.1342163   4.0064740  32.3523636  26.0107689
  23.1030045  69.1269760  41.7990761  23.7077522  68.3851166  41.7865028
  22.9702835  69.3120651  42.7287865  80.4507523   2.5830574  25.4279003
  81.3781509   2.5858099  25.6648579  80.3242340   1.7547415  24.9651699
  80.3355865  10.8167458  88.0684662  81.0542068  10.8151960  88.7007828
  80.7498245  11.0427999  87.2356720  52.4697571  11.3891230  20.6359272
  52.4385300  12.3218145  20.8488636  51.8036766  10.9927835  21.1976109
   5.5750966  25.9749718  86.9419785   5.3871627  25.0394115  86.8668900
   6.4499912  26.0132599  87.3284073  75.1488953  11.4662676  40.2456818
  75.4570007  11.0194635  39.4572220  74.7089691  10.7831287  40.7516670
  64.4115753  56.0685463   4.2444386  63.4678802  56.2070885   4.1639524
  64.5564041  55.9452477   5.1825504  40.4729729  18.8429031  43.3947372
  41.4057045  18.9785690  43.5615883  40.4475098  18.2774887  42.6227951
  35.9196243  65.6012268  71.1606827  36.6772232  66.0723267  71.5075760
  35.3782005  66.2808685  70.7592239  48.3848763  46.3854828  79.9254913
  48.9318390  45.6976624  80.3049164  48.0912056  46.0239716  79.0892563
  53.1519508  41.9353790  30.8727627  52.5440941  41.4258652  31.4086132
  53.8451385  41.3166046  30.6428928  78.3344955  26.2707405  14.9460716
  78.2562866  25.8811665  15.8169031  78.7805481  27.1043224  15.0957727
   9.6884279  30.0361671  68.0057297   9.4278793  29.2214031  67.5761871
   9.0783310  30.1267471  68.7377167  85.9865646   1.3936195  33.8084908
  86.3537598   2.0723569  34.3748055  86.7123108   1.1384523  33.2389145
  75.5157852   0.4244685  76.3621521  74.7031097   0.9287471  76.3234482
  75.8273010   0.4024161  75.4573288  60.0080795  68.7719116  29.9055824
  59.9320145  68.4091339  29.0230656  60.4935265  68.1086655  30.3961678
  57.2484169  16.0376778  73.6626740  57.1908340  15.8640919  72.7231140
  56.3611679  16.2947102  73.9135742  34.9457245  65.7339630  66.0483856
  35.0938606  65.1512680  66.7932053  34.1626320  65.3845978  65.6230087
  58.4268761  51.6762009  30.8523178  59.1670189  52.0692940  31.3148098
  58.7423973  50.8127708  30.5855427  58.6128807  15.0813732  19.3764763
  58.4627151  15.8111048  18.7754993  58.1722832  14.3377867  18.9651566
  30.4353695  21.0696392   5.3450723  30.3998203  21.8611145   5.8822279
  30.5526199  21.3917809   4.4513669  44.2293015  12.5727053  74.5500793
  43.6458130  11.9658041  74.0946198  45.0903931  12.4123011  74.1640320
  30.3518772  18.8092804   0.2355387  29.6062660  18.9871368   0.8088284
  31.1195011  18.9626350   0.7864184   4.1475692  37.0361748  30.9213829
   4.7846751  36.3300209  31.0294399   4.5186696  37.7705040  31.4105396
  12.9128942  18.8413124  20.0428162  12.4392672  18.5610104  19.2596550
  13.8087702  18.9903107  19.7404327  57.9422874  59.0894241  39.1160812
  58.6743317  59.5964470  39.4671783  57.6461334  58.5547447  39.8527222
   3.8531420   2.1446874  68.9890900   3.0753131   2.0169559  69.5321350
   4.5873895   2.0432217  69.5947495  29.2051392  48.9175491   1.7396967
  29.0757065  48.3043938   1.0161480  30.1429844  49.1086349   1.7268530
  60.8050842  69.9792175  16.4456367  61.0338707  70.1949921  15.5415735
  60.9370613  70.7956924  16.9274921  59.2486267  27.0877705  27.0666924
  59.1859398  27.2112522  28.0138226  59.0079346  26.1717472  26.9281292
  24.5932159  68.2304764  26.0075226  25.3708458  67.6734161  25.9727707
  24.7252979  68.7781296  26.7813835  86.1642532  53.7738953  82.9823608
  85.8420258  53.2986412  82.2165070  85.5920410  54.5384178  83.0480347
  69.1336060  34.6713524  60.8476677  68.2529602  34.7204475  61.2195282
  69.1682281  33.8124695  60.4265289  80.7518768  59.8969765  27.4218674
  80.5884247  60.4917107  26.6898823  80.6578217  60.4447784  28.2011623
  65.2513657  27.4921303  76.6867065  65.7279892  26.6925888  76.9098511
  65.7686005  27.8921013  75.9876175  85.4570007   3.3713574  43.6553001
  85.6385651   2.5427341  43.2118454  85.0641861   3.1153638  44.4898033
   5.4347353   0.7613969  10.8991556   5.9326687   0.4574931  10.1402502
   5.7351575   1.6594478  11.0387373  72.9199371  41.4753456  29.1154137
  73.4615936  40.6972733  28.9833107  72.9281387  41.6149330  30.0623455
  63.6475906   8.9534931  56.3391838  63.7729912   9.8181400  55.9481659
  64.0449371   9.0232630  57.2072144  86.6146240  20.9647884  64.5930176
  86.3528214  21.5902996  65.2686081  85.7933731  20.5676003  64.3031616
  59.4415359  20.1888332  38.7148476  58.8152313  19.7045689  39.2528648
  59.3914757  19.7715473  37.8548508  58.5722313  47.2539139  24.0421028
  59.2202225  46.7491188  23.5506554  58.7694893  48.1665382  23.8312874
  46.9515152  62.8236427  24.9667530  46.2439156  63.0495453  25.5704956
  47.2617607  63.6663399  24.6353245  49.7899513  32.1087303   1.7240442
  50.0092850  31.8941250   0.8173638  48.9899788  32.6304207   1.6599011
  53.3274269   9.5533438  24.2573910  53.9713058   9.6571455  23.5567665
  52.7384262   8.8679981  23.9417782  57.2987556  18.6068115  77.8593369
  56.7159271  19.0021057  78.5076294  57.6363525  17.8206635  78.2885590
  19.9076576  69.1458740  42.9755974  20.0446339  68.9055862  43.8919678
  19.4972935  70.0098267  43.0132942  65.1254883  56.5932579  80.3679581
  64.3345261  56.9831505  79.9956665  64.9421463  55.6540298  80.3896561
   5.9798717   8.5472765  85.9293823   6.4557748   8.9922485  86.6306229
   6.6640215   8.1531477  85.3882370  56.8547897  11.1381130  50.1846237
  57.4510345  11.0666342  49.4392281  56.0896873  10.6225309  49.9296227
  57.1419754  33.8478966  79.3435974  56.6778603  34.3389702  80.0215912
  56.6537743  34.0286484  78.5403442  60.7447662  23.9277744  79.7746277
  60.0945015  23.5914917  79.1579437  61.4317169  23.2612801  79.7854767
  19.6558723  46.0552292  63.4208641  18.9459915  45.4173012  63.4939842
  20.2939281  45.6382294  62.8418770  44.3655968  55.6250191  50.9506340
  44.9574394  56.3688774  51.0629959  44.9102936  54.9427071  50.5582199
  69.0856323  37.8803825  56.6309280  68.3743744  37.5905647  56.0596542
  68.9912872  37.3471489  57.4202271  84.4121017  52.6504135  86.6790695
  83.5785217  52.3273239  86.3370361  84.5413742  53.4911575  86.2401199
  36.1233063  45.7557564   9.8399992  36.1530800  44.8076668   9.9683390
  35.3781624  46.0454254  10.3663893   6.7070479  12.3472910  21.9197578
   6.3701234  11.4606810  22.0487442   6.8188148  12.6922741  22.8056049
  23.3652344  41.1108627  78.0753250  23.3613510  42.0508995  77.8949203
  22.6062336  40.9725761  78.6419220  18.0660267  67.4964676  65.9915771
  18.9935036  67.3203735  65.8334274  18.0431156  67.8973618  66.8604736
  53.8283577  16.7502384  31.4157505  54.3043213  17.1754265  32.1291237
  53.0414238  17.2831364  31.3017998  35.9375687  52.3237495   0.4479846
  36.8844795  52.1864395   0.4751704  35.6185913  51.9569359   1.2725657
  85.1146927  20.5654716  79.2077866  84.6395187  19.9692268  78.6290512
  85.9799118  20.6494102  78.8070526  33.2851181  61.4386215  64.3505630
  32.7819366  60.9896965  65.0299072  33.0541229  60.9831314  63.5409966
   3.4219372  67.6308670  72.1017685   3.2897580  66.9755478  71.4167023
   3.6611202  67.1223831  72.8766708  68.3419800  44.1469765  25.3721733
  67.5265350  44.6342049  25.4899940  68.2086487  43.6482048  24.5661449
  68.3065796  40.1525116  14.6149082  67.3735733  40.3404160  14.5128307
  68.7433167  40.9687538  14.3715105  35.3884659  31.2551670  74.3831635
  36.1082649  30.8806267  73.8753815  34.5992432  30.8794651  73.9930191
  63.2511902  28.9188251  10.1410408  63.3001289  29.3543453  10.9920158
  62.9678802  29.6049786   9.5367565  54.9495201  69.5457458  65.1215591
  54.6630325  70.1895676  65.7693634  55.9035606  69.6229324  65.1128540
  70.1953278  63.4453430  61.0446625  69.8084869  64.2578278  60.7183952
  69.8076630  62.7600174  60.5003471  32.3045807  33.7564125   8.5546837
  32.7155762  33.3726082   7.7800841  33.0377541  34.0685921   9.0849943
  13.5124149  59.3547668  11.5132103  13.8567877  59.9150276  12.2087317
  14.2205601  59.3076515  10.8709164  49.4888420  52.8099213  12.0249834
  49.2482147  53.6926155  12.3063736  48.7517433  52.5207062  11.4871454
  74.8941498  29.2462616  55.9386444  74.7339783  28.4431286  56.4341774
  75.2333832  28.9442005  55.0960808  84.3658218  30.2317696  29.4017010
  85.1248932  30.7749214  29.1895084  84.3152084  29.6001320  28.6842709
  78.6122360  39.7537727  61.4024010  78.4567719  40.5316544  61.9380913
  78.3408508  39.0226250  61.9573822  68.4683609  20.9128704  16.1148167
  69.3585815  20.5667210  16.1774216  68.2645950  21.2114429  17.0011387
  71.9815063  12.0695572  27.4385624  71.0575714  12.2333593  27.2494926
  72.4548569  12.6015844  26.7989368  22.9431591  55.5017395  84.9932861
  23.4529095  55.3183823  84.2041321  22.0327682  55.4930916  84.6977463
  60.0343018  62.4216995  62.5299683  60.7568817  62.3749466  61.9039307
  59.4665337  61.6875496  62.2956772  42.5219574  27.1513958  17.0235863
  41.5814781  27.1967373  16.8513203  42.7979202  28.0656528  17.0884666
  59.4028473  20.1146030  78.8939133  59.2754478  21.0363846  78.6695862
  58.6570587  19.6658726  78.4955750  76.6342163  38.3339424  17.7937298
  77.0465469  39.0855293  18.2195606  77.1896057  38.1539879  17.0351849
  13.6433191  20.4177608  24.2859020  14.3475256  20.3647995  23.6397438
  12.8994169  19.9865379  23.8653221  20.9202557  30.2534657  16.9728642
  21.4590416  30.5002842  16.2211838  21.3659706  30.6428127  17.7251816
  50.2015076  43.9712334  39.4325180  49.3496323  43.5389252  39.4929085
  50.2025261  44.6003227  40.1539650  49.4389763  64.5060959  48.1650200
  49.3591576  63.6726723  47.7010536  50.3671494  64.5664597  48.3910408
  54.9947319  47.8913422  68.5053558  55.6361122  47.9713707  69.2113724
  54.2650642  48.4463806  68.7805786  13.4337025  50.0495186  20.0115681
  14.1378145  50.1451797  20.6529007  13.8708296  50.1231232  19.1631966
  83.4884796  35.7024727  36.5747375  84.3513031  36.1134186  36.5209198
  82.9836121  36.2796440  37.1476326  21.0524406  55.5886269  82.7535172
  20.4331951  56.2501678  82.4450836  20.5817547  55.1241302  83.4455643
  39.1019211  45.3480568  50.5509682  38.5568428  44.7672539  50.0201302
  39.8246460  45.5927429  49.9730186  38.0156136  40.3556519  45.6681023
  37.2014275  40.6310272  46.0894089  37.7320824  39.8664780  44.8957329
  48.0850792  61.1812592  78.0007401  48.3308678  61.9527016  77.4901581
  48.1708527  61.4601288  78.9123917  60.1005745  39.9945679   7.3586431
  59.2545013  39.5475273   7.3352890  60.7163620  39.3262558   7.6593080
  14.7288103  56.5694618  73.2865295  15.3777151  57.2727470  73.2631912
  14.0040817  56.8944435  72.7523117  31.1586189  66.8743515  86.7460098
  30.5671520  66.8561249  87.4983826  31.7573681  67.5982666  86.9295197
  41.1245804  20.5652676  13.8706446  41.8097610  20.3218460  13.2481461
  40.3629837  20.7600212  13.3244972  21.5942249  45.8828087   7.6143174
  22.0573463  45.9302177   8.4506798  21.2909222  44.9765854   7.5595217
  61.3335648  13.9814444  35.2786407  60.9766655  14.6243181  34.6658058
  60.5762634  13.6864405  35.7843094  60.4390259  41.0520134  87.8775940
  61.1138268  41.0947762  87.2000656  59.8051682  41.7241058  87.6270905
  70.5728226  70.7921753   3.5168083  71.2367783  71.0968323   4.1353440
  69.8635025  71.4303436   3.5932424  67.7084503  30.4061413  62.4951477
  67.8042450  29.9407120  63.3260689  68.4609299  30.9968967  62.4633865
  68.0072098  57.4279976  33.4986877  68.5916748  56.9682884  32.8959427
  67.8463974  56.7994728  34.2024803   3.1807339  52.6373787  59.6742935
   3.9273379  52.0872574  59.4372711   2.4484270  52.2751541  59.1755409
  14.5987434  25.3482876  67.2698898  13.6451302  25.4284992  67.2903519
  14.8550644  25.7492504  66.4393692  36.4782486  55.1045113  88.7319717
  36.0484962  54.8749428  89.5558929  35.8252182  55.6176453  88.2560730
  56.7154770  25.8636398  37.1419716  57.6637383  25.9842262  37.1918564
  56.5756531  25.4045830  36.3137512  52.3479805  57.5701942  85.5851898
  53.2739143  57.8044853  85.6483383  52.2249298  57.3251495  84.6681061
   6.5525036   8.9349337  75.1507568   5.6136956   9.0683155  75.0200577
   6.9624047   9.3668804  74.4013290  15.5694208  71.2588882  61.9466362
  15.0978155  70.9944839  62.7365189  16.4362717  71.5166779  62.2602425
  23.4033794  52.9493141  75.4809036  22.9937325  53.4613342  74.7835846
  24.1284313  53.4954109  75.7847214  83.3273315  28.0647926  74.2896194
  82.9926071  28.9513264  74.4247284  82.9533539  27.7927132  73.4515533
  46.7050552  65.8027649  68.4788589  45.9806442  65.2305450  68.2258148
  46.3778610  66.2806168  69.2409821  73.9041748  31.2751598  62.6822510
  73.4492264  31.5673885  61.8924103  73.2940979  31.4662914  63.3946419
   4.1656122  30.4771576  82.0483398   4.9095755  30.6659889  82.6202621
   4.3910856  29.6471615  81.6282196  69.9953156  30.6012096  83.4153976
  70.1962204  30.7107582  82.4859543  70.2124634  29.6876945  83.6013260
  56.4518890  46.1864166  67.1158752  55.7412071  46.4248276  67.7111206
  56.0824966  45.4949493  66.5666428  77.0754242  66.2419662  42.2623405
  77.6529312  66.8668137  42.7008438  76.5096359  65.9090958  42.9589844
  11.0165930  59.2951431  61.5243378  10.4205313  59.5862808  62.2143974
  11.0774565  60.0424957  60.9293671  15.2311592  38.4153137  50.2251320
  14.4666224  38.5859871  50.7752113  15.9625216  38.3646317  50.8405762
  82.6108856  15.0787086  40.4158287  82.4447479  14.3505259  39.8171768
  82.9600830  15.7731333  39.8572006  83.2738266  45.0442543  44.8707390
  82.8727875  45.5104561  44.1372185  82.8654480  44.1786613  44.8564148
   8.4944820  34.6008759  84.7244568   8.9069118  35.1826363  84.0859528
   9.0877419  34.6105957  85.4755783  86.0117569  28.7481079  35.1212311
  86.8373642  28.3447895  35.3894386  85.6492691  29.1117420  35.9290733
  83.1946869  62.4414635  64.3733826  83.2535095  61.9678040  63.5436707
  83.5655823  63.3033218  64.1839752  75.9808044  22.0695744  56.5084724
  75.9438324  22.7470779  57.1836395  76.1474380  21.2596951  56.9907150
   0.3263537  29.3661480  15.6720448  -0.3270598  30.0140915  15.4085093
   0.8239297  29.7968159  16.3671532  14.6595354  45.3423386  87.0467300
  15.5164185  44.9529457  86.8724976  14.5506020  45.9991188  86.3589783
  38.9649124  59.2084160  61.3198967  39.8448982  59.3681107  60.9787865
  38.5461311  58.6612511  60.6554680  14.8822193  42.6607285  23.7243233
  14.1824493  42.4235764  24.3328571  15.5974054  42.0608597  23.9362202
  65.2582932  27.9818096  20.2379684  64.8855972  27.8897972  21.1148186
  65.6364441  28.8611050  20.2295094  83.1558685   1.6090089  76.4587479
  83.8561401   1.6923473  75.8115234  82.5537796   2.3243082  76.2536392
   5.2660470  14.5129642   3.5342600   5.3100648  13.7369080   2.9756637
   6.0804238  14.4928017   4.0368690  19.9927311  61.2780647  14.2567577
  20.7560940  61.4028587  13.6929016  19.3394718  61.8879471  13.9139328
  76.4210739  62.7592239  51.0823708  75.6947479  62.8138885  51.7034111
  77.0474396  62.1665993  51.4979324  51.7211761  36.4401855  27.7313347
  52.5646744  36.7780685  27.4303722  51.4846992  37.0063934  28.4659901
  67.5063019  30.6903839  29.1872692  67.4990616  31.6475468  29.1915417
  68.4081802  30.4567070  29.4069214  61.7249527  34.9370918  54.6165581
  61.5234108  35.5830498  53.9395370  62.4200668  34.4002151  54.2360153
  45.6597290  49.0312767  74.9613190  46.1770515  48.2620087  75.1997299
  46.0751114  49.3617821  74.1647949  73.6757278  54.3520126  71.6751251
  73.3681641  53.9406433  70.8674088  74.1430817  53.6552200  72.1358795
  20.1531296  24.9724445   5.3488789  20.3518009  24.1010189   5.0062704
  20.8130169  25.1195717   6.0264730  42.5957680  71.0745392  38.7475815
  42.5903969  70.1396027  38.9527664  42.6126480  71.5070267  39.6013374
  79.5632553  44.4169617  61.7558098  80.1663971  43.9854889  62.3610191
  78.7075043  44.3451347  62.1786194  86.0023422  62.2304497  79.7457428
  86.5463333  61.5146828  79.4171295  86.4187622  62.4898949  80.5676422
  29.8569508  17.3403950  77.4525528  29.4349365  17.6732712  76.6605148
  29.3727627  17.7473335  78.1710205  72.0341034  26.4301224  67.9481506
  72.5694885  26.3801003  68.7400436  72.2249298  25.6182728  67.4783401
  40.8675117  51.4475060  58.4332352  41.8106728  51.5032501  58.5867462
  40.6363068  50.5534096  58.6849670  15.8265505  39.6130829  45.1760597
  15.8245296  39.0367279  45.9402924  15.5004272  39.0652695  44.4620743
  77.8985367  52.3241119  40.9695702  77.9042206  53.0738258  40.3744812
  78.7677002  51.9349632  40.8728561  47.6603889  58.7173767   6.1723371
  47.9698715  58.2187653   6.9285378  46.7077255  58.7263680   6.2649775
  27.3946018  54.3211823  32.2991867  27.3387241  55.1990089  31.9216499
  26.5472050  54.1888618  32.7242012  42.0014191  62.4854965  79.2653580
  41.5355988  63.1218071  79.8078995  41.4571648  61.6987724  79.2981873
  13.6547918  48.0163918  76.3011703  13.2887173  47.1554337  76.5035782
  14.3717566  47.8349686  75.6934891  74.0446854  56.1304283  57.8240738
  73.6599808  56.8059006  58.3826180  73.2938385  55.7100334  57.4048653
  16.8920498  31.6430607   9.2944860  16.5783787  32.4714813   8.9317760
  17.2980156  31.1951008   8.5523558  39.1059685  47.4625969  69.7953415
  39.7159233  46.8418465  70.1939011  39.1262207  47.2523804  68.8617249
  78.3085175  33.4950027  69.6156921  77.8600159  33.4681396  68.7704926
  78.4447403  32.5754356  69.8438873  60.2719879  23.0134068  17.8356495
  60.3369598  22.3458881  17.1526947  59.5889931  23.6079082  17.5252991
  73.6154861  59.2769547  11.1668386  73.6948013  58.3894958  10.8170404
  74.4627304  59.6831017  10.9839373  64.0787048  24.5841293  35.3674088
  63.8436623  24.5844479  36.2953033  65.0342026  24.5272789  35.3623848
  55.7300682   2.6504347  47.7076263  56.3284416   2.4623587  48.4306831
  56.0235672   3.4956677  47.3675232  60.9874001  44.3585205  35.9320412
  61.7700195  44.3659515  36.4831123  61.3105927  44.1316605  35.0600815
  36.4857941  60.6811447   0.1329778  36.1100464  61.4465637   0.5679227
  35.7607574  60.0589447   0.0744694  32.8256607  43.6405792  36.1620445
  32.1059608  43.2147865  35.6962547  32.3996391  44.2999191  36.7097740
  65.3955460  18.6111946  81.7258072  64.6407242  18.0767384  81.4791641
  65.0727158  19.5116787  81.6920395  13.7971077  33.9383621  87.8829575
  14.7194271  33.9285393  88.1388168  13.4200621  34.6683121  88.3741226
  43.1005707  59.0848351  26.8506699  42.5094910  59.5861473  26.2889366
  43.9740410  59.2721786  26.5068951  20.8285084  43.1464348   7.0478091
  21.4308147  42.6678543   6.4782310  21.0874500  42.8959351   7.9346185
  36.4978867  43.5016518  56.8870659  36.6986656  43.9976692  57.6807175
  36.8833542  42.6389236  57.0398712  32.7553825  35.3012924   2.9887161
  32.4391136  35.1130981   3.8723388  32.0620537  34.9794693   2.4125605
  75.8546219  64.3220901   3.8761423  75.5263519  65.0950699   3.4168324
  76.7852020  64.5009689   4.0112305   4.9349313   1.0213243  50.5757790
   4.6236610   1.4569955  49.7823448   4.4653330   0.1873721  50.5910339
  36.8907089   4.6483421   2.5162265  36.4085503   5.1244030   3.1923335
  37.6990356   5.1480699   2.4017191  19.5823460   9.0083208  21.9305305
  20.0908852   9.6867704  22.3747444  19.1181240   8.5568314  22.6354332
   2.3369379  32.5239525  52.2876472   2.1035376  31.6971970  51.8654747
   3.1578548  32.7831917  51.8691711  16.2604523  47.8962059   7.6382208
  15.5749702  47.6526871   8.2603483  16.8279762  47.1266785   7.5938087
   5.2991090  50.9480591  15.9010096   4.8453140  50.1747131  15.5659933
   4.6658254  51.6589737  15.8020849   3.8559778  16.8930511   3.3280056
   3.1378756  16.5379295   2.8041265   4.3835387  16.1289310   3.5604522
  85.9417877  36.0810623  61.6739082  85.6296387  36.0776482  60.7690392
  85.9175720  35.1616478  61.9390907  72.5698471  65.8821487  81.5011520
  72.9714966  65.8311691  80.6337967  72.6224518  66.8087616  81.7353745
  34.8729324  50.1627960  88.1826324  34.7300186  50.0050507  89.1158676
  35.1264038  51.0844116  88.1315689  64.8401566  38.7154884  43.8986320
  64.6830673  39.6596146  43.8850861  63.9653511  38.3270187  43.8924789
  60.5373497  64.7635345  73.4523621  59.6611443  64.7505798  73.0672379
  60.6185532  65.6378174  73.8334961  46.5028267  47.6344185  68.7489929
  46.6485062  48.2351151  68.0181198  45.7537613  47.1039734  68.4774017
  70.9707184   2.2414427  37.6016502  70.7251053   1.4089910  37.1980019
  70.3760223   2.8817294  37.2110062  14.8278751  47.0731697  11.9051723
  14.5764141  47.9496956  12.1962061  14.7488070  46.5288239  12.6885433
  34.5550766  26.4766254   3.2032213  33.7096672  26.8990574   3.0513439
  35.2000427  27.1622963   3.0297160  26.8993759  60.8928261  30.8236198
  26.7440662  61.8371010  30.8021851  26.5321178  60.6086311  31.6606312
  77.4127502  24.3253212  55.3629379  77.1790543  23.4262428  55.5937576
  77.8423386  24.2499104  54.5108833  46.4548416  16.0189934  76.2885895
  47.1425476  15.6921253  76.8686295  46.3592529  15.3378963  75.6228485
  32.3979111  41.8358421  64.0293655  32.6002884  42.3417587  63.2423935
  33.1988220  41.3439178  64.2104034  12.2165117  37.1251984  25.2855892
  12.3798866  37.7869186  25.9576511  11.8826876  36.3697548  25.7694283
  46.9376526  30.3487034  44.3652077  47.4123077  29.9517918  43.6348686
  46.3664665  30.9980850  43.9549828  41.8809013  52.5072212  25.2353344
  41.1661377  52.8613243  25.7644386  41.7004356  51.5684547  25.1865158
  68.8252563  21.4945831  60.8768578  69.3162231  20.7978210  61.3124123
  69.2825775  22.2989979  61.1218262  68.7498703  60.4895325  68.6362762
  68.4546890  60.5538940  67.7279968  68.9104843  61.3953590  68.9006729
  18.0754986  70.0904160   5.5836883  17.4377995  70.1512451   6.2949338
  18.8288441  70.5929260   5.8938174  80.4694138  34.4434509  19.2198811
  80.7545853  33.8710251  19.9320850  81.2026138  35.0443497  19.0873623
   1.5745813  59.4319572  48.3627129   0.8792834  59.1145515  48.9389496
   2.2183056  58.7236328  48.3514214  13.7303505  61.8991394  30.0817089
  13.4174528  62.7367287  30.4234295  12.9511003  61.4860992  29.7096920
  16.6415081  42.0479050  44.1103783  16.3599510  41.2245255  44.5091362
  17.5954514  42.0380440  44.1886520  81.5742416  51.9874077  55.3772621
  81.8179474  51.1685028  55.8088074  80.9167328  52.3758163  55.9543686
  75.5731277  71.7155075  73.6418686  75.8702240  70.8066711  73.6864395
  74.6352005  71.6523209  73.4615021  41.5998611  46.9728889  22.5928020
  40.9255066  46.6322289  23.1805305  41.8990746  47.7790451  23.0132999
  72.7383728  17.9511967   5.4462857  71.8480453  17.8639812   5.7867947
  73.1197968  17.0790615   5.5469198  53.5812531  63.6429024  61.7492409
  53.4408379  62.7024803  61.8593445  53.6894913  63.9748726  62.6404839
  14.3635273  37.8246803  84.8800125  13.4902000  38.1408157  85.1115112
  14.9039364  38.6141777  84.8502350  47.3245049  67.9169617  23.4338665
  46.5540962  68.4622421  23.2745647  48.0426826  68.5413284  23.5369358
  51.8214569  21.9907951  81.9708252  52.3526535  21.2990875  81.5763550
  52.2688522  22.1979103  82.7912903  81.3196716  45.3679886  13.9743052
  81.0500565  44.6968689  14.6013098  81.6233139  46.0952072  14.5176163
   8.2122192  32.4190788  48.0264435   7.4658494  32.2854195  48.6106491
   7.8545084  32.9160423  47.2907104  71.5025787   9.8470984  78.7473602
  72.1651688   9.9939470  78.0723495  70.8821640  10.5672493  78.6346664
  79.0731812  11.0417061   3.5045781  79.2800293  11.6913109   2.8326719
  78.1262817  10.9195185   3.4361470  68.2483826  63.7391663  22.2721462
  67.5527115  63.9476509  21.6486073  68.1535263  64.3933945  22.9644012
  12.7716961  40.7428131  18.8064404  12.1608267  40.0529556  19.0656071
  13.3179436  40.8820648  19.5800381  60.4554558  13.8578424  20.8133602
  60.3541565  12.9219208  20.6400967  59.7257767  14.2677679  20.3488541
  65.4796600  15.1533022  73.5662766  66.1443405  14.7401419  74.1173935
  65.2725983  15.9732313  74.0146866   1.4609244  14.8626909  34.4367371
   0.9081241  14.2622232  34.9368210   1.5106125  15.6501141  34.9787025
  46.9604568  28.5710678  48.3198586  47.4233971  28.1217270  47.6127434
  47.6428261  29.0592499  48.7805977   7.6863332  10.9951344   8.6234961
   7.3394351  11.8467073   8.8894234   8.6360092  11.1147432   8.6171951
   3.6800854   9.6351223  24.8652782   4.2196708   9.1330147  25.4759884
   3.1762385  10.2281799  25.4226418  70.7734375  32.1855202  31.0517178
  70.9330902  32.7633438  30.3054886  70.4821625  31.3624706  30.6593151
  85.7005157  61.6313591  51.3992500  84.9393845  61.9918480  51.8541794
  85.3343506  61.1879501  50.6340408  17.6682339  30.4308891   7.1846080
  17.1290569  29.7667446   6.7551522  18.5456295  30.0489483   7.2075543
  38.3969879  43.9213753  28.3515034  38.8991814  44.2096405  29.1136932
  37.9331360  43.1398277  28.6519241  49.1895065  30.9562683  34.4187622
  49.6008682  31.7994213  34.6087799  48.4594498  30.9015694  35.0354080
  68.3544846  53.1698990  65.9466705  69.0503769  53.7533531  65.6440887
  68.6865387  52.2895851  65.7705536   1.3816032  49.5445900  35.2122231
   1.6267420  50.1846581  34.5440521   0.6429730  49.9465942  35.6694450
  61.2047195  13.1121988  10.1604767  61.9163704  13.7350969  10.0128956
  60.7602806  13.4374008  10.9433870  45.5632706  39.6814957  47.7279282
  44.8494606  40.1970825  48.1032639  45.8527374  39.1162300  48.4441109
  81.6424179  10.2715750  36.3486786  81.4104691  10.6145058  35.4856453
  80.8058548  10.1895561  36.8065681   3.4138718  59.3690147  76.1718979
   3.4355669  58.8681908  75.3564606   4.2331247  59.1441917  76.6129303
  32.4112282  60.5901794  58.6641273  33.0964584  61.0483971  59.1506805
  32.5012054  60.9089127  57.7660484  56.2646561  49.8108177  36.5157623
  56.3801956  49.7753105  35.5662270  56.5164986  48.9390564  36.8204498
  71.9802856  42.2961235  81.2247162  71.7073593  41.4277840  81.5209045
  71.4560013  42.9031219  81.7471313  41.7454910  21.7554359  41.3826981
  41.6993256  21.9682961  42.3147888  40.9329338  22.1047745  41.0167122
   5.0215611  43.3558044  45.0933762   4.7383566  42.6748161  45.7035255
   5.4998770  43.9812393  45.6376915  81.0991364  64.4605179   6.3493743
  81.1651001  65.4072266   6.4743876  82.0008392  64.1749344   6.2023635
  35.1790810   3.9596581   7.8037210  36.0471649   3.7045548   8.1161013
  34.8094139   4.4767694   8.5193834  52.9499321  45.3651466  78.2596664
  52.7294922  44.4365540  78.3328629  53.2749901  45.4643288  77.3648300
  26.6333466  27.5315685  75.6911545  26.2550068  27.6756516  76.5585251
  25.9379120  27.7801285  75.0822067  45.2925606   3.6152031  12.6423216
  44.6471062   3.3257833  11.9974527  44.8935051   3.4122095  13.4883595
  64.3020401   5.0640745  49.6195335  65.0710526   4.7881131  49.1208458
  64.6277771   5.1928034  50.5103493   1.7582331  14.5383730   2.3765111
   2.0682228  14.5778656   1.4717577   1.4718982  13.6323671   2.4922545
   5.1305618  31.4254112  47.8957253   4.5296464  31.8422279  48.5132980
   4.7454448  31.5942249  47.0358315  66.3047256  53.8286285  25.0552769
  66.5424194  52.9211388  25.2455292  67.0557404  54.1772842  24.5750160
  36.2174149  49.5110817  19.1433983  35.2822037  49.5259132  18.9399414
  36.2550430  49.5405083  20.0994053  17.6632233  14.1718025  56.2635422
  18.5248489  13.7580500  56.2121391  17.8407574  15.0556355  56.5853386
  67.9522324  51.4085960  16.0956955  67.0319214  51.2656593  15.8747187
  67.9593506  52.2437744  16.5633030  22.8870029  27.7640285  25.2674599
  21.9334221  27.7063274  25.2075806  23.1961288  27.5393524  24.3898544
  31.9727688  52.7445183  43.9487801  32.2252769  52.7060852  43.0262871
  32.3666801  51.9635925  44.3376579  84.3288040  64.5781937  17.9437885
  83.5374298  64.2647095  17.5059700  84.5342484  63.8968468  18.5839386
  55.1803970  69.6243896  31.0190125  55.3624878  69.4720459  31.9463005
  54.5315056  68.9590530  30.7898903  59.5175896  59.0337639  88.2709045
  58.5956764  59.1390495  88.0359116  59.5080185  58.8815651  89.2158813
  27.7186680  46.5579720  84.0962601  27.0350685  46.0723457  83.6346436
  27.5450878  47.4752769  83.8849411  62.5741882  21.8428822  88.4765930
  62.2601814  21.0010948  88.8067780  62.4762039  21.7791328  87.5265579
  52.0548134  41.4551163  75.5082932  51.4944153  40.7341080  75.7952194
  51.6961670  42.2264862  75.9471512  26.8348942  28.4474335  11.0542288
  27.3896084  27.7169361  10.7805576  27.4246540  29.0296822  11.5331888
   0.8117255  23.9619007  85.7294998   0.8899230  24.6279526  85.0464935
   1.5972733  23.4239845  85.6305389   6.1008430  17.9778900  24.6140537
   6.6793766  17.6338253  25.2946033   5.5380316  18.6025982  25.0714550
  58.2270622  58.2923622  13.6266146  57.3851700  58.4355965  13.1942587
  58.2700844  57.3453903  13.7593803  20.5092049  62.8238564  17.1348248
  21.0436687  63.0657158  16.3784637  20.5932236  61.8721275  17.1929722
  50.8824692  32.6308556  47.3562393  51.3627052  32.7799606  46.5417633
  50.0379982  32.2784767  47.0752945  46.2444115  51.6335869  39.7508163
  46.5266914  52.4158897  39.2769508  47.0588112  51.2204361  40.0376892
  52.5978317  56.3748131  74.6249390  53.1313744  57.0854149  74.9807587
  51.7128029  56.5591698  74.9395294  71.1896515  49.4892006  64.7563629
  70.4227142  49.6153145  65.3150558  71.6727371  48.7741508  65.1705627
  45.8587494  42.3970146  78.1836319  45.8380928  42.7557831  79.0708160
  45.1810722  41.7210121  78.1828079  32.7263145  46.8150520  32.9126511
  32.8629646  45.8684158  32.8747864  33.1308098  47.0826187  33.7378922
  36.6293564  33.6270828  57.1614952  36.5674362  34.2508659  56.4381065
  37.5508881  33.3686600  57.1766968   0.1993757  23.2111740  22.1143360
   0.8024888  23.9363003  21.9510002   0.4136072  22.5652065  21.4412365
  13.2633333  53.8106689  34.9755516  13.9190521  53.9549522  35.6577911
  13.1571560  54.6666527  34.5605278   9.8041010  59.3654289  36.6095848
  10.4938431  59.1943970  37.2508621  10.2021046  59.1492195  35.7663307
  22.2071056   4.2406931  69.7340698  22.1107349   3.3057914  69.9154587
  22.9644432   4.5088148  70.2544327  27.3009033  49.7976761  66.0494461
  28.1298523  50.2738342  66.0009613  27.5540886  48.8746033  66.0413666
  16.8728600  30.9185143  75.3113785  17.7589111  30.6053104  75.4931641
  16.8899574  31.1616039  74.3857193  79.9101715  57.1840668  36.7828865
  79.7148209  56.9947357  35.8651581  79.7692490  58.1269875  36.8681641
  64.2618942  28.1869583  55.5277405  64.9502716  28.8211479  55.3272972
  64.0974579  27.7412987  54.6967278  46.3694305  46.9858246  51.5355988
  46.0483093  47.6273537  52.1692848  46.7220993  46.2755203  52.0716248
  67.2588196   3.2654178  33.4841576  66.8363037   4.0705929  33.1851501
  66.6384125   2.5718472  33.2598991  21.5182781  70.5139160  22.7866917
  20.6438599  70.1952820  23.0105057  22.0387249  70.3588638  23.5749321
  45.2740440  44.5437355  61.6383896  45.7782249  44.0027122  62.2461090
  44.8654709  43.9165688  61.0417671  10.8874483  65.9280014  29.5768719
  10.4625578  66.4666443  28.9093685  11.0460291  66.5292664  30.3045845
  84.3955154   8.5034542  82.4626389  84.0660019   8.4054356  81.5693054
  85.2953110   8.1793756  82.4229355  64.6337509  44.9637299  86.9283447
  64.2957764  44.3227844  86.3028870  65.4902802  45.2103119  86.5793762
  59.1454239  27.8601952  11.5034914  59.6590080  27.1603985  11.9069109
  58.8181534  28.3734646  12.2421923  16.7092609  46.8253670  61.4696541
  16.0018120  46.7319679  60.8316689  17.4889126  46.5136185  61.0101013
  24.1023750  69.8020172  65.2912979  24.3919468  69.2762375  66.0369110
  24.8082123  70.4341278  65.1554337  55.8283310  53.8366280  19.7695618
  55.8803177  52.9224854  20.0486202  54.9235497  53.9467125  19.4771805
  70.8164825  16.1310730  34.8379707  71.2368240  16.7481098  34.2389603
  70.6065216  15.3730345  34.2925110   6.9508138  50.0265274  63.3076134
   6.4989815  49.7562828  62.5082054   6.7627330  49.3296585  63.9362869
  80.9793243  70.4672394   2.9594972  80.8846283  69.9121323   2.1854715
  81.8819427  70.7832260   2.9186513   3.9236932   5.5815697  15.0181656
   3.6917558   4.6532249  14.9933996   4.6682477   5.6265035  15.6180420
  62.3912468  56.0202866  67.2659760  62.7248611  55.9728699  66.3700485
  61.9850922  55.1665764  67.4158096  46.2734985  18.4480076   1.8001235
  45.5582008  18.7370911   1.2335454  46.2197685  17.4924374   1.7850395
  27.4377098  57.1546059  67.8208923  28.0348568  57.1715164  67.0729828
  26.9928761  58.0016518  67.7914124  53.9028854  25.8187256  64.6800461
  53.7460747  25.4873295  63.7958450  53.5122948  26.6926079  64.6810760
  55.1083031  23.8293743  37.8932571  54.7899818  24.0167084  38.7763252
  55.3928719  24.6788006  37.5560188  49.0135727  27.7679253   4.8645978
  49.4686584  26.9463520   5.0493813  49.4651070  28.4181252   5.4027338
  27.9512157  13.2194643   6.1965957  28.5527096  13.9108820   6.4729629
  28.5179138  12.5433464   5.8251815   4.4880509  42.4918861   2.7060637
   4.6288371  41.7742653   3.3236637   3.8100731  43.0300293   3.1146972
  56.0540848  43.4896240   1.0212045  55.3816833  43.1423378   1.6072927
  55.8171768  43.1512337   0.1577237  17.2852364  38.6761856  80.1700058
  17.5647087  37.8816109  80.6247330  18.0475063  38.9370346  79.6531525
  70.1450882  20.0962791  75.8892365  69.8511047  20.1429024  76.7989807
  70.4473877  20.9822559  75.6895142  65.2336044  10.3208456   5.9747362
  65.4851837   9.6631479   6.6230989  65.9438248  10.9622211   5.9961686
  43.9997063  47.1912041  82.0247421  44.3500671  46.3196487  82.2087784
  44.7578201  47.6973228  81.7326050  49.7091484   7.8943496  16.0775871
  50.4425049   7.6415019  15.5167923  49.0699348   7.1903524  15.9679117
  17.4484921  16.3881512   4.4676442  16.7924423  15.8229446   4.8755322
  17.9434738  16.7497711   5.2028017  61.6603775  33.0555382  24.4193611
  62.2891960  32.4058838  24.1050816  61.1290474  33.2656593  23.6513996
  49.1585121   7.9854479  42.9079361  48.3310814   8.4622974  42.8431015
  49.6181755   8.1916170  42.0940323  47.9344940  39.5786324  38.1745872
  47.4962387  40.3856850  38.4444656  47.3395958  39.1849365  37.5363579
  57.5853233  61.6880074  17.2317715  56.7340775  61.2509766  17.2566261
  58.1518669  61.1399689  17.7748318   0.2598851  13.9674587  19.8448429
   0.7094054  14.5229797  20.4816780  -0.0142886  13.2003880  20.3474998
  24.5248699  69.1216660   4.7642169  24.0963039  69.8483429   4.3119984
  23.8282146  68.7169342   5.2810316  55.6189308  48.3118439  82.5251617
  56.1353455  47.5072937  82.4777374  55.0618629  48.1938744  83.2945709
  60.9720917  45.5654526   2.1527877  61.7471504  45.1489944   1.7758576
  60.2367783  45.0567284   1.8111069  76.9575043  55.8036194  79.5198517
  76.3518753  56.5445671  79.5409088  77.3414841  55.8329659  78.6435318
  83.3362198  54.2129250  55.3973618  82.8587036  54.8942566  54.9240837
  82.7167435  53.4859238  55.4602165  13.6541395  54.0774384  17.0092926
  13.7662859  53.8165665  16.0951805  12.7344646  54.3348656  17.0737991
   8.5450716  40.8470116  64.8429871   9.2736740  40.7903252  65.4611740
   8.7505512  40.1976662  64.1704102  48.1427803  34.7533264  18.8565044
  47.2654953  34.5096626  19.1518478  48.3855171  35.4938965  19.4122620
  11.5301332  66.6521301  44.8160820  11.9817696  66.5459213  45.6533279
  11.8589144  65.9350433  44.2739372  62.7845459  20.0584793  56.1868401
  62.3084106  19.5357780  55.5416183  62.7141113  20.9574947  55.8658371
  32.5602722   5.8021388  74.3385773  31.7269573   5.4875712  73.9880524
  33.0348663   6.1265421  73.5732346  61.9856567  51.9762192   1.2784464
  62.8049469  51.5704803   1.5619471  61.5385895  52.2074165   2.0926385
  58.9275780  55.9089661  47.8574638  59.4085464  55.8636017  48.6838074
  58.2094193  56.5174179  48.0314217  84.2497253   6.5256996  79.6766586
  85.0108795   6.0457721  79.3502502  83.9959564   6.0592656  80.4730759
   8.1103106  26.9642906  61.1114120   8.5614319  26.1704922  60.8240051
   8.2453547  26.9868450  62.0587692  47.9564857   6.7982297  23.2789707
  48.2831345   7.4414749  23.9080715  47.1449738   6.4728522  23.6685963
  51.8927231  65.8205566  22.4892502  52.6342926  65.2452774  22.6772842
  52.0816002  66.1791077  21.6220684  77.2929993  51.0717659  72.6255798
  77.2584991  51.9515190  73.0011749  77.1800461  51.2083359  71.6849289
  13.9607420  23.0574512  86.7075424  13.1290808  22.5843258  86.6806488
  13.8202419  23.8208275  86.1474075  27.2688122   3.7320173  70.8822403
  27.3479557   3.2830188  71.7238846  26.5663052   3.2670100  70.4278336
   9.4842110  51.0858040  13.4437723   9.1859646  51.8649635  12.9745274
   9.2523565  51.2529793  14.3572969  66.0174179  28.0322685  86.5900955
  66.3421478  28.9216766  86.4496155  65.2799149  28.1386719  87.1909256
  38.0493507  12.2455263  65.4910355  38.1985245  11.6361418  66.2139664
  38.0225182  13.1076193  65.9061356  68.9951248  33.4013138  12.9014978
  69.4815826  33.2325821  13.7084160  69.1309814  32.6160545  12.3712721
  68.4877625  71.4857635  12.3662729  68.6466141  71.1761475  11.4745703
  67.5411301  71.4048996  12.4828196  44.4848709  39.1782494  62.8242645
  45.1025352  38.6599922  62.3083839  44.8084564  39.1119843  63.7226715
  60.3040085  61.1506462   9.0039902  60.8703880  61.6832771   8.4456444
  60.7034416  60.2808800   8.9900675  72.6257248  34.7575684  11.5999727
  72.9104156  34.3375130  10.7883472  73.3717117  34.6641808  12.1924419
  14.0211229  16.8357601  56.3472481  14.1820803  15.8924065  56.3270569
  14.2395868  17.0969124  57.2418480  50.8636856  70.1120453   4.6615214
  51.0864410  70.4057236   5.5449038  50.8684044  70.9114456   4.1350474
  14.6450901  23.9122486  62.9949875  14.6907387  24.7460670  62.5271263
  15.5209570  23.7959366  63.3631744  72.5095139   9.0969152  40.6240997
  72.8231277   8.7768269  41.4699287  73.0884857   8.6852274  39.9825897
  37.0706062  46.7258682  31.8652325  36.9554977  45.8595314  31.4747963
  37.3147621  47.2890625  31.1307697  16.6119728  68.4463654  26.1779366
  17.1186981  69.2002411  26.4798260  15.9310951  68.3342667  26.8413162
  41.2839508  28.9504776  68.8742142  40.7799530  28.2799644  69.3353271
  40.7891045  29.7583599  69.0109100  58.2676048  35.1292229  14.7389345
  57.5198746  34.9456100  15.3076324  58.9830513  34.6125793  15.1096735
  47.9191780  16.2785168  85.1482468  47.7908669  16.9201126  84.4495926
  47.7380562  16.7624073  85.9540253  68.3300018  59.3714714  78.5049210
  67.4968567  59.8355904  78.5867233  68.9946899  60.0469360  78.6397018
  46.4610367   1.8286102  40.1867981  46.2561836   2.3828633  39.4337578
  47.2661552   2.2010708  40.5463638  64.2524796   1.5852323  42.1081085
  63.8204041   2.1808310  41.4958954  65.1031342   1.9905207  42.2765198
  48.4230003  33.2575836  10.0164404  49.2293053  33.7734222  10.0124521
  47.8202477  33.7595367  10.5650396  21.2610168  32.0780525   1.1963221
  21.2042484  31.7662506   0.2931124  21.9609528  31.5547581   1.5868102
   5.7755337  67.3703232  51.6036072   5.7724810  66.4557724  51.8861427
   4.9975195  67.7498169  52.0121536  30.1323128  55.0538177  43.8230705
  30.9397774  54.5444679  43.8922997  29.7985497  55.0966110  44.7191772
  68.8219452  64.6123657  37.2540588  69.6879501  64.4278336  37.6176643
  68.7643051  65.5677948  37.2457161  51.9098167  60.8977318  74.0668945
  51.1679611  61.2885399  73.6052094  52.6569557  61.4458313  73.8268890
  21.1015911  52.1627731  60.6649933  20.5940685  51.4472542  61.0479889
  21.6211872  52.5041962  61.3927879  85.6550827  28.5692043  44.6927567
  86.2199173  28.3772449  43.9441948  85.2153473  29.3862782  44.4576874
  60.7438583  39.5296555  11.3979273  61.2903099  39.6370773  10.6194115
  60.2879868  38.6997147  11.2579098  66.9657974  21.9856205  87.2276230
  67.8818893  21.8639202  87.4770126  66.7715988  21.2410278  86.6583176
  70.2192001  18.1641159  78.2598114  70.6746902  18.5282383  79.0188751
  69.3179626  18.4737148  78.3500671   1.9877945  33.4854965  84.0546951
   1.8169637  33.9508018  84.8735580   1.1254698  33.3861923  83.6512527
  34.5529366  18.4255466  71.1823349  35.2082291  17.9290257  71.6725311
  34.7577171  18.2507019  70.2637939  54.0319633  33.3363609  57.2939415
  53.3035126  32.9885139  56.7795601  54.6527557  33.6604004  56.6413689
  63.5440750  30.6828766  87.4328995  63.4378433  29.7677784  87.6927872
  64.0471268  31.0773411  88.1453323  76.5398102  33.3818817  67.6486053
  75.9656448  34.0269318  68.0615005  75.9523773  32.6754074  67.3801804
  66.8083725  12.2235909  14.7084093  67.7444229  12.1430655  14.8916073
  66.6532669  13.1671057  14.6641912  34.3246918  39.8486214   8.7035818
  35.0073509  40.4194221   9.0562744  33.6639442  40.4497337   8.3596239
  38.5598030  30.1589108   4.1600590  38.5591545  29.7965755   3.2740884
  38.0576515  30.9705601   4.0872550  44.1482162   1.0680505  80.8811951
  43.7597733   1.0558798  81.7559509  45.0701447   1.2771425  81.0314102
  59.7869492  54.5540352  84.2329636  60.3102036  55.3008385  83.9419022
  59.5985641  54.7377396  85.1532898  60.3073845  41.2682037  44.6188011
  61.0657921  41.8419609  44.5099335  59.5582962  41.8635750  44.6439972
  65.2851105   8.6999264  32.8951874  65.7326431   8.3835649  32.1104240
  65.2401276   9.6489925  32.7790833  62.0409088  49.4741516  40.9109955
  62.6208344  48.7330742  40.7357025  61.8828392  49.8632698  40.0508575
  62.2244797   7.8589463  81.3016968  61.2744942   7.7943144  81.3995667
  62.3623352   7.9526505  80.3591232  38.6877174  39.7764359  54.5034180
  38.2672348  39.1896591  55.1320038  39.5982132  39.4826126  54.4734802
  54.7340202   0.4765114  42.3425751  55.0076218   0.0308318  41.5408630
  55.0168457  -0.1049998  43.0483284   6.1020818  25.3935928  37.2662315
   5.7057171  26.2533836  37.1252098   6.3996491  25.4133110  38.1757927
   5.4836297  14.5592566  68.6937943   4.5979872  14.6306562  69.0498428
   5.7388463  13.6530094  68.8664551  71.6686630  15.8076267  72.7556915
  71.9851608  15.5789204  73.6296234  70.9298172  15.2176390  72.6065369
  74.7399750  41.0649872  67.9323578  74.0553284  40.4733162  68.2444687
  74.2804489  41.8820114  67.7386093  52.9809341  41.2949486   1.2457889
  52.9967499  40.8816299   0.3825676  53.4621735  40.6897049   1.8099880
  51.8335609  32.3051567  56.0548172  51.5896950  32.7166367  55.2256927
  51.3366318  31.4872227  56.0715599  28.1908989  52.5286026  50.3361740
  28.1645164  52.6312561  49.3848572  28.0982323  51.5865250  50.4780807
  26.3462067  31.1004086  71.6906815  27.1961193  30.6979160  71.8692245
  26.0969601  31.5109863  72.5186462  81.3804169  26.3834667  66.3697510
  80.9998245  25.7769089  65.7345581  80.9290009  26.1854382  67.1902618
  68.8693237  32.9508934   0.9286813  68.5945663  32.2362709   1.5031880
  69.8078461  32.8103294   0.8036259  83.0162048  50.2129784  47.3904686
  82.6529236  49.3286591  47.4377403  83.6085663  50.2689590  48.1402740
  13.0718088  45.3093605  58.2582855  13.5006962  45.4859047  59.0956154
  13.7920656  45.1363754  57.6520348  45.9689560   3.1672976  62.1193161
  45.3792610   3.1768403  61.3653908  45.7333145   2.3723762  62.5976524
  81.0540390  40.9428558  74.9435043  80.1329346  41.1577072  75.0906067
  81.4634628  41.0426292  75.8029480  68.5204163  40.7378731  55.8276062
  67.6774521  40.9707069  55.4384727  68.4054337  39.8356819  56.1260414
  21.6612911  33.0402222  83.5679855  20.7281189  33.1271248  83.7625809
  22.1003914  33.3139153  84.3732834  76.8976059  34.6208763  37.7095413
  76.2006683  34.3873405  37.0963745  76.4414978  34.8117828  38.5291443
  67.6873016  27.7778797  63.5002098  66.7804871  27.6572838  63.2184792
  67.6369019  28.4339809  64.1953506  60.7373047  56.3246078  50.2562943
  61.3967705  56.9223366  50.6085129  61.2439957  55.6276054  49.8395424
  71.4135742  17.3597221  39.0282135  71.1647873  17.8713875  39.7979774
  71.8558197  16.5895462  39.3852577  49.7537422   9.3955421  34.7174263
  50.2512817   9.4949703  33.9057617  48.9832344   9.9502411  34.5955200
  69.6088715  36.2397919  22.1244831  69.9434204  36.6397247  22.9272041
  69.6597672  35.2978554  22.2869549   6.6567369  61.0656738  11.0531664
   5.7823081  61.2588768  10.7151146   7.1505785  60.7735558  10.2869930
  45.0012474  42.4936981  15.4340439  44.4606819  43.2832260  15.4082899
  44.8712158  42.1430321  16.3151550   4.9808383  51.8973045  69.0582733
   4.7906113  50.9601555  69.1006622   5.9158368  51.9431152  68.8584900
  76.7123489  57.1923637  36.0218506  76.6566315  57.5627441  36.9027290
  77.1261139  57.8791313  35.4989967  74.2824326  30.2741394  85.5350342
  74.3749466  31.0274048  86.1183624  74.6763840  29.5475368  86.0178223
  77.3360062  52.4754486  76.5544510  77.1690674  51.5545235  76.7550964
  78.2140503  52.6401253  76.8981934  67.7722321  30.5511990  57.3262405
  68.3132858  30.6914959  58.1032906  67.8858719  29.6235123  57.1195679
  61.1422729  10.8577576  48.9747849  60.6297188  10.8747816  48.1665573
  61.8839836  10.2862701  48.7760353  49.8870811  26.7455311  58.2098274
  50.1492920  26.2750168  57.4185677  48.9310265  26.7685547  58.1690559
  86.5079880  59.1101341   7.4055309  86.1664581  58.2565575   7.6719842
  86.2592392  59.7003136   8.1168995  64.1184006  42.9899063  35.7197762
  64.3499069  42.2493019  36.2802582  64.8679581  43.5818214  35.7832718
  19.3314133  58.3483162  11.3805523  20.1224155  58.5998230  11.8573046
  19.4419422  57.4129944  11.2097082  36.8664551  48.9162331  21.7245674
  36.4462967  48.0562630  21.7124310  37.7578354  48.7516632  21.4170113
  64.8226776  11.0846024  68.6439896  64.8715668  10.9256058  67.7013550
  65.6663742  10.7839699  68.9816666  62.2085152  17.7160187   7.4334145
  63.1564636  17.5832920   7.4368029  61.9115028  17.3013535   6.6234345
  78.8837051   9.0378599   0.9152877  79.6311417   9.4286642   0.4626895
  79.2350922   8.2423801   1.3152505  66.2169342  16.1263351  40.8924141
  67.1703186  16.0461235  40.9216309  65.9833603  15.8821278  39.9968491
  62.7573204  61.9008789  28.8755112  63.1124878  62.6750946  29.3121834
  61.8082504  61.9927406  28.9595509  20.6943836   1.2885205   9.8113794
  21.6273670   1.2828778   9.5975094  20.5595493   0.4865837  10.3163042
  16.4421806  31.6042385  72.7048874  15.5298805  31.7059612  72.4336090
  16.9227848  31.4786663  71.8866730  27.9541512  19.9062061   2.4607298
  27.5044117  20.5369053   1.8984253  27.4080372  19.1209202   2.4244332
  48.8279648  65.8589478  84.4702759  48.3912010  65.9755554  83.6265488
  49.4335442  66.5977707  84.5306244  50.8745651  55.0354156  23.6416664
  50.0014954  55.4153938  23.5436993  51.4156799  55.7576447  23.9607506
  29.3064251  25.2774620  82.6366119  29.1210403  24.9388027  81.7607269
  29.5499058  26.1920052  82.4932175  16.7952232  39.2281380  88.1148453
  17.3998795  39.2619705  88.8561172  16.9228783  38.3561592  87.7412338
  23.1062584  55.7528954  71.1348724  23.9418774  56.0911980  71.4566269
  22.9325886  56.2590332  70.3412094  77.9814148  25.8595314  67.2802811
  78.2032700  24.9701195  67.5558853  77.0867081  25.9913139  67.5939102
  17.9254265   6.5406885   2.0439551  17.8701496   7.4502344   2.3370476
  17.2132950   6.4493437   1.4109021  78.8476334   3.7407570  21.5505314
  77.9004669   3.7898676  21.4212875  79.0631561   2.8211205  21.3954544
  53.1974373  22.9237309  12.2182884  52.7331047  22.3231564  12.8013287
  53.8207321  23.3756981  12.7870245  76.7133636   9.9994936   2.2686937
  77.4156876   9.6487942   1.7209960  76.0091400  10.2038088   1.6534166
  44.6943893  48.8400612  79.2227402  45.3171387  48.4151344  79.8125381
  44.4121704  48.1433907  78.6300888  31.8537598  64.2826538  55.6555862
  31.4144058  63.6339760  55.1056557  31.2202206  64.4804382  56.3453255
   5.6496716  52.4609070  33.0763397   5.3116751  52.1795120  32.2261581
   5.1511650  53.2516251  33.2824707  62.8821411   2.7850552  49.4649734
  63.2427406   3.5915492  49.8334427  63.5532150   2.4796197  48.8545647
   8.7527981  21.1031418  79.2908630   9.4811058  21.6849556  79.0733948
   8.6286192  20.5708370  78.5050735  51.1394997  29.0334415  86.0375671
  51.7941895  28.4878922  85.6016846  50.6072578  29.3851318  85.3239365
  82.2357788  29.0245209  44.3748932  82.9569016  28.4120235  44.2297401
  81.4489517  28.5231667  44.1609383  46.1702042  36.8221016  17.8576565
  46.0190659  36.9779701  18.7899094  45.9424400  35.9013710  17.7287540
  51.0836754  29.5598049  48.6372986  50.3561745  30.0859280  48.9692192
  51.0945549  29.7329693  47.6959572  84.4492340  50.6269150   5.5610538
  84.9705353  50.0644264   6.1338358  85.0036926  50.7666779   4.7934136
  67.5044632  57.0686035  24.9069901  67.1603394  57.8872643  24.5497799
  67.5369110  57.2147179  25.8524151  80.5623550  45.6076546   7.6216917
  80.6561203  45.2165871   6.7530689  79.6329041  45.5107269   7.8289342
  -0.1348352  17.3481255  83.6843872  -0.2947975  18.1557560  83.1961441
   0.4676046  16.8497562  83.1321793  13.6513958  70.5815964  24.1764374
  14.4410782  70.4984741  23.6419048  13.9317083  71.0842590  24.9412823
  63.7287750  67.7390823   7.0795779  63.4017944  67.3539734   7.8926001
  63.5813103  67.0631180   6.4180956  83.6241913  48.1717033  35.8305206
  83.5468216  49.0921974  35.5796394  82.8134232  47.7695427  35.5188217
  69.3344269   1.3717685  54.4854736  68.7966919   2.1632736  54.5098839
  70.1480103   1.6213366  54.9236832  33.9570122  47.1497307  48.3381081
  34.3024368  46.2809677  48.1327705  34.2227745  47.3050766  49.2444572
  45.2852707  53.7382660  62.0296059  45.3432465  53.8234940  61.0779724
  44.8926010  52.8765869  62.1694260   1.1742797  65.6598969   4.8463025
   0.6516991  66.1539612   5.4779983   0.7916604  64.7825165   4.8530655
  25.2638283  10.7522058  28.0882511  25.9076004  11.4593811  28.0471287
  25.6725368  10.0882378  28.6435318  77.6170120   2.2710085  78.6652832
  76.9377899   2.9386632  78.5697632  78.2953949   2.5284476  78.0409927
  58.8821220  31.2662621  12.1288462  59.8193970  31.4454441  12.2039108
  58.6115189  31.0305138  13.0162182   8.8765211  18.5177174   3.8827696
   8.7461357  18.5164490   4.8310466   8.2411156  19.1538944   3.5544877
   6.7465420  66.3430634  22.8664970   6.7658467  65.6536026  22.2027912
   7.0180445  67.1330719  22.3991585  64.8368530  59.5523415  80.3203354
  65.3944092  59.3085899  81.0592194  64.4563599  58.7253876  80.0243607
   1.2980301  64.5649109  37.4231644   1.8008249  64.4818649  36.6128960
   0.4015320  64.7325668  37.1326218  24.3988914   9.7853146  83.2244186
  25.0107269   9.0569696  83.3312073  23.5549488   9.3663921  83.0556030
  78.4008331  37.3853569  14.3078327  78.7870789  36.8798256  13.5926476
  77.5261459  37.6147003  13.9939003   9.7905521  23.7991390  28.8996582
   9.1956034  23.4173260  29.5450172   9.5344229  23.3963280  28.0699749
  84.6165695  58.2087708  74.8250427  85.0136337  57.3472023  74.6974716
  85.2140045  58.8150406  74.3871689  71.2525558   9.0210361  47.1835480
  71.6656036   8.2451725  47.5625725  70.7631836   8.6884327  46.4311409
  68.2043762  49.5060768  81.9605789  67.4695587  49.8473663  81.4508820
  68.2261887  50.0535011  82.7454910  28.2663975  46.2831841   8.8397608
  27.4009075  46.3502312   8.4364433  28.4360275  45.3423615   8.8877811
  56.7632675   9.8590784  33.4533272  57.0176811  10.4857235  34.1306915
  57.5345001   9.3038006  33.3388939  77.5605316  62.7936096   6.7218328
  76.8888245  62.2330170   6.3335242  78.0226898  63.1682281   5.9719644
  13.5063171  55.3806381  20.2926579  13.0781860  54.6881561  19.7892628
  13.9695606  54.9177933  20.9908047  54.2267647  48.5019531  24.8144627
  53.3203392  48.4129753  24.5199966  54.7282333  47.9470940  24.2170620
  12.2341747  40.0954361  34.4085617  11.7346973  39.2897606  34.5414009
  12.2513313  40.5114632  35.2704544  46.9283180   6.7222667  13.9944572
  47.4311752   6.2944751  14.6875391  47.0176086   6.1403546  13.2397146
  30.1811047  61.8979645  31.8284340  29.3030510  61.7856255  31.4642467
  30.0843849  61.6854057  32.7567101  19.7891521  16.1929741  18.1385651
  18.9053593  16.4911537  18.3535805  20.3395424  16.5545025  18.8332596
  61.5813522  70.5055847  54.5751686  61.4081192  71.1734238  53.9116859
  60.7446098  70.0537415  54.6843719  19.3101654  14.0248566   8.2839832
  19.7228546  14.4702482   7.5440202  18.4862995  14.4937868   8.4165831
  83.4209824  61.1146164  61.9955711  83.3221970  60.1626549  61.9799805
  83.4060364  61.3720932  61.0737724  25.0166035  69.8985443  37.2580414
  25.5392075  69.0979919  37.2107849  24.8272095  70.0062637  38.1901131
  57.9642220  35.6322937  47.3839378  58.0592690  35.1590462  48.2105179
  57.5611725  36.4649963  47.6296806  61.9280853  56.8815193  19.8400345
  62.0091972  56.4309387  20.6806469  62.2270927  57.7735176  20.0165749
  10.5616703  23.4380074  65.2456131  10.6185713  22.9437313  64.4278870
  10.3675060  22.7781677  65.9113083  52.9827461  45.9868393  26.1975975
  53.1338959  45.2569847  26.7981796  53.1418419  45.6187096  25.3284588
  82.7205276  31.2233601  61.7093925  81.9782715  31.3201427  62.3059921
  82.3766022  30.7060585  60.9811440  13.4525709  45.3788376   3.0771747
  13.9303284  45.5533485   3.8880544  13.3962688  46.2307014   2.6442859
  51.9821472  10.6314068  45.5303535  51.1379967  10.2808428  45.2461929
  52.4999809  10.6893101  44.7274055  10.6276903   2.6314926  56.8612709
  10.8772497   2.4766312  57.7722969  10.1671915   1.8339875  56.6002007
  66.0470123   8.6082859  82.3369827  66.6949921   8.0200748  82.7247467
  65.2417068   8.0916939  82.3078308   6.3047633  47.5679626   8.4366817
   6.6453938  48.0044441   9.2175055   6.7475934  46.7194481   8.4242067
  44.1568222  12.0043354  67.8352356  43.8534813  11.4400063  67.1240768
  45.0342636  12.2770224  67.5669556  16.5652180  64.2809601  20.0485134
  15.6891298  64.6647110  20.0105820  17.0495930  64.7202530  19.3494911
  59.6800232   6.7651968  80.8029175  60.2436981   6.0212054  81.0150070
  59.1992798   6.4868951  80.0233841  45.0980263  28.4076843  50.6165009
  45.5621490  28.3647861  49.7804489  44.4010887  27.7563534  50.5372429
   7.3516231  46.5992317  53.2777824   8.3016958  46.7133675  53.3015900
   7.0386529  47.0297813  54.0733376  41.0388069  65.8188858   0.0668111
  41.0300484  66.1426773   0.9675388  41.2868576  66.5794830  -0.4587287
  60.1212502  42.1279945   3.9546256  60.0026588  42.6055527   4.7756643
  61.0606270  42.1828804   3.7791522  67.0339508  24.1224499  33.2507324
  66.3154297  24.6435108  32.8923378  67.6783524  24.7690678  33.5386047
  28.8752575  40.2265663  60.9493294  28.1497765  39.7223129  60.5810432
  29.0176506  40.9349136  60.3214760  10.0062027  63.0991173  41.5931549
   9.9920731  62.1424713  41.6224251  10.7770023  63.3112793  41.0667648
  39.0032578  60.5437164  52.3120804  38.1982803  61.0608253  52.3410645
  38.9952545  60.1364555  51.4458771  28.5375233  43.0464859  82.7739105
  29.2823963  43.6301308  82.9179840  28.5674820  42.4340134  83.5089035
  57.5512619  36.2865601   5.4917727  57.3430557  35.3677559   5.6611257
  57.2520332  36.4386635   4.5953588  49.5880508  17.4331284  18.4502563
  48.7260017  17.1468029  18.1483955  49.6494331  18.3459053  18.1686535
  18.9753532  41.8514481  63.5994110  19.0525398  42.5681763  62.9696693
  19.1322193  41.0609283  63.0829773  84.6265030  12.3966551  10.9681368
  84.8899918  11.4947309  10.7855463  85.3200760  12.7393456  11.5318346
  50.2495308  55.9932251  44.7207603  50.9180145  56.3760681  44.1526108
  49.9673691  55.2031479  44.2598991  36.5131264  40.4389915  12.4250784
  36.9920502  40.9812393  13.0518456  36.0766792  39.7790222  12.9637632
  58.9627800  53.7051163   1.1284362  58.4573669  52.9044495   1.2688819
  59.6573524  53.4467430   0.5225948  13.7989845  67.4750595  51.3131409
  14.0451422  66.5502777  51.2926903  13.8934612  67.7681580  50.4068298
  85.1695480  68.7700348  63.1971130  84.5649490  69.3574753  63.6505585
  85.0954132  69.0153580  62.2748604  23.8476639  54.5786018  87.6874924
  23.9876194  55.2687187  87.0391235  23.0025139  54.1961288  87.4515533
  26.0992870  61.3019753  64.2357025  26.3654747  60.4723625  64.6320801
  25.4972973  61.0505104  63.5352669  58.0190582  42.3234253  41.3739243
  57.9502449  43.1498718  40.8959274  57.6330910  42.5089989  42.2299728
  67.0027161  21.4253654  66.0074615  66.0856781  21.4801731  66.2762909
  67.0148544  20.7443867  65.3348846  83.9006729  28.4789257  82.8150787
  83.6155701  28.5460339  81.9037857  83.3340454  29.0878391  83.2887726
  22.3319702  44.0933113  63.4323730  23.1992512  43.7028046  63.3248329
  22.2879295  44.7689247  62.7557335   5.3704977  51.2040253  58.8456383
   5.5070968  51.8588982  58.1610107   6.2529769  50.9731483  59.1357384
  75.9375229  29.6255245  87.9018707  75.6526489  28.7118816  87.9201965
  76.8626709  29.5928745  88.1453018  17.5489426  14.0966959  19.6130562
  17.8641109  13.6112213  20.3754311  16.9961395  13.4722681  19.1432362
  12.1222868  49.0345078  69.9622421  11.9646215  49.9500122  69.7315292
  11.2583199  48.6936455  70.1937714  69.3690948  35.8723564  72.9931641
  68.8863373  35.9957199  73.8104477  68.7861328  36.2163696  72.3163757
  68.8463745   9.0438757  34.7986794  69.1155930   9.8239794  35.2836494
  69.3137283   8.3246098  35.2234993   2.7364795  59.6658516  33.0489120
   3.5642157  59.2038422  32.9161339   2.7723615  59.9652748  33.9573669
  15.8081770  58.9889145  87.5027695  16.2581482  59.7668381  87.1732330
  16.0301781  58.3003120  86.8760529  68.8111496  15.8470182  40.9704514
  69.4018784  16.5901070  40.8476028  68.9160919  15.3237133  40.1758614
  54.9482422  24.5173988  22.0001411  54.9540787  23.6506901  21.5939236
  54.3827744  24.4190788  22.7661781  10.8566999  59.1657524  33.6006966
  10.7102861  58.3394737  34.0611954  10.6504717  58.9703331  32.6866302
  68.8370056   9.5826130  62.7944336  68.9452515  10.5038567  62.5581627
  68.4921494   9.1710415  62.0020218  51.9431114  39.3880043   7.9516554
  52.6521492  39.5454407   8.5751228  52.3814659  39.0498085   7.1708221
  71.5658951   3.4565225  18.7575855  70.6551819   3.6622622  18.9685364
  71.7909393   2.7354937  19.3455544  69.7232132  50.4296875  21.6145306
  68.9897690  50.1689453  22.1715794  69.3364487  50.5416374  20.7461319
  43.1909904  14.9329672   1.8682675  44.0224113  14.6562634   2.2535050
  43.2952728  14.7697630   0.9308661  61.8426704   4.3857656  75.4663315
  62.4553833   3.6762133  75.2730713  61.0627899   3.9439468  75.8022156
  31.1035042   4.7635269  39.7769165  30.9032974   5.0272422  38.8788071
  31.4762688   5.5479212  40.1794128  67.8312149  48.5381508  44.8390732
  67.3237686  49.3431892  44.7359009  68.2369919  48.6197548  45.7021599
  62.6557693  54.2690353  34.5979080  62.0039406  54.6319618  33.9982071
  63.4116592  54.8496704  34.5099907  58.2741280  51.1621475  26.1517658
  59.0645103  51.6865845  26.2802105  57.6317978  51.7789955  25.8008556
  74.4132614  25.2405739  22.9459229  75.3624420  25.2554512  23.0686779
  74.0892105  25.9524708  23.4976711   1.8737482  69.8061676  20.9290791
   1.3037586  69.0404510  20.9999542   1.8426592  70.0429153  20.0021400
  12.9008808  29.3599739  13.3244991  13.2518559  28.6049843  13.7967691
  12.0308867  29.4943275  13.7003870  76.6109619  71.2852402  17.7614918
  77.4289474  70.9242249  17.4197330  75.9283676  70.8799820  17.2266407
  60.5018578  13.6970177  12.9524164  60.2037735  14.1231585  13.7560225
  61.4300499  13.9228535  12.8916664  39.7053986  54.6009521   0.8787856
  40.1309891  55.4346848   0.6787973  39.1536446  54.4248199   0.1166975
  72.7261963  59.6583862  18.8283501  71.9759750  59.7902794  19.4080067
  73.4524460  59.4572411  19.4185524  43.8640709  39.3070030  59.0925865
  44.4773483  38.9689713  59.7451630  43.1423683  38.6782150  59.0937958
  78.1000290  12.5021505  88.4901047  77.2137604  12.2938614  88.1945114
  78.6642990  11.9137096  87.9885330  52.0870438  51.8352127  16.6656914
  51.1959305  52.1168480  16.8726463  52.3958282  52.4718781  16.0210667
  52.3204727   8.3389063  77.0848541  52.8654633   8.6317177  77.8152542
  51.4674644   8.7423019  77.2457199  21.2126541  38.9155502  27.2571716
  20.9477024  39.7058334  26.7865524  21.7117634  39.2393303  28.0070305
  26.9370537   4.9839139  67.9813156  27.2355614   4.5110674  67.2044373
  26.4273300   4.3397117  68.4726562  74.3741379  55.1090546   1.7150011
  73.4998550  55.1844292   2.0973322  74.7900238  55.9510193   1.9003855
  60.7620468  42.0550156  19.5575047  60.8166313  42.5416603  18.7350502
  59.8246040  41.9153938  19.6914272  64.4055405  33.4962044  54.6643753
  64.6857147  32.5813217  54.6914215  65.0033264  33.9474754  55.2603951
  62.3893471  37.1130981  50.3665314  62.3855171  37.8495598  49.7551041
  63.0522652  37.3451614  51.0168533  35.6097527  14.6051836  11.8125420
  36.3464012  14.4522600  12.4043150  35.7941551  14.0528355  11.0528450
   1.9898074  11.7848158  78.5372849   1.5000925  11.1488791  79.0588150
   2.0045013  11.4113312  77.6560745   0.4301885  10.6608706  47.6048279
   0.8538859   9.8680153  47.2760544  -0.1379952  10.3534956  48.3111725
  57.8330917  10.1224012  52.7243690  57.7120552   9.1730890  52.7440872
  57.5249786  10.3851719  51.8570442  72.9811478  14.3555746  83.5175934
  73.9039383  14.4113312  83.7657547  72.5560684  15.0521650  84.0178909
  85.8628311  61.0127831  39.0341110  85.9934082  60.2801666  39.6361504
  86.6879196  61.4971199  39.0637398  12.2207336  66.0751724  47.6834030
  11.6099396  66.3867493  48.3512993  12.9725904  66.6634369  47.7532959
  61.1945000   5.5910769  23.7665615  60.5242538   5.7162342  23.0947456
  61.9519539   6.0787129  23.4429798  17.3389740  47.1620674  56.0302963
  17.8598175  46.3846169  56.2315979  16.4343452  46.8916473  56.1876221
  49.7919693  53.9615746  26.7772465  49.5013695  54.5255928  26.0605412
  49.5726357  54.4501915  27.5705795   2.0156903  61.0931511  26.5804119
   1.5537586  61.5941658  25.9082241   2.8058000  61.6032257  26.7586918
  20.0620518  51.4986000  68.8643188  20.5859909  52.0644226  69.4313889
  19.6272602  50.8936691  69.4653549  60.7514343  29.5060406  33.1990891
  61.5836563  29.2249870  32.8187637  60.9984360  30.1321125  33.8797188
  34.3339348  33.9787788  74.3410873  34.7362366  33.1302452  74.5264816
  34.0760460  33.9256210  73.4208145  65.2321320   2.8580077  12.9629879
  64.8648682   3.7147059  12.7452250  64.5575867   2.4366040  13.4955702
  34.4350777  59.3850212  80.2391968  33.6069527  58.9057350  80.2122269
  35.1068230  58.7031746  80.2307129  69.1553497   7.8565378   3.3089740
  69.3986435   8.4460649   2.5951843  68.6668777   7.1525836   2.8822632
  31.3903923  61.8569641   7.8793182  31.4262009  60.9472580   8.1749363
  30.5133991  62.1535072   8.1225739  31.8170586  28.6127663   8.3297052
  32.1164284  29.2947121   8.9310045  32.2096138  27.8073254   8.6664524
  83.2750397  15.0441437  36.1930809  83.4930038  15.6879597  35.5191193
  82.3183441  15.0131807  36.1942673  68.5079269  52.9578934  82.0677948
  68.4320602  52.3979950  81.2951431  68.3738251  52.3650742  82.8072662
  19.3486786  43.2679825  42.2573776  19.8135109  43.0035973  43.0512695
  19.2297878  44.2129555  42.3529091  40.7220345  59.8770142  54.2152634
  39.9935646  59.9134331  53.5953941  40.3174210  60.0280724  55.0694885
  83.7816696  49.1392365  22.2490253  83.7652130  49.4166641  21.3330593
  84.6582718  49.3728714  22.5543327  83.7821884   1.4606376  19.1410770
  84.0211334   0.7284827  18.5726719  83.8615646   2.2336187  18.5821228
  69.9611435  33.5576820  20.8728237  70.4942551  32.8175163  20.5826721
  69.1914673  33.1553154  21.2752190  72.9002380  56.7382736  20.5941772
  73.2268906  56.7462654  21.4938793  73.4080734  56.0521584  20.1610737
  11.9223928  35.6551361  42.8515968  11.1499367  35.6564445  43.4168777
  11.8256617  34.8679581  42.3156662  46.7825127   9.2378178  42.7538338
  46.1362724   8.9505901  42.1087723  46.2608414   9.5397329  43.4974327
  72.1985321  71.2903137  18.3671455  72.6786118  71.3743896  17.5433235
  72.3125763  70.3737411  18.6183643  84.8009415  62.1577187  54.5007515
  84.0049210  62.5184631  54.8912048  84.8720551  62.5966072  53.6530762
   7.0426044  61.2890472  41.5417252   7.4000368  60.4839172  41.1672401
   7.5109220  61.9915085  41.0906601  40.6519165  31.7620144  65.9603806
  40.3356781  31.2203426  65.2373199  40.2931938  31.3473511  66.7449875
  59.6491547  50.0840683  37.2153244  60.1581612  49.2846069  37.0811081
  60.2189980  50.7863045  36.9016724  54.7719650  29.0335426  86.9059067
  55.0081711  28.1369839  86.6679611  53.9047279  28.9552765  87.3034134
  71.5444870  25.1962337  33.9533615  71.8689423  25.3492393  33.0659218
  71.7943649  24.2928066  34.1472969  64.9590225  38.7274361  64.2587128
  65.6337738  38.3499908  64.8230438  64.2781982  38.0558739  64.2173309
  38.7542038  32.9709511  61.7750473  38.4350243  33.8724365  61.8161240
  39.6185188  33.0411224  61.3697472  71.8651657  33.3896675  67.4645309
  71.1765137  33.4348221  66.8012466  71.4732819  32.8936234  68.1832809
  74.8106613  66.7894516  72.7052841  74.7804565  67.0343704  71.7804413
  74.2008209  67.3910217  73.1324081  50.0975723  11.6427097  41.5529175
  49.4261894  11.8737164  40.9109573  49.6201935  11.5557251  42.3780060
  18.9070759  51.4088287  65.2189178  18.0725727  51.0498848  64.9172592
  18.9084530  52.3116379  64.9008484  40.8233604  23.3901234  80.3198166
  40.5787582  22.6055660  80.8106003  41.4117661  23.0708961  79.6356354
   8.6000710  41.0358696  41.1443977   8.8891430  41.0000572  40.2325935
   8.3026438  41.9375076  41.2661285  19.5960941  41.3327599  12.8351774
  19.7792301  40.4161072  13.0411825  19.6695232  41.7862587  13.6749268
  85.3204193   2.0024328  74.6500702  85.3628998   2.9338403  74.4334869
  85.9659882   1.8890569  75.3476486  67.8448868  14.4805994   4.1772947
  68.4723129  15.1965170   4.2774601  67.2091675  14.8066311   3.5402727
  25.5331249  21.4776058  42.3381615  26.1957684  20.8783245  41.9946518
  25.1751099  21.0261593  43.1025276  78.6898193  13.0164938  72.0288773
  78.8738022  12.9399481  72.9651108  79.4788208  12.6830015  71.6016846
  78.3178787  67.5982895  72.9344406  78.0360870  67.0701904  72.1874847
  79.2567673  67.7248688  72.7976761  31.5881844  32.5471001  58.6988564
  31.0636234  31.7610054  58.8509102  31.0429974  33.0929489  58.1322441
  28.0957718   2.8196778  74.1278229  27.7707729   2.1192732  74.6935501
  28.4240837   3.4840286  74.7336960  17.6192322  51.5442772  42.1646156
  17.3906746  51.8811684  41.2983055  17.5984612  50.5925407  42.0646248
  64.6330948  66.5046692  86.5761642  64.6813202  65.5487366  86.5862503
  65.0192795  66.7551270  85.7369003   1.6864810  50.3604050  15.0033770
   1.8072245  49.9322319  14.1558390   2.0942609  51.2199326  14.8977404
  61.1701927  32.8146744  84.7882156  61.1497154  33.7388649  84.5398560
  62.1011810  32.5933723  84.8110657  50.5911865  21.7752628  30.5977211
  50.5477943  21.2265549  31.3808346  51.5230598  21.8115311  30.3820133
  79.8458710  64.6052094  60.0821877  79.7399597  63.7106323  60.4058342
  79.4679794  65.1546631  60.7688675  75.8565750  40.1832962  52.8196449
  75.3187866  40.2307968  52.0292282  76.7462234  40.0420456  52.4959068
  56.2714272  14.1617565  40.5701561  56.1457596  13.2602444  40.2739868
  55.4053383  14.4384832  40.8693962  67.5129547   9.2093449  38.0309944
  66.7283783   9.2240696  37.4828606  67.1788025   9.2219238  38.9278831
  33.7252731  58.0046883  59.5891190  34.3364716  57.6922379  58.9220085
  33.2622719  58.7295570  59.1690865  41.2801819  52.6065216  79.7918167
  42.1302338  52.2083626  79.9792023  41.4477005  53.1926384  79.0538177
  67.2378693  37.3129463  50.5851402  67.3179169  38.2422028  50.8003387
  66.8585892  36.9171791  51.3698311  64.9487152  12.7755423  34.9500313
  65.0837479  12.8542109  35.8943863  65.8309479  12.7970648  34.5793152
  61.5517807  68.9245911  43.0716438  62.0710640  69.5041199  43.6290665
  61.2198067  69.4940491  42.3775673  13.9118776   4.7866130  84.1477203
  13.3762074   5.1420217  83.4385147  14.7464380   5.2493052  84.0725021
  38.6539764  59.3500557  56.5651627  38.5715714  60.0502853  57.2125587
  39.1727257  58.6767273  57.0053444  79.6068573  27.2522411  83.1134949
  79.7855911  26.8126469  83.9447861  80.3351059  26.9980259  82.5466995
  12.9725552  65.2150192  62.7453194  12.0994987  65.4588852  63.0527840
  12.8264971  64.8549042  61.8705559  36.8439369  66.9763489  36.2521248
  37.3005104  66.1405411  36.3480186  37.4837685  67.6319962  36.5295639
  18.4737492  10.4837856  25.2050171  18.7886162   9.6313496  24.9042778
  19.0848389  11.1134224  24.8224487  60.4073792  33.1056824  77.1500931
  60.3017731  33.0411415  78.0992584  60.1440430  34.0016823  76.9401779
  70.6724930  61.6190758  63.4996529  71.5062027  61.2962494  63.1576881
  70.4595642  62.3684692  62.9435043  54.4703407  46.9764977  11.1559820
  53.7315521  47.5750580  11.2661877  55.0899849  47.4590378  10.6087809
  40.9897652  61.3155060  35.1807213  41.0167999  62.2722931  35.1728973
  40.3678169  61.0878105  34.4896622  57.7808609  45.8575020  12.3947697
  58.3457489  45.4519501  13.0525379  57.8933411  45.3142891  11.6147051
   3.4020708  59.5378609  52.4165993   3.4058988  60.3637733  52.9004211
   4.0341372  59.6711388  51.7102280  68.4436035  66.8833847  69.9924622
  67.8512726  67.1946106  70.6769409  67.8918839  66.3453217  69.4247284
  18.1786842   3.4204352  45.4557724  17.6423149   2.8405614  44.9151382
  19.0273724   2.9809937  45.5091743  85.6825027  14.9799271  50.4039841
  85.1572647  14.8440504  51.1925926  85.1633911  15.5824575  49.8713417
  66.2328262  50.8025551  19.1221485  66.1533356  49.8488770  19.1018524
  65.3375015  51.1200790  19.0046768  73.0452347  12.4962626  57.0817833
  72.9613419  11.5466566  56.9955254  73.9137573  12.6263714  57.4625359
  86.7258682  49.2907410   0.8984499  87.4445267  49.6021309   0.3481742
  85.9366531  49.4774170   0.3900030  58.0965309  68.9007568  80.7564316
  58.7821922  68.4345169  81.2346802  58.1992798  68.6130753  79.8492889
  68.9558334  45.3972015  40.2068481  68.8743210  45.9716110  40.9681892
  69.8040314  44.9682922  40.3201332  16.8651180  70.6709518  59.5022850
  16.5859013  69.8559723  59.0850563  16.3516979  70.7151947  60.3089294
  40.0778236  10.6195793  77.7018967  39.4985237  11.1837482  78.2141037
  40.8871422  11.1232290  77.6148911  41.8373718  49.4234924  38.0738602
  42.4403610  49.8278160  37.4500351  41.5625877  48.6109047  37.6490936
  81.6089096  15.1677332  82.1199493  80.8826218  15.7115583  82.4248810
  81.5153580  14.3485651  82.6062012  74.2037125  21.9806499  40.4667702
  74.2262878  21.9862309  41.4236870  74.9119568  22.5698586  40.2070427
   6.0000353  41.9063683  14.4660606   6.8079257  41.4220848  14.2957315
   5.8934188  41.8676224  15.4165154  40.9723587  57.0048485  36.6430092
  41.2871323  57.8935356  36.8084984  41.4943047  56.7002258  35.9007111
  69.2897568  31.0855274   3.2783554  68.8700943  30.2451344   3.4623408
  70.2231293  30.8803329   3.2239900  26.8443203  49.9241028  30.3869171
  26.8406696  50.0482826  29.4378147  25.9257126  50.0070877  30.6428623
  74.4071884  68.1114655  75.9519348  74.6510391  68.6296463  76.7189178
  75.2278442  67.9893799  75.4745941  11.3484564  39.0373955  62.1138535
  10.9773197  39.4349556  61.3261757  10.6678963  38.4400406  62.4240761
   9.9947138  53.7075081  27.1107426  10.6000519  52.9713211  27.1992035
  10.3520536  54.2261391  26.3899364  29.2107830  41.5100746   1.9501101
  28.5138721  42.0834694   1.6311072  29.5865192  41.9808083   2.6940613
  53.7411728  64.4828568  64.5248032  52.7856712  64.4280319  64.5401688
  53.9398918  65.3192368  64.9457779  53.1103020   8.7950277  36.5087967
  53.3853531   9.2291670  35.7012672  53.8817940   8.3039846  36.7914810
  70.8904114   7.7855315  30.5096760  70.8315125   7.8573527  29.5569916
  70.1619339   8.3142815  30.8352184  80.0839462  49.3332329  64.7833328
  79.7879868  49.0299530  65.6416245  81.0348511  49.2260818  64.8062515
  41.2182198  31.4624901  33.1241875  41.9825745  31.2890568  32.5747223
  40.6619263  32.0284271  32.5889473   4.9348969  49.2978401  86.2751389
   5.1183810  49.8951797  87.0002289   4.8979859  49.8625069  85.5031128
  77.2261505   7.4247251  27.9793854  76.4532852   7.3949614  27.4154510
  76.8832855   7.6513519  28.8438587  34.3384399  44.5896645  32.1002197
  34.6436043  44.2798347  31.2475109  33.8101730  43.8683586  32.4421082
  61.7589417  65.7189941  20.7518806  62.1362991  64.8466492  20.8652153
  62.4501266  66.2253494  20.3251495  26.2525654  53.6355324  21.7854767
  26.6793518  54.4630318  21.5633755  26.2302570  53.1488419  20.9615440
  84.0540543  10.7202759   6.6235209  84.9832993  10.9476185   6.5912123
  83.9141617  10.1737499   5.8502345  61.3307266  50.3210297  29.0204620
  60.6211815  49.8741035  28.5589085  62.0419006  49.6807861  29.0438480
   8.3894939  69.4076538  70.3853149   7.4420609  69.2764053  70.3481979
   8.5031347  70.1758652  70.9449310  56.6546631  14.8658104  24.3369732
  57.1328926  14.8134079  25.1644878  57.3283386  15.0493860  23.6822262
  44.6945305  52.7093353  19.5774155  45.2382889  53.4970894  19.5785656
  43.8423500  53.0060692  19.8967457  70.1089020  11.8366880  48.2135162
  70.8916016  12.0515795  48.7208862  70.1289215  12.4437075  47.4736786
  50.3498878  24.1883774  62.2901382  51.2415047  23.9523296  62.5461311
  50.4254608  25.0818977  61.9552612  70.7277756  37.3330498  49.6684532
  71.2151337  37.1336250  48.8691101  70.9805069  36.6427917  50.2815628
  57.0365105  16.5463657  41.7916260  56.9494209  15.7194185  41.3174896
  57.2721329  16.2879162  42.6826477  15.7122231  36.3838463  29.7953110
  15.7511253  36.5373497  28.8513012  15.8619947  35.4433327  29.8914089
  65.6090775  56.8543663  70.3500595  66.2874603  57.5171394  70.2206039
  65.2461624  56.7092514  69.4762955  37.9725456   5.3794866  72.0000992
  37.7513237   4.7271256  71.3354797  38.8460426   5.1285896  72.3005676
  81.0322800  33.4077873  35.8863220  80.3091354  32.8307648  35.6406898
  80.6300430  34.0698891  36.4485092  56.5131645  57.5751572  10.2254562
  56.3932495  58.3686104  10.7472630  57.2149086  57.0997849  10.6702080
  18.3194351   4.9243512  71.5124588  18.1102238   5.7571921  71.9353485
  18.3843899   5.1380186  70.5816727  58.3290749  58.6016273  76.6863937
  57.4379311  58.8589668  76.9227676  58.2586823  57.6740074  76.4610062
  67.6660156  24.8772182  66.4514389  66.8225021  24.8496113  65.9998245
  67.4784012  25.3127823  67.2828903  67.0817108  68.7859039  36.8973427
  66.1594009  68.7633667  37.1524391  67.0783691  69.1696701  36.0204506
  18.6904621  42.9463005   9.9036856  19.2748814  43.3532906  10.5432539
  17.9084282  42.7169838  10.4057493  51.5314445   6.3096304  61.8701439
  52.1118965   6.7623534  62.4819832  52.1160202   5.9684062  61.1933327
  29.0973434  43.0904884  28.4516125  29.3230095  43.9684868  28.7589054
  29.5677948  42.9984283  27.6231003   6.8231173   0.3902736   8.6859665
   6.7803316   1.1952027   8.1697388   7.7268324   0.3545168   8.9994192
  30.2941780  33.8049889  87.2532578  30.7340584  34.2368507  86.5209808
  29.4099979  33.6291275  86.9314957  47.9551468  38.5732346  67.0229187
  47.7888680  38.9045067  66.1403961  47.8147812  39.3292847  67.5929413
  43.6130486  51.2845154  83.2516098  43.0862656  52.0464783  83.0104752
  43.8638535  51.4449234  84.1613312  17.4503536  45.1038780  21.0263615
  17.0988159  44.2510643  20.7707024  16.7111530  45.5552368  21.4339027
  44.7396774   0.1404852  87.9458771  45.3851013   0.6499747  88.4358597
  44.5868568  -0.6350584  88.4857025   9.4742489   1.4040048  69.4448547
   8.8330584   2.0925262  69.6210556   9.2249851   0.6890410  70.0304565
  46.1990852  51.4057388  76.7626572  45.4122658  51.8588753  77.0656738
  45.8901520  50.5383949  76.5009232  84.7876816  56.2552452  49.6353455
  84.1005478  56.9022865  49.7947578  84.5156784  55.8097420  48.8329887
  75.4503784  26.6601944  25.5336475  76.2664261  26.4786987  25.9998665
  74.7618408  26.4291344  26.1571445  33.2351265   2.2297120  13.8322115
  32.5464401   2.5563016  14.4112511  33.6829147   3.0177288  13.5244017
  13.7319975  18.6638908  71.1328125  13.6890707  18.9228153  70.2122955
  14.4690809  18.0547428  71.1761551  81.4022293  13.7547073  77.4570770
  81.7796402  12.9456625  77.1117630  81.9401016  13.9629402  78.2209930
   2.5316498  50.3997765  78.0095139   2.7695503  51.2587204  77.6604462
   1.9885614  50.5937576  78.7734909  14.8531837   5.2473283  67.1714401
  15.7242470   4.9878249  67.4716721  14.3749704   5.4544902  67.9743271
  73.1824341  69.3266220  59.0936432  72.3445358  69.7437897  59.2939720
  73.6841736  70.0031815  58.6389351   0.2869062  26.6803207  16.0614910
   0.5868056  27.5347595  15.7512836  -0.3708100  26.8842411  16.7263641
  84.5844803   8.0869036  42.3444138  85.1231079   7.3079848  42.4836884
  84.4514389   8.4460840  43.2216377  65.8073730  28.3178787  29.1175861
  66.4643707  27.9641819  29.7171535  66.0468445  29.2390804  29.0162315
  50.5870819  46.4821472  88.3507690  50.2202721  45.5999718  88.2920609
  50.0179062  47.0156059  87.7960663  12.0891743   4.7757483  12.0339222
  12.0741653   4.3499689  11.1767654  11.6990385   4.1337619  12.6271162
  66.6707153  52.0124969  33.0492516  67.1200485  52.0057526  32.2040977
  67.3758163  52.0577927  33.6950226   3.5416591  35.8914413  48.5046577
   2.9803073  36.6387558  48.7111511   4.4103303  36.2725525  48.3766098
  86.1802216  37.0176926  25.6241016  86.1549225  37.1272240  24.6735268
  86.9961166  37.4403496  25.8922672  46.7031517  52.4238586  45.9741554
  46.5285835  53.3635788  46.0259933  46.9182701  52.1703377  46.8717575
  80.4020462  18.7816677  47.5804024  79.7449417  19.4261856  47.8431587
  79.9133682  18.1356506  47.0704155  67.2375259   1.1160116  51.2395477
  68.0675888   0.7826850  51.5803070  66.6076508   0.9530109  51.9416351
  18.8795071  45.9607658  66.9475098  19.7911816  45.6833229  66.8574905
  18.4893894  45.7828560  66.0917130  49.5598602   0.8545642  87.2838135
  50.2583351   0.4806566  86.7466431  49.2550011   1.6132411  86.7861176
  30.5484486  12.2146835  75.5829239  30.0261745  11.4779530  75.9002380
  29.9175091  12.9262114  75.4739532  23.8273411  45.3318367  88.0269012
  23.5218868  44.9826469  87.1896439  23.7908192  44.5856133  88.6252670
  40.8158798  59.6036224  37.4762917  41.0075645  60.4120560  37.0009727
  39.9744339  59.7694740  37.9013710   0.1218726  43.2551842  85.2090073
  -0.5628071  42.6193924  85.0011292   0.6757348  42.8097115  85.8501205
  72.8789749  41.3222160  65.4343414  73.0859833  42.0048409  66.0726242
  72.6651688  40.5548935  65.9651337  22.8849564  38.5817795  87.4145126
  23.2457790  38.1299210  88.1773148  23.6472969  38.7794991  86.8704758
  84.0000763  43.4065170  34.2484779  83.1093826  43.7445068  34.3415337
  84.4196091  43.6031876  35.0860634   2.1317441   2.1488929  71.1446228
   1.1986126   1.9369164  71.1683578   2.2092156   2.9477835  71.6661606
   1.4397836  42.5139465  56.5118675   1.4476535  42.1821518  55.6140480
   2.3644717  42.5895920  56.7473679  43.5318794  64.8953476  73.5604706
  43.6243210  65.6269302  74.1707764  44.3973961  64.8052521  73.1617279
  29.5014858  45.8995705  57.6394081  30.0261211  45.6726227  58.4071846
  28.6150475  45.6155663  57.8625717  77.8304596  71.1780243  78.0252457
  77.4615402  72.0612717  78.0237274  77.9981003  70.9868927  77.1024246
  69.4537582  70.3312454  55.2546196  69.2979736  71.2671432  55.1279068
  70.3663559  70.2765808  55.5381927  17.9919605  35.8066063  19.0779114
  18.3903275  35.7891197  18.2077217  17.0719604  35.5914192  18.9245262
  69.7995529  24.7289791  14.7669115  70.0402908  25.6525459  14.8397341
  70.4074020  24.3734283  14.1185751  30.5247631  27.4855347  21.8652000
  30.7909012  26.6261921  21.5381927  29.6591721  27.3390751  22.2466908
  81.4639206   9.8841658  73.4898224  82.3342514  10.2793093  73.4386139
  81.1203003  10.1704903  74.3360901  82.1464233   8.2487574   1.5731537
  81.9487228   8.5593605   2.4567106  82.3450699   9.0438681   1.0786160
  53.8132477  61.7403870  15.8981829  53.9274063  61.6555672  16.8447590
  52.9963722  61.2770844  15.7129841  66.7738724  31.3062057  53.3989182
  66.2262344  31.2299862  54.1802788  67.6707764  31.2520123  53.7288399
  13.0763416  32.5779419   1.2831264  13.9858999  32.3265839   1.1226511
  13.1105652  33.5241547   1.4236406  21.4433289   0.5905012  74.1767044
  22.0449333   1.2886155  74.4354324  21.6549549   0.4198723  73.2589111
  19.7125969  56.8205566  56.2086067  19.4563503  57.2591476  55.3973083
  18.8931904  56.4760895  56.5637817  28.1798611  38.4885483  49.6374626
  28.2719460  39.0366745  50.4167633  29.0493145  38.4933777  49.2371368
   1.1670195   5.0276184  59.2232552   1.1239519   5.3483729  60.1240845
   1.0113449   5.8036747  58.6849823  27.7579880  11.2759104   2.7614479
  28.2031364  11.8461733   3.3882458  26.8380394  11.3028631   3.0245047
  42.3540993  57.3692436  39.2241096  41.9324570  56.7964783  38.5834923
  42.1085930  58.2537346  38.9527588  74.3582077  43.1372032  12.6423578
  74.2781219  42.8671188  13.5571651  73.5016708  43.5053291  12.4254417
  25.0395527  31.0888653   7.2366791  24.9276485  30.7053070   8.1065025
  24.1868114  31.4728870   7.0327396  61.2701416  18.7139454  54.3703079
  60.6420937  18.9758396  53.6971092  61.5491257  17.8363304  54.1091690
  79.6217728  67.4789124   4.0888062  79.0358582  67.6523361   3.3520176
  79.0978928  66.9524612   4.6926556   2.0716474  53.4008064   6.9414177
   2.6867933  53.8700027   7.5050507   1.6000948  52.8168449   7.5354342
  73.8189774  27.8146267  72.1712341  74.1996765  27.2548466  72.8479462
  74.3735352  28.5947971  72.1658249  46.7707520  61.9923325  55.9141235
  47.4885406  61.8384972  56.5284081  47.2032509  62.1479607  55.0745087
  39.0589638  67.3275299  83.7188492  39.9981537  67.1700287  83.6221542
  38.8363228  66.9367599  84.5638123  80.5981064   5.0728288  13.5572996
  80.1416855   4.2347102  13.4833336  80.8433075   5.1313472  14.4807091
  58.0894928  21.1030121  58.2688408  58.8292961  20.8703842  57.7077599
  57.9239655  20.3147449  58.7860107  70.2289658   1.4481651  34.7862625
  70.3659058   2.3733573  34.5825539  69.3840103   1.4243243  35.2353935
  37.7687950  68.5649414  45.9635887  37.8895721  69.1832199  45.2429123
  37.0301018  68.0206604  45.6909637  70.7025146  52.2259140  16.8689060
  69.8224564  52.5830994  16.7499390  70.7873688  51.5644302  16.1822681
  13.6295710  38.9181290  59.4890823  13.6981468  39.7133026  58.9606628
  14.4446449  38.8926086  59.9903183  80.9484100  26.0010719  46.5042496
  81.7739716  26.4841537  46.4681091  80.3682861  26.5568218  47.0246658
  13.4963036  45.3218765  17.1758842  12.9429379  45.7249527  17.8448753
  13.1884289  44.4170456  17.1236973  62.8378563   5.4764524  26.2859383
  62.2617798   5.5838604  25.5290794  63.2749138   6.3232317  26.3763542
  68.6283340  36.2427139  58.8388863  69.0246048  36.0154114  59.6800385
  67.8435059  36.7394295  59.0702896   6.1461239  27.4464703  84.5859833
   6.9649477  27.8051128  84.9282303   5.7646418  26.9728203  85.3251419
  35.6462936   9.3161669  89.3136444  36.5697556   9.3446207  89.0633621
  35.2980957   8.5498848  88.8577957  32.6145248  52.6239815  18.5605145
  32.5987434  51.8430634  19.1138229  32.8488960  52.2973328  17.6918354
  24.6359596  63.1324844  50.9342232  24.5630112  63.2855721  51.8762817
  25.3854904  63.6623535  50.6627960  87.0405655  55.8755722  38.7060394
  86.1246262  56.1333389  38.8101120  87.0006561  54.9831085  38.3623123
  22.7258072  28.2172222   6.5738459  23.2754612  27.6261177   7.0883422
  22.7302818  29.0379543   7.0664015  64.8166885  24.9898701  85.3968658
  64.0549545  24.4985619  85.0892715  64.8601532  24.8021126  86.3344650
  43.7855148  44.7031746  16.4696541  42.9742203  44.2526207  16.7042332
  43.6453133  45.6086502  16.7465820  81.0386505  37.2073212  86.3796005
  80.2251892  36.7248421  86.2321854  81.2042007  37.1166534  87.3180084
  83.3024979  20.8321743  82.8710480  83.5802612  20.0138893  83.2827301
  84.0813828  21.3881092  82.8936539  79.0586166  44.0275192  57.4292412
  78.6696777  44.5306664  56.7138405  79.7344360  43.4960403  57.0084953
  11.0250301  39.7730827  71.6064301  10.5284739  40.1634254  72.3256683
  11.5047836  40.5062332  71.2210007  72.3232040  57.1041718  17.7377777
  72.3610229  57.7753105  18.4192295  73.1884308  56.6951752  17.7561398
  85.3945923  33.3794823  54.4055939  84.7275238  33.8387146  54.9158440
  85.4937592  32.5352783  54.8457260  79.9603348  22.5519962  23.9232216
  79.8535767  21.6920910  24.3299122  80.8859634  22.7621460  24.0468330
   3.1375139  50.5641518  11.8947983   2.8317125  49.6626968  11.7942944
   4.0458789  50.4780731  12.1840992   9.1607513  33.0386047   5.4722633
   9.5472116  32.1699600   5.3612123   9.8904467  33.5914345   5.7518287
  56.1338921   6.2962976  67.0979462  55.3667297   5.7239399  67.0877838
  56.7539406   5.8554525  67.6788330   7.0293713  38.4812889  41.0019073
   6.1806164  38.2653732  40.6156044   7.0005331  39.4296188  41.1286964
  69.1919785  68.9484787  68.3255920  68.7802582  68.5323029  69.0829010
  68.5307770  68.8974533  67.6353455  51.1572342  24.0879955  28.2487049
  50.7626495  24.9486065  28.3897076  50.7507133  23.5269985  28.9091988
  21.0441952  60.4576454   4.2047148  20.9817963  61.3899498   4.4124413
  21.4447689  60.4321671   3.3357365  11.2894907  13.4865313  88.9522629
  12.1015110  13.9317999  89.1943207  10.9561367  13.9851160  88.2062607
  75.4481277  44.6407089  77.9323425  75.1601715  44.5941734  78.8440170
  75.0444870  45.4400520  77.5941772  49.1814156  51.4525757  27.8811569
  49.1954193  52.3215599  27.4800282  49.5804482  51.5796394  28.7418880
  58.3420677   8.6441326  15.6582117  58.1002808   9.5379286  15.4155197
  57.7268448   8.4098845  16.3530941  24.9908066  24.0780296  88.5422668
  24.6799736  24.7163429  89.1842804  25.5722961  24.5780888  87.9695206
  68.6495895  61.6014214  81.3311005  69.0891266  61.9369049  82.1124420
  68.8693771  60.6699524  81.3139877  68.9253464  32.4874954  54.9111099
  69.6815872  31.9057579  54.8342361  68.6215515  32.3677673  55.8108940
  70.1570587   2.0739267  27.6037788  70.4297562   1.2198560  27.9390850
  69.7718658   1.8835623  26.7484303  18.8803177  12.3497143  69.1919098
  19.6841354  12.5001059  68.6944275  18.2465668  12.0526581  68.5389557
  31.7632179  31.2065239  12.9145193  32.0531998  32.0521011  12.5722580
  30.8118191  31.2884159  12.9806032  44.5486755  53.5232887  78.6604996
  44.3821220  52.7304688  79.1703339  43.7359238  53.6725311  78.1773987
  54.7691879  67.4132767  47.6471100  54.4288483  67.1165848  48.4911308
  54.8360367  68.3639374  47.7366180  22.0166512  60.2674751   1.6319681
  22.9328671  60.0624809   1.8184073  22.0536671  60.8938789   0.9091380
  54.9367714  31.5359268   8.4658346  55.5136261  32.0651398   9.0166578
  54.0653725  31.9062386   8.6064167  33.5867844  26.6396084   9.4784164
  34.3471947  26.0805397   9.3188915  32.8418121  26.0386219   9.4706955
  26.9502831   0.3037665  68.3782349  27.5432091  -0.0701221  69.0300674
  27.3691120   0.1165381  67.5381393  19.5368156  48.7978516   7.9622631
  19.0566788  48.5281219   7.1793542  19.0830441  49.5855560   8.2619991
  24.3065262  44.8171501  35.5613365  23.4704399  44.3985481  35.3564796
  24.3219357  45.6020584  35.0136948  34.5766029  27.8098373   5.7866621
  34.1165695  28.1365929   6.5598598  33.9102898  27.3268013   5.2978482
  17.2682056  35.1085701  13.2705450  18.0861721  35.5973396  13.1796217
  17.3759613  34.3519707  12.6941977  84.5947571  27.2278442  18.9493370
  85.3787689  27.4849491  19.4345684  83.8898697  27.2655010  19.5958271
  59.9698944   0.9321480  35.8161926  60.6455917   0.4887959  36.3291283
  60.2133675   1.8573128  35.8481598  33.5772552  65.5283127   7.0589094
  33.8086357  66.4002457   6.7388544  34.4003677  65.1681290   7.3890309
  30.9574585  70.5090942  10.1363382  30.9589882  69.7963257  10.7752361
  31.3624268  71.2441864  10.5966225  78.7846603  23.1052151  67.3984756
  78.2888947  22.5889263  66.7629471  78.5867538  22.6999969  68.2427902
  44.9312859  57.8422623  34.4479141  45.1892509  58.4196167  35.1664886
  44.7479706  58.4346352  33.7187195  76.1170120  58.9194489  29.7129269
  76.5814667  58.5055695  28.9854603  75.9740829  58.2106133  30.3401070
  54.8120461  17.4977169  74.6310654  53.9467087  17.6696453  75.0023651
  54.6445808  17.3202839  73.7054825  76.2246323  45.0743980  40.1345444
  76.7306061  45.8421898  40.4004784  76.6761398  44.3364029  40.5441017
  67.6104736  34.4144478  47.0686989  68.0296936  34.5035820  47.9245834
  67.6893692  35.2819252  46.6718483  30.8628025  24.9919262  86.9985504
  31.5808125  25.5258904  86.6585846  30.9803371  24.1386662  86.5809784
   5.1126790  22.0036221  64.7792740   5.9512930  22.3360653  64.4592133
   5.2400579  21.0573139  64.8464127  34.2517319  11.0062609  83.9380341
  33.7050743  10.5222540  84.5570068  34.1085930  11.9261684  84.1605453
  67.0453262  27.3027935  43.3617516  67.5795441  26.5687542  43.6651115
  66.8834305  27.1151905  42.4371834  78.9279022  71.1451340  69.4047852
  79.5304337  70.4961472  69.0414658  78.5153503  71.5442047  68.6387711
  61.6896324  49.8317375  82.8455124  61.2238045  50.4456024  83.4133224
  60.9984283  49.3053932  82.4437256  46.6602364  33.2007027  40.5186844
  47.2707748  33.9378548  40.5095901  45.8840294  33.5269623  40.0634003
  53.9531822  58.1244965  63.2927551  53.5297203  57.6453476  64.0050278
  53.6971931  57.6518402  62.5007362  82.5848007  47.8505325  64.7173996
  82.5727539  47.4170380  63.8640709  83.5097580  48.0371780  64.8781815
  31.3653793  59.6410446  76.1582489  31.9231319  60.4183388  76.1892166
  31.7968941  59.0614700  75.5304565  79.7238235   9.5705070  42.1180000
  78.7791214   9.7240210  42.1037788  79.9903259   9.7995977  43.0083504
  74.9086304   7.4657035  82.4974823  75.5236511   6.7460580  82.3557587
  74.1287537   7.2153220  82.0021667  48.7339783  57.4582634  10.7460070
  49.6818085  57.4307976  10.6152563  48.4007721  57.9326324   9.9843121
  66.2412338  56.1776962  60.9583931  65.5412521  55.6551132  60.5670280
  65.9686508  56.3005333  61.8676987  10.6049376  42.6033173  52.9376068
  10.3897057  41.7352295  53.2786865   9.7558746  43.0194931  52.7888794
  19.2187347   5.0464330  64.0827713  18.6528416   5.5429935  64.6738968
  19.0281601   5.4012513  63.2144318  61.7758141  10.3681040  83.0984344
  62.0816460   9.7098818  82.4743805  61.6963425  11.1697035  82.5813675
   1.6356086  21.0914211  25.5159187   0.8953815  21.6165752  25.8200703
   2.1196733  21.6753483  24.9320164  38.0443993  43.5825958  44.7535133
  38.7643585  43.0542412  45.0980835  38.3151436  44.4873199  44.9097404
  81.9760361  34.9706192  48.8264999  82.2285461  35.7490883  48.3300552
  82.6389236  34.8990974  49.5133095  71.1691666   2.2624993   7.0599756
  70.3656845   1.8566664   6.7344818  71.0281601   2.3505309   8.0026312
  23.6890736  16.9104099   2.2884316  22.9668407  17.0581589   2.8989882
  23.7233181  15.9595909   2.1835341  31.9047832  68.6460724  78.5593567
  32.4069214  67.8499985  78.7336197  30.9981651  68.3469849  78.4898911
  22.3993492  34.1807137  86.0257339  22.4386444  34.1152267  86.9798889
  21.7564030  34.8700104  85.8592453  55.3335953  31.2698326  16.1512222
  56.2253876  31.3780136  16.4817219  55.3086662  30.3726807  15.8184652
  45.9382896  57.0876999  85.6245422  46.6663361  57.4738693  85.1376572
  45.7297211  57.7356834  86.2974854  10.6872778  44.6338806  19.2439651
  11.0705519  45.5109978  19.2429771  10.0290756  44.6593323  18.5494480
   3.4375734   6.5552387  60.7117805   3.8965003   5.7210460  60.8104706
   3.1651278   6.7852783  61.6000862  66.1953278   3.7590501  40.8725624
  66.9638367   3.3765483  40.4491005  65.7772903   4.2786827  40.1859322
  58.7301598  24.1064987  67.6951599  59.4026299  24.0308895  68.3721390
  57.9961205  23.5901222  68.0279846   3.1504540  62.8314285  21.0005760
   2.9892795  62.2064247  21.7074165   2.4174507  63.4448967  21.0515308
  71.0830231  41.7736015   2.8520060  71.0616837  41.5201683   1.9292125
  71.8352051  41.3037262   3.2120976  10.4611597  71.6689835  12.2201614
   9.9487066  71.2579041  11.5240002  11.3679991  71.6028595  11.9209948
  44.7411766  41.2090797  18.0450268  44.1905899  40.4264145  18.0678501
  45.6206474  40.8891792  18.2460804  64.7126389  54.2964211  31.9673882
  65.5103149  54.8157959  32.0683975  65.0168686  53.4528999  31.6324997
  35.5556030   2.4926193   1.5345973  36.2980385   1.9019384   1.6615471
  35.8535461   3.3310657   1.8873969   9.7270546  61.4214783  17.8075657
   9.2092237  60.7736092  18.2854214   9.5060730  62.2563820  18.2202816
  11.3847570  48.0600166  46.1231918  11.9500637  47.6051826  46.7475204
  11.4704189  48.9853745  46.3525543  41.0572090  32.8763428  21.5778732
  41.1703300  32.2830353  22.3204498  40.1967239  33.2720757  21.7164021
  67.4986954  13.4416866  66.4784088  67.2702332  13.9862547  67.2317276
  68.3481522  13.0632687  66.7052460  67.9679184  42.3075867  58.6047134
  68.5822449  42.8295021  58.0885391  67.3909378  41.9053497  57.9554596
  -0.1644959  15.7504044  14.0643559  -0.3371582  16.2440147  14.8660841
   0.6405852  16.1334190  13.7159662   5.0987015  41.4095726  77.4011459
   4.5811114  40.6278915  77.2080002   5.6406116  41.1591568  78.1493835
  45.2450180  42.3065071  60.1674309  44.3961906  42.0749626  59.7904510
  45.7359810  42.6845894  59.4378815   4.0718694  46.3549347  45.6262016
   4.7948508  45.7545319  45.4444084   4.4101300  46.9384422  46.3054123
  67.3734589  18.4761086  58.6538124  66.5392151  18.0199566  58.5433731
  67.6530914  18.2523785  59.5414963  67.9777222  57.9383316  42.9910889
  68.4483643  57.1059990  42.9469261  68.1445007  58.3529930  42.1446419
  30.1559010  47.7494583  72.0708389  30.8334236  48.3969231  72.2657318
  29.8508930  47.4560928  72.9294052  74.3297272  63.0675888  52.8601418
  73.7464828  63.5244293  52.2540436  73.7738800  62.8481407  53.6078758
  69.6624222  17.7087040  22.4336357  69.1333313  16.9111023  22.4449577
  70.5559692  17.4012451  22.2810497  31.1760864  49.3255653  54.5064964
  31.0828152  48.8077927  55.3061485  31.1175537  48.6846390  53.7979660
   8.5756330  48.0516510   3.6575015   7.6709633  47.7942543   3.8351302
   8.8900728  47.4027557   3.0279832  11.9898825  42.9613762  17.4604702
  12.4385157  42.2282753  17.8818073  11.6697559  43.4958534  18.1871624
  59.2991333  62.5931587  65.0281601  59.5184364  62.3464470  64.1296768
  59.0581284  63.5177345  64.9706268  44.6803360  28.2511425  60.7427788
  44.9685707  29.1223316  60.4704208  44.6775131  27.7365837  59.9356537
  48.5648003  54.4279442  63.1164246  47.7298508  54.6686516  63.5178566
  48.7425652  55.1320686  62.4928513  43.9535599  66.2453537  43.9351196
  44.1330986  65.4337845  44.4098358  44.1888618  66.9398117  44.5504150
  45.6521301  10.9978552  63.5493050  45.6104088  10.0962868  63.8681526
  45.1502190  10.9871454  62.7343178  24.0807495   6.8226790   4.8939366
  23.9575500   7.5746188   5.4732819  23.4621563   6.1675348   5.2169876
  20.0329151   9.9993124  18.0925961  19.8397560   9.7219677  17.1970520
  19.3166218  10.5923538  18.3194332  44.0464783  25.6635647   8.1627541
  44.8508148  26.0708466   7.8412004  43.7233467  26.2670364   8.8318119
   5.3240085   5.2384286  79.3073959   6.0573215   5.8512039  79.2527237
   5.6851697   4.4718013  79.7524567  40.2865982  66.3263092  11.4961281
  40.1099205  66.9585419  10.7994976  39.4678802  66.2788086  11.9897623
  82.0735397  60.4198189  44.8084755  82.6047058  61.2096024  44.7068329
  81.3132706  60.7060127  45.3147621  40.7731209   1.9065884   2.8190155
  40.6945457   2.0431559   1.8748723  40.6951103   2.7833259   3.1951499
  55.8387604  63.1175957  54.7746658  54.9913406  63.1452446  55.2189026
  55.8376312  63.8893280  54.2083969  82.7656326  23.8724594  10.5970869
  82.6412811  23.2463531  11.3103600  82.5605545  24.7226238  10.9861813
  50.4450684  66.7990341  25.3034821  50.8190002  67.5192337  25.8111515
  50.4299240  66.0599365  25.9115429  69.0448914   6.1965542  75.9294968
  69.1983032   6.3083644  76.8676834  69.1431580   7.0758638  75.5642700
  56.8113518   3.1879542  35.1851501  57.1590767   2.4864173  34.6345444
  56.2486763   3.6951196  34.5999908  55.7058754  24.0456161  77.3572388
  55.4851379  23.6564484  78.2034378  56.2014618  23.3646278  76.9023972
  20.1023579  64.2175674   3.1565685  19.7435207  64.4667816   2.3048897
  20.6876316  64.9381180   3.3900087  75.1200790  61.7385139  48.4979362
  75.6181641  62.3607674  49.0279770  75.6417236  61.6298714  47.7027550
  54.4009247   6.9056091  17.3091850  53.5169716   7.2463775  17.4460545
  54.8740959   7.6268735  16.8943119  19.1910744  10.1465483  82.9894180
  18.4491253   9.6212664  83.2891235  18.8429031  11.0355206  82.9206009
  55.0314484  47.3753777  74.2064514  55.9296646  47.0924797  74.3779221
  54.9359283  47.3067169  73.2565002  69.5373917  44.5972366  46.8092728
  70.0525436  43.8129463  46.6202126  70.0459442  45.3146973  46.4313011
  47.1714554  14.7433081  10.9416227  46.2238197  14.6764898  11.0588884
  47.2812233  15.0223637  10.0326061  62.4545975  44.7187576  30.4996281
  61.5738068  44.5784340  30.8471203  62.4314537  45.6051941  30.1391754
  34.1761703  58.1983490  39.4806976  33.5164146  57.5577583  39.2149963
  35.0066376  57.8215485  39.1898804   1.7492594  67.3751068  58.8923798
   2.0623229  67.8309555  59.6736755   2.1835859  66.5226440  58.9222832
  57.0986443  64.5690384  63.3533630  57.5709534  65.1706924  63.9288368
  57.4497719  64.7469101  62.4808350   1.8406556  34.2955437  33.6781654
   1.8636136  34.8456955  32.8951988   2.3911824  33.5438232  33.4589195
   2.1813643  71.4694595  53.0136490   1.4894998  70.8090515  53.0513153
   2.7254648  71.2042999  52.2721138  79.9714966  19.9074059  66.5272369
  79.7551041  20.1502781  67.4274673  79.3663406  19.1955566  66.3191528
  20.6649208  57.7735558   3.6624358  20.9214783  57.5707550   2.7628341
  21.0202923  58.6479912   3.8215044   0.0651673   7.3081970  71.2228088
  -0.3216668   6.9454117  70.4259491   0.8565986   6.7883692  71.3629761
   9.5505142  71.5062714  56.3556480   9.5208530  70.5501862  56.3202972
   8.6765261  71.7833481  56.0806770  68.5275116  33.3898125  42.1248283
  68.1130676  33.6682472  42.9414940  68.3217087  34.0869102  41.5019875
  54.7430573  11.2460508  46.4208221  54.8602600  10.3759193  46.8020935
  55.0669479  11.8471098  47.0916862  76.0125046  38.5805092  13.9809237
  75.1118851  38.8840218  14.0948944  76.5338211  39.3827858  13.9523640
  75.2463379  28.9034233  31.8116531  75.2651978  28.5968437  32.7182312
  74.5854797  29.5958691  31.8066807  30.8259659  70.8264084  13.9483747
  30.8321133  71.4285507  14.6924295  30.4384499  70.0223541  14.2941513
  64.8247986  35.1052437  59.0943069  65.5897980  35.6273155  59.3360672
  64.2573776  35.1409645  59.8643646  47.3386230  29.1672363  75.8706970
  47.0218544  28.5264378  76.5073090  46.6200943  29.2584991  75.2449036
  55.7451248  52.4512215  74.1277771  55.4862938  51.7228775  73.5631943
  55.3510628  52.2483826  74.9761887  31.4689636  28.0195675  72.3490219
  30.8412056  28.0232048  71.6264343  31.9110279  27.1735363  72.2779922
  11.8716440  25.3982716  67.1417236  11.4438858  26.2143745  67.4010162
  11.3371515  25.0663967  66.4203339  49.0464706  35.1425133  83.4102936
  48.5341721  35.5845947  84.0873108  48.5318871  35.2521706  82.6106644
  30.1777630  64.8313599  80.3028793  30.1702900  65.6736298  80.7575912
  29.3666515  64.8263550  79.7946396  43.2003860  45.2229843  36.0820770
  43.9795799  44.7640915  35.7682190  42.7857590  45.5613441  35.2884598
  13.2364120  52.8961945  80.2881317  13.8216019  52.2028008  80.5930710
  12.6158829  52.4497795  79.7120361   6.9852934  37.3006668  59.5018196
   7.2383757  36.4038200  59.2830811   6.6974993  37.2527313  60.4134712
  45.8922958  18.9075470  73.8133621  46.6658287  19.4147644  74.0595474
  46.2441101  18.0901318  73.4608154  14.0073662  53.9397964  88.4512634
  14.5223570  53.1331139  88.4344330  14.0566673  54.2365189  89.3599777
  54.8687248  34.4472504   4.2850294  55.6575432  33.9648399   4.5325766
  54.4692535  34.6968803   5.1182995  76.1577606  20.4610996  51.8628235
  76.2343063  19.5340309  52.0884705  75.8134003  20.8728619  52.6553497
  80.0289993  66.6049805  82.3901596  80.3193512  66.7583923  81.4910507
  79.0735321  66.6363602  82.3419495  41.5663109  24.9108887  76.9932175
  40.7996750  25.1977825  76.4970398  41.9549561  24.2207451  76.4557419
  81.5742874   1.3208174  51.2553368  81.3794861   1.9883270  51.9131470
  80.7189102   1.0747930  50.9031563  34.8241882  61.5972023  43.7063446
  34.0280418  61.8885040  44.1507797  34.5149841  60.9880257  43.0358734
   9.0624180  47.6940575  20.9145775   9.8505754  47.9246864  20.4227962
   8.3597460  48.1794014  20.4822273  45.0276642  35.2214508  34.8199844
  44.3213654  35.6300507  35.3204079  44.5805740  34.7404060  34.1236076
  56.6258583  27.5375252  56.3364792  56.7849388  28.0630074  55.5523911
  57.4800339  27.1624546  56.5508080  75.8679581  26.3897800  73.9861908
  76.7997513  26.1777039  74.0411148  75.4227142  25.5669861  74.1886673
   3.4207976  26.8580894   3.4981434   3.1527622  26.0390949   3.0814450
   2.9924552  26.8427429   4.3540168  77.3180313  32.7646179   6.2146249
  77.7800293  32.7237396   5.3772993  77.1879959  31.8489609   6.4613838
  31.8993034  42.5238190  11.4747505  32.2560043  41.6541862  11.2938242
  31.4069309  42.7496758  10.6855803  13.2231045   1.9712192  69.9888458
  13.1656179   2.8867011  70.2623749  13.6256733   2.0053453  69.1210861
   7.8855076  71.0000458  59.5813103   8.0153065  70.3402176  60.2624893
   8.6381855  70.8948135  58.9993858   2.3799336  33.9986610  46.5817642
   2.8489406  34.1880150  45.7691116   2.7855177  34.5725517  47.2316742
  81.6788330  12.4722071  66.4549255  81.6933136  11.7011414  65.8879318
  82.3485870  12.2961941  67.1157379  52.0478020  69.1568375  51.8265419
  51.9704552  69.6253281  50.9954185  51.1712036  69.2004089  52.2085228
   1.3754382  47.3939819  29.6701927   2.1370735  47.9732323  29.6949081
   1.0114648  47.4390411  30.5543442  54.0676346  35.0148964   6.8558383
  53.6312866  34.3008652   7.3205900  54.6181984  35.4311829   7.5190258
  37.7859497  48.2146721  43.2854156  37.5217247  49.0684547  42.9426765
  38.6297379  48.0399590  42.8686028  29.8196564  33.2443352  81.7424927
  29.7376347  32.3241501  81.4919586  29.1255512  33.6880531  81.2550888
  44.5310135  23.6702366  78.3386917  44.6792526  24.1189766  77.5062943
  45.3906593  23.3266468  78.5819778   1.7143595  12.3123035  11.8024635
   1.0255198  12.5125217  12.4362183   1.4725293  12.8091831  11.0208883
  10.6214848  69.2227859  44.8729324  10.9695454  68.3320923  44.8310776
  10.8965063  69.6263428  44.0496826  47.0894165  29.0181656   0.5201632
  47.9088554  28.9916115   1.0141693  47.3628578  29.0252876  -0.3971203
  48.5798340  27.2344990  67.2814407  48.7555923  26.6066837  67.9822922
  48.0252876  27.8996468  67.6892242  71.5462646  47.2781868  73.9097137
  71.4278870  46.7942581  74.7270432  71.5715408  46.6021080  73.2325821
   7.5855699  17.3152771  63.6860161   6.8574414  17.2283230  63.0707932
   7.1664677  17.4635010  64.5337296  11.4941244  39.3834763  66.4922256
  12.2265339  38.9756203  66.0302124  11.4454260  38.9145012  67.3252487
  67.9771500  26.5484867  71.8739166  68.8756714  26.3692455  71.5968475
  67.7611923  25.8286285  72.4667053  66.9713364  69.6628342  55.7260437
  66.4825668  70.4654846  55.5441284  67.8827667  69.8906631  55.5426865
  27.8406067   2.9149532  77.6949310  28.2822514   3.5695653  77.1539459
  27.7238846   3.3440011  78.5425873  40.0641632  65.9605026  36.7604675
  40.2637291  66.7964630  36.3390694  40.5087051  66.0068207  37.6069145
  84.9897308  58.9344139  13.8208275  84.8557587  59.8651237  13.9998913
  84.2825089  58.4953651  14.2933750  24.4077168  51.4550781  25.1430798
  25.2468853  51.3591042  25.5934315  24.5128860  52.2399063  24.6052933
  36.3234367  53.9587860  82.7195511  35.6878204  54.2225723  83.3848648
  37.1747932  54.0829773  83.1390686  20.8972378   7.4504151  61.9951134
  19.9560604   7.5692739  61.8674889  21.1003780   7.9672618  62.7747536
  64.7970886   2.1184754  47.5557785  65.6845779   2.3995271  47.7785110
  64.7663803   2.1572986  46.5998573  15.8207750   0.5333248  20.8114891
  16.4083939   0.8033441  20.1057796  15.0492401   1.0901402  20.7069759
  42.9643021  26.6588078  69.5205536  42.1759682  26.5284595  68.9935150
  43.4906120  25.8751411  69.3621292  10.3348112  71.5988464  61.6741753
  11.2214928  71.3636246  61.9474869  10.2724962  71.2888336  60.7707138
   0.8189138  55.1822777  41.2010574   0.5101827  55.6470032  40.4232750
   1.2268206  55.8606606  41.7392387  27.8814106  56.1386108  21.3251019
  28.7899265  56.3818245  21.5030804  27.3632984  56.7396660  21.8603783
  65.2429276  46.5463448  69.6008606  64.4630585  46.2912102  69.1079788
  65.8980560  45.8876076  69.3704071  70.6079102   1.9171650  78.4984055
  69.8256607   1.7319596  79.0180359  70.3056870   2.5162644  77.8157806
  31.8030434  48.0419617  63.5021477  31.1478558  48.7099571  63.7039871
  32.3749619  48.0278206  64.2695694   2.8042135  54.5790100  10.5179138
   3.7192969  54.2983856  10.5281029   2.7651260  55.2916718  11.1557341
  63.1917877  55.2778320  83.0070038  63.1128845  55.4368286  82.0663986
  64.1340408  55.2949829  83.1745987  65.2005692   5.2204962  87.3668671
  64.8325577   5.3843532  86.4985657  64.9408493   4.3222094  87.5714645
  41.2839317  11.6459513  60.5856400  42.0856514  12.1688929  60.5891304
  41.3055229  11.1689062  61.4152145  80.6978149   9.1005507  21.2890396
  79.7805176   9.1060867  21.5624771  81.0524750   8.2910986  21.6567783
  50.6295280  65.5995026  16.8078308  50.7654686  64.7604675  16.3676453
  51.2985992  66.1753311  16.4377003  31.3934975  37.5709229  61.9049416
  31.5622940  38.1757355  61.1824875  32.2629166  37.3399315  62.2320290
  83.9139481  54.5236435  31.4777050  83.2571869  53.8367653  31.3632240
  84.4605865  54.4653511  30.6941109  83.5242004  12.4095316  35.8819351
  83.1539230  13.2917900  35.9092712  82.8982773  11.8719463  36.3671722
   8.5692682  23.7989731   8.1833792   9.4331312  23.3867378   8.1892986
   8.5266695  24.2537670   7.3422022  49.6219177  63.5791206   4.2620316
  50.4551010  63.9835014   4.0201340  49.8590889  62.6999016   4.5569100
  70.6517258  68.4444122  84.4275970  71.0400391  67.5695877  84.4162292
  70.5271454  68.6631775  83.5040970  61.4771729  37.9119911   8.5867958
  61.8623962  37.1391640   8.9998007  61.3176346  37.6452942   7.6814485
  53.5582619  20.7790222  49.8831596  53.4793892  21.5401974  50.4581604
  52.7137833  20.3344727  49.9570999  21.3025951   6.4134736  72.6331787
  20.7390270   5.6487746  72.7509155  21.2713108   6.8660951  73.4760284
  37.7936211  47.0199165  18.4491367  37.1849632  47.7289810  18.6564960
  37.9720764  46.6032257  19.2921982  76.8601456  51.8723679   3.7139726
  75.9392700  52.0746956   3.8791847  77.1633148  52.5817833   3.1473603
  29.3976154  50.2566719  22.8463593  29.4457569  49.3363800  23.1051502
  28.4683113  50.4760437  22.9134483  41.9274178  46.5159035  25.9450359
  42.4877281  46.9403038  25.2952862  42.0265121  47.0507355  26.7326698
  71.0441132   9.7214537  26.6005630  71.3282852   9.5141373  25.7103405
  71.4705658  10.5548410  26.8001461  68.0642929  17.0779972  87.1837387
  68.0840607  16.1867809  86.8350601  67.7913895  16.9726143  88.0951385
  14.4526396  55.8077965  14.6653061  14.2653818  56.3216705  15.4508619
  13.9523592  56.2387314  13.9723082  46.1092377  17.9842205   9.4102907
  47.0286102  18.0576210   9.6664133  45.6669960  18.6741600   9.9049006
  83.2476501  11.6786728  28.9776783  83.0929108  11.5580788  28.0407982
  82.4350967  11.3906622  29.3936615  64.5964890  39.7996635  87.5577774
  63.7786064  39.5097198  87.9617996  65.1523361  40.0504990  88.2955780
   3.8521152   5.3550735  23.3937950   4.3431220   5.4858384  24.2049942
   4.5031433   5.4607286  22.7000866  83.9083939   6.0109601   3.5068591
  83.9064331   5.7885318   4.4378552  82.9911270   6.1922960   3.3019950
  41.0529747   4.5139909   3.5841069  40.2553177   4.8658729   3.1889436
  41.7631798   4.9938774   3.1580181  71.6351318  38.5992622  56.1593361
  70.7905655  38.1890526  56.3455276  72.0303192  38.0406876  55.4899712
  16.3120117  65.3292999  58.1777191  16.4968357  64.5378494  57.6720695
  17.0317802  65.3855209  58.8062096  57.9824867  50.9442291  14.6158104
  57.5306587  50.8530159  15.4547167  58.7453804  50.3710289  14.6910887
  83.5397263  48.5841370  29.5072956  82.8278427  48.9166489  28.9605904
  83.1112061  47.9895935  30.1230240  42.8868217  51.8517609  29.4915657
  43.1855316  52.7609749  29.5097485  42.4177589  51.7371826  30.3180561
  54.0081100   7.4358382   2.7343419  54.6850624   7.7616162   2.1411824
  54.4480286   6.7622337   3.2529545  25.5016842  44.4888611  29.4013100
  24.6127663  44.6606140  29.0905724  25.7307434  43.6429710  29.0163002
  80.2408752  34.4332809  88.4723663  80.2076797  35.2257881  89.0081482
  80.5303497  33.7485085  89.0752869  35.4610558  37.7290802  44.9451561
  34.8652573  37.7872238  44.1982422  36.3155594  37.9730835  44.5894699
  42.1110115  43.8838425  24.9372635  41.7942696  44.7841225  25.0107555
  41.6835327  43.5429268  24.1515980  49.7229576  40.4077759  28.5435658
  50.6124611  40.6624107  28.2982578  49.3342628  41.2072296  28.8985615
  22.1827774  42.6473198  23.3526039  22.9228649  42.6521835  22.7455807
  22.1889000  43.5204887  23.7447414  80.3892059  58.7575188  61.5028687
  79.8479309  58.5972481  62.2758942  79.9017258  58.3584442  60.7822189
  24.6174755  66.5937805  21.6684399  25.4415016  66.1103134  21.7273903
  24.7502193  67.3619614  22.2238770  59.6008606  12.1378851  58.9692459
  58.9053497  12.6150169  59.4218369  59.4297562  11.2177086  59.1698227
  26.4943600   4.8788991  11.9059076  25.5475483   4.9082880  12.0434408
  26.6270714   5.3083463  11.0608072  72.6293488  27.5252991   6.0113349
  73.5285339  27.5341988   6.3393903  72.6801147  27.0423985   5.1864343
   5.4955688  62.7096138  27.0387726   4.8718710  63.3711281  26.7393799
   6.2421126  62.7987938  26.4463615  73.3985901  16.9353733  58.2972794
  73.2803268  17.5378284  59.0316467  73.4136200  17.4998837  57.5244064
  55.1027908  28.7108593  15.2227612  54.1947403  28.8873615  15.4687700
  55.4108658  28.0842857  15.8775320   5.8630781  66.7774277  88.0283966
   5.3613067  66.0716095  87.6206284   5.9762073  67.4242020  87.3318939
   2.1230052  49.3353195  58.7600479   1.7000248  48.5006485  58.5584526
   1.9976534  49.4458809  59.7025414  22.3379593   4.5787539   4.8840785
  21.8565865   4.1823997   4.1578445  21.6655750   4.7828145   5.5340719
  66.0719986  22.3377094  61.9482269  66.9840240  22.1766319  61.7063866
  65.6222534  22.4680023  61.1133690  22.2066097  40.8679161   4.0337033
  22.4151344  41.2341156   4.8931489  23.0541859  40.7847061   3.5967588
   1.4009472  19.1106720  28.0023060   2.1253154  18.9682980  28.6116123
   1.7041183  18.7319832  27.1771317  33.5872269  37.3398399  11.5689011
  33.9531593  37.3872528  10.6856813  34.3238487  37.0742035  12.1194096
  42.5902023  45.4946365  62.4808998  42.8387909  46.3839035  62.7331734
  43.3353195  45.1724052  61.9737549  62.9876976  59.5931435  64.3460617
  62.5037346  60.2219353  64.8814392  62.5067215  59.5624962  63.5190468
  66.2057877  56.9785919  16.4939861  65.9470901  56.0791779  16.2930794
  65.4714813  57.3326416  16.9956589  68.9192429   6.8178673  51.1211662
  69.8466187   6.9454913  51.3209686  68.6351166   7.6562419  50.7569809
  44.3515816  48.5790825   2.2614596  45.2805290  48.7840385   2.3676908
  44.2991791  48.1373024   1.4139231  48.2386055  65.8087006  87.2871704
  47.6464043  65.5382385  87.9888687  47.8178558  66.5771408  86.9015427
  43.3457680  10.7254581  10.4992123  43.0066795  10.7509832   9.6044502
  43.8419609  11.5388908  10.5905991  32.4773560  39.9966965  55.2188187
  32.4539757  39.2485695  55.8154678  31.8609295  40.6238785  55.5968285
   6.0921073  11.3788757  25.0032692   5.6513839  11.1221418  24.1932812
   6.7015362  10.6626501  25.1817303  73.8480835  45.2248611  21.7686882
  74.4308548  45.9384689  22.0282459  73.0916672  45.3102417  22.3490143
  69.9920807  15.8908434  44.4087791  70.0482254  16.8027325  44.1232338
  69.3413010  15.8992901  45.1106720  49.9659042  68.8798981  23.3060894
  49.8927498  68.4328461  24.1493111  50.8349762  68.6416702  22.9833012
  70.5619583  70.0875168  45.6168900  70.6683350  69.1785889  45.3362389
  70.2011871  70.0244598  46.5012550  25.8401146  33.1410027  16.7321033
  26.0798111  32.7400513  15.8966312  26.0098896  34.0746994  16.6071262
  26.1311340  36.4998894  25.6543522  25.9975014  37.0592918  24.8892097
  25.4044018  35.8775673  25.6259232   5.3797493  70.2659225  53.9122925
   6.0109277  70.1997299  53.1957283   4.6403389  69.7272110  53.6306953
   3.7214730  45.5958023  68.5633163   4.4187508  46.1774483  68.8661728
   3.9088757  44.7572975  68.9852448  22.7199745  38.3934593  72.0455017
  23.5753727  38.2743111  72.4582138  22.3019333  37.5346794  72.1085281
  11.7369814   9.2052803  84.4520187  11.7781191  10.1037283  84.7796326
  11.8654842   9.2887573  83.5071640  23.3186722  12.2740097  73.0507584
  22.8484516  12.9125156  72.5146332  22.6359196  11.8457651  73.5671768
  23.8485050  57.1377335  22.9176826  24.8044949  57.0911331  22.9058056
  23.5973530  57.1406174  21.9940243  83.5852203   3.2439742  52.4913826
  84.1744690   2.8453476  51.8509827  83.1380386   2.5025234  52.8994408
   9.8864412  44.3907700   2.4105425   9.1556492  44.1901779   2.9952955
  10.2672234  43.5377541   2.2017388  63.7826500  28.6791306  41.2373886
  63.4012566  28.5878963  40.3642082  63.1959114  29.2826538  41.6931686
  62.4428558  54.6768837   1.4722127  63.3570633  54.5422707   1.2225432
  62.0460052  53.8083763   1.4056118  18.1147633  49.4647141  55.1224251
  19.0617809  49.5414352  55.2386398  17.8810043  48.6603203  55.5856094
  32.4909286  68.4150543  38.3449669  32.5206108  69.3361511  38.6036797
  33.2137337  68.3169479  37.7251625   0.5619406   3.6954143  40.8307686
   0.5147858   2.7685795  41.0652580   1.4034433   3.9884205  41.1804161
  27.7033272  10.9405317  86.0257034  27.4939098  10.0091572  86.0958176
  28.5603695  11.0254307  86.4434357  65.3363190  18.8289223  51.6150246
  65.5114899  18.4421768  52.4729156  65.9644547  19.5476513  51.5435410
   4.3149056  37.0381432  34.2605629   4.5494514  37.9632759  34.3336906
   4.9959931  36.6617088  33.7032051  33.2897720  15.7146473  15.2784576
  32.4754753  15.9996614  15.6930904  33.6913414  16.5226021  14.9587984
   6.0968270  56.1879158  44.1316528   6.4369493  55.9437065  44.9924126
   5.5804806  55.4310379  43.8546028  44.6353683  23.3643570   6.9062939
  44.3115425  24.1064281   7.4168782  45.2141380  23.7574463   6.2530432
  73.2095490  36.9287605  54.6517105  73.4638062  36.5976791  53.7903328
  74.0076828  37.3251686  55.0010910  10.0327301  41.5307045  28.8112068
   9.9019251  40.7862625  29.3985119   9.5072632  42.2331505  29.1942043
  35.1827545  57.4500275  16.3515186  35.6917839  57.0435982  15.6501369
  35.0918579  56.7622223  17.0109825  55.6811295  35.4802094   9.0161600
  55.9867706  36.2824173   9.4395742  55.5320625  34.8699989   9.7384167
  13.5692444  59.2651367  15.2572088  12.9892416  59.9524231  15.5850334
  14.4006414  59.7107468  15.0945950  33.4398766  55.6479836  47.2149696
  34.2388077  55.1296043  47.3110237  32.7795715  55.0187721  46.9245872
  25.0605259  36.0568123  45.2062683  25.6789837  36.0543976  44.4756966
  24.2712231  35.6461792  44.8532600  42.8247795  25.7479553  11.0077286
  42.0260162  25.2973442  10.7335730  42.5139885  26.5168915  11.4856186
  17.9772472  35.3148499   5.2185531  18.8410053  35.7228813   5.2790947
  18.1478920  34.4455299   4.8560681  32.3696518  59.5341148  62.3292694
  33.0313339  59.7655716  61.6774750  31.5373459  59.7712250  61.9202728
  34.0890884  56.3445778  87.3580475  33.3025208  56.6896629  86.9356003
  33.8544502  55.4507256  87.6074600  65.1742935  69.4775696  59.8633995
  64.5766830  69.0475540  59.2516899  65.9020004  69.7756805  59.3176918
  57.1426468  42.8169136  43.9066086  56.7158585  42.2662849  44.5630302
  57.1737633  43.6859818  44.3065872  65.8915482  22.5513401  23.8753948
  66.8291931  22.6009846  24.0613537  65.5435562  23.3919907  24.1727848
   0.1322010  10.5981045  62.6409454  -0.2954067   9.7417412  62.6460075
   1.0448402  10.4088221  62.4230156  14.0988255  50.2864304  23.4441586
  14.9105272  50.1170731  23.9223747  14.3224602  50.9892921  22.8340740
  80.0973053  55.0675240  65.5791550  80.2607498  56.0018768  65.4506912
  80.5923996  54.6395073  64.8806534  75.0811539   3.5294273  13.2531166
  74.6670151   4.1217136  13.8807487  74.5026245   2.7673466  13.2252712
  47.9556694  41.2800636  54.0662422  47.2930679  41.8060150  53.6183929
  48.7852440  41.5596123  53.6790848  57.0988503   0.8603253  24.9609432
  56.2670555   0.4911889  24.6641502  56.8503380   1.6310436  25.4713039
  23.5129528  12.8163157  79.8345566  23.9351521  13.3228502  79.1407242
  24.1682930  12.1669569  80.0896912  56.3388901  41.3780365  34.8053856
  56.4972305  42.0687294  34.1618767  55.4109230  41.4628067  35.0242996
  42.1246490  64.0944138  19.7499599  42.3920784  64.7627563  19.1190643
  42.8419571  64.0618591  20.3829212   2.4040473  12.8205385  49.1479912
   1.9134561  12.2871952  48.5226135   2.1123059  12.5126047  50.0060654
   1.2839205  47.7388458  10.2350836   1.9133549  47.4034615   9.5966778
   0.9906505  46.9628868  10.7126951  51.9177704  53.9266968  47.6548424
  52.1353378  54.3221779  46.8107491  52.6838341  53.3969879  47.8757172
  71.3259354  49.8217812  47.0015335  70.5620193  49.2483864  46.9391975
  72.0639496  49.2654648  46.7523956  13.1947184   7.3439660  73.2711258
  12.2786779   7.6115789  73.1970596  13.2799101   7.0278325  74.1705856
  76.0466690  67.9587631  58.0340233  76.4700699  67.1373978  57.7843742
  76.7425461  68.6136246  57.9779968  23.7325287   8.3204851  75.4428177
  24.0708351   7.9575567  76.2613907  22.9710388   8.8370543  75.7064896
  48.1043320  12.2818642  63.6663208  48.6518364  11.5093107  63.8064384
  47.2098541  11.9415255  63.6487770  21.4716129  29.5000324  22.9319439
  22.2786102  29.7893238  22.5061550  21.2850800  30.1802788  23.5790176
  76.3532867  31.7364807   2.8353541  76.9275208  30.9714699   2.8705897
  76.9339600  32.4795837   2.9991956  23.4831333  27.4732380  21.3533287
  22.5851192  27.3746910  21.0369549  23.6711254  28.4064903  21.2536793
  45.4645157  34.8244209  68.0980072  44.6966591  35.3736153  68.2561646
  45.5229683  34.7632713  67.1445541  67.4138107   0.7552840  42.4822159
  67.8834534   1.5417438  42.7599716  67.7861099   0.5438005  41.6261215
  53.4731102  19.5543003  81.3913803  53.3073349  19.1031609  82.2191620
  52.9708366  19.0593510  80.7440872  72.2112427  63.7915535  30.4665070
  72.7773819  63.0602112  30.2198086  72.7782822  64.5610580  30.4158688
  53.5850410  29.8658218  31.5934906  53.1604652  30.4447994  30.9604397
  54.5182457  30.0610199  31.5082855  86.5100708  12.3243828  60.4870110
  86.4563065  13.2531614  60.7122040  86.7190247  11.8892269  61.3135757
  34.0052757  56.5988846  29.6400604  34.6664124  56.9668350  30.2263565
  33.6011543  55.8945084  30.1467876  70.8119125   6.8256912  41.3850136
  71.3313599   6.1004615  41.0379524  71.3226471   7.6077476  41.1757889
  39.3800850  55.5977631  48.0241318  40.1000824  55.9972839  47.5360603
  39.8081207  54.9934769  48.6306419  10.1043921  44.5222969  13.1299067
   9.8771000  45.1815910  13.7855749  10.2271652  43.7170029  13.6325569
  55.9234276  45.1815071  83.3022385  56.0268898  44.2881393  82.9744873
  54.9762611  45.3080139  83.3579025  22.4422340   1.4746392   2.7183514
  22.7310829   2.1445878   2.0987003  21.4899940   1.5680901   2.7454882
   8.1900253  62.0818062  66.4756622   8.3362198  61.3245773  67.0426407
   8.4277353  62.8351784  67.0161743  41.8262596  53.1999168  83.0574341
  41.5885201  53.5646095  82.2049561  41.1099129  52.6017647  83.2702560
  67.1097183  51.5354500  79.8259583  67.5646591  52.0865898  79.1891632
  66.4416046  51.0795517  79.3140945  29.0899715  37.9922447  57.8217239
  28.1960144  37.8289528  57.5210419  29.5926914  38.1241531  57.0179138
   2.9354000  12.3878689  14.7463379   2.4046516  11.6567993  14.4299898
   3.5367842  11.9919415  15.3770599  50.5497932  39.1947670   0.9469940
  50.1772079  39.0416565   1.8153077  51.2111816  39.8725586   1.0862758
  51.3261032  44.0580711  34.9753799  51.7164726  44.2907486  34.1329422
  50.3893394  44.2150688  34.8568039  25.7709560  56.3786201  83.0594482
  26.0746059  57.1292686  82.5490036  25.1426659  55.9382019  82.4871597
   3.2366974  12.9968100  86.5622177   2.8595457  12.2341366  86.1236801
   2.6466711  13.7170086  86.3399277  65.1825714  54.9898224   1.5962112
  65.9378967  55.1699638   2.1559167  64.6900253  55.8105202   1.5871576
   2.4866226  11.1667767  58.8094101   2.5117273  12.0876398  59.0694351
   1.5564132  10.9781876  58.6854057  34.3173218  20.8511772   5.5445185
  34.3071823  20.7724743   4.5906134  34.3144035  19.9472790   5.8594656
  34.5671463  33.1705894  58.9354057  33.8147507  33.4637413  58.4214058
  35.2912254  33.1498489  58.3096962  41.6494980   0.6439520  63.5180283
  42.0621452  -0.2184156  63.5657539  41.0020103   0.5612309  62.8179207
  43.4763222  20.4715557  11.9064322  44.3176804  20.9277458  11.9218836
  43.1298447  20.6377106  11.0297461  76.1514969  17.6675034  67.5871124
  76.4232712  18.3916664  68.1509933  76.9649582  17.3524456  67.1930847
  63.0735397  51.8610115  63.7182732  63.8891487  51.3791008  63.8553238
  62.9999275  51.9417152  62.7673264  69.6719437  30.7765846  11.7765560
  70.3499832  30.2875519  12.2427645  69.7509766  30.4881248  10.8672829
   3.7770839  43.9672241  77.4109650   4.3924150  44.6985703  77.4632416
   4.2084432  43.2568665  77.8858871   6.7573638  50.1122971  40.4380302
   6.9676781  51.0149879  40.1989746   6.7250214  49.6448174  39.6033745
  60.7421112  22.7180023  62.9733353  61.0192795  21.8527946  63.2747040
  59.7939224  22.6420364  62.8665657   4.4410577  43.5121460  70.2544250
   3.8776689  42.8346558  69.8804779   5.2388620  43.0475693  70.5072250
  72.4271622  44.4725456  58.9696541  72.6272278  45.3481712  59.3005371
  73.0056992  44.3637543  58.2148705  46.5147667  38.2541771  12.2269735
  47.4588242  38.3802910  12.1316586  46.3843079  37.3148232  12.0972528
  79.7393723  44.3007774  37.8481140  79.9282074  45.2235680  38.0184822
  80.3551483  44.0536995  37.1581879  56.1662636  47.8867760  60.0049744
  55.7638283  47.5747604  60.8154869  55.6285858  47.5081940  59.3094101
  63.4770851  27.3937435   1.6514355  63.2015305  26.5581017   2.0282698
  63.9067307  27.8520927   2.3736231  73.8733521  32.4722137  49.6889038
  74.4035263  33.2014847  49.3674774  73.1218414  32.4432030  49.0967674
  69.3576889  58.9317856  81.6275711  69.2494049  58.6839104  82.5457535
  68.8970642  58.2493706  81.1393356  55.0321350  15.9178019  53.6041832
  55.0660820  15.9190435  54.5607796  55.4103165  16.7595901  53.3500061
  75.4933624  34.6513214  55.4829788  75.8177490  35.4017181  55.9808884
  75.7325516  33.8908539  56.0128021  60.0098305   6.1016293   3.4680049
  60.7104340   6.7142153   3.6918905  60.2637558   5.2819576   3.8921421
  17.9281540  48.5525742  23.4901543  17.9512463  47.6583481  23.8308315
  18.4668770  48.5216637  22.6995506  14.8402205  11.0334644  16.4118557
  14.0936756  10.4401979  16.3285618  15.4477196  10.7514591  15.7280054
  78.9184113  43.8700905  74.8496628  79.2091522  43.5435982  75.7011871
  78.7686539  44.8050232  74.9900284  64.9714813   2.6262743  86.5461655
  64.3471451   2.5918977  85.8214188  64.7808685   1.8440064  87.0638123
  39.2736740  15.5230579  16.6049595  38.8640366  16.1204414  17.2307091
  38.6135864  14.8469696  16.4519100   7.6895051  28.2554321   8.1567497
   7.0114245  28.4027100   7.4973955   7.4000726  27.4738789   8.6275330
  77.9993362  68.6885223  55.3912773  78.1441574  67.9614334  54.7858047
  77.8742752  69.4502563  54.8252792  45.3320312  25.3505993  49.3052979
  45.8691978  26.1154709  49.5118294  45.7920609  24.6174202  49.7140236
  58.7177773  60.5270538  74.7972260  59.2355881  61.2287560  75.1918411
  58.8570747  59.7743530  75.3719101  60.3905983  35.9132690  46.0406609
  60.2355347  36.2613335  45.1625710  59.5148964  35.7682724  46.3989220
  26.0403042  58.5124741  81.1807251  25.6402760  58.7481041  80.3436584
  26.6477375  59.2286835  81.3659286   5.2630615  38.9284859  54.9371185
   5.5057364  39.3691902  55.7514381   4.6797719  38.2211456  55.2122154
  78.0417404  38.9376678  87.7573471  77.9350662  37.9913139  87.8536301
  78.4550400  39.0461998  86.9008179  44.8313217  47.2310524  49.4678154
  43.9909286  47.5971146  49.7434464  45.3648186  47.2311401  50.2625580
  42.7628746  13.2811651  42.2154961  42.3634071  14.0446291  41.7986298
  43.4200325  13.6477489  42.8070984  44.4379044  71.6823120  16.4309483
  44.6867332  70.7806549  16.6342602  43.6538239  71.5978622  15.8884401
  29.1817760  59.5437202  63.1003113  29.5704994  59.7015686  62.2399559
  28.5556221  58.8347092  62.9537964  31.4452000  65.5521164  12.1833344
  31.5215111  64.6650848  11.8318033  32.3365822  65.7839890  12.4439240
  67.5849152  62.3074799  37.5030251  67.8210754  63.2287827  37.3950386
  68.4238968  61.8490753  37.5499382  39.6944542  49.6646500  86.2319336
  38.7892075  49.4506149  86.4576569  40.1434898  49.7257996  87.0750580
  30.3124180  41.9542809  38.7753067  30.5756512  41.2199783  39.3300476
  29.5352879  41.6392212  38.3137512  66.3865585  23.8367081   2.4937441
  66.8477325  24.1006794   1.6975858  65.7135239  23.2276573   2.1899118
  84.7314224  43.4368172  25.7840080  84.4723206  42.9163322  26.5443974
  83.9112396  43.6110992  25.3223171  33.6427307  68.6046677  88.1120377
  34.3142853  68.9261627  87.5104675  33.4448776  69.3545685  88.6730347
  59.9520111  19.2335262  23.7492619  60.5496025  19.6952305  24.3374329
  59.5746384  19.9223709  23.2021637  29.4236393  36.8357697  13.8576727
  29.7172184  36.1271400  14.4302845  30.0094719  36.7913666  13.1019878
  12.0690441  17.5821781  24.5744247  11.3017187  17.2977276  25.0709457
  12.2044144  16.8911743  23.9260254  18.8022480  25.5797787  11.1820450
  19.7476406  25.5540104  11.3297005  18.5022087  24.6964245  11.3962755
  78.5356827  62.1520004   9.2677307  79.3487091  61.7103844   9.0223866
  78.1069565  62.3450470   8.4339695  75.3268585  23.8674030  58.5056953
  74.4098434  23.6129913  58.6086159  75.5614166  24.2627525  59.3452835
  19.8961678  14.8542156  67.3991165  20.3997536  14.6353178  66.6150742
  18.9925499  14.9249554  67.0913849  51.0728111  54.5458565  50.1371307
  51.2711792  54.3789749  49.2157021  51.7400475  55.1729584  50.4160118
  23.8240986  58.5447578  59.0937424  22.9929466  58.8348770  58.7179146
  23.6193428  58.3536377  60.0090446   1.9969959  11.1023998  75.7434845
   2.3725555  11.9825211  75.7674484   2.5377333  10.6283712  75.1117172
  30.3263454  69.4530945   6.1185489  31.2442398  69.7100983   6.0310931
  29.8405113  70.1417770   5.6647711  43.6084595   9.8464117  66.0605850
  43.8820152   9.6093416  65.1744690  42.9643631   9.1796303  66.2988586
  44.2026367   6.2033381  11.7828503  45.0970306   5.8934536  11.9251890
  43.8040428   5.5361056  11.2241411  11.8121986  18.4147186  56.7190666
  12.6406574  18.0156593  56.4532890  11.5767336  18.9868393  55.9886818
  39.7171593  51.7224922  83.9127579  40.0368080  51.3718452  84.7440872
  38.8792038  51.2813988  83.7731323  80.7576218  30.0287971  66.4286652
  80.9379349  29.8414116  67.3498611  79.8363190  29.7963715  66.3128510
  79.9723587  40.3717117  43.1215401  79.1638031  40.8558006  43.2892799
  79.9514618  40.1887016  42.1822319  39.8454742  42.4668503  61.5771790
  38.9734268  42.3743858  61.1934891  40.2952538  41.6534538  61.3484573
  43.1782227  47.7897949  64.8790131  42.2513771  48.0283775  64.8628845
  43.6403961  48.6139870  64.7262573  26.4873295  25.8625908   3.2227323
  25.8389130  26.1507339   2.5802681  26.9786510  25.1739426   2.7748477
  21.2071342  69.7115479  86.0856552  21.5089550  68.9020920  86.4978714
  21.9947357  70.0889282  85.6938705  60.5136757  44.8629341  49.0856743
  59.7894325  44.3340263  49.4202805  60.9015198  44.3274422  48.3935356
  35.7351265  62.6514664  71.9158783  35.4619980  63.5665207  71.8502197
  36.5283737  62.6760941  72.4510269   4.9161139  63.5392647   5.3880811
   4.1723046  63.0565796   5.0275345   4.5532746  64.3905411   5.6328311
  69.1527634  14.5479116  84.7020493  69.4708710  13.9460564  85.3749619
  68.1992340  14.4804029  84.7517319  35.4745216  49.6356659  47.3865585
  34.8471642  49.0542488  47.8162231  36.1033249  49.0450249  46.9718513
   2.7603624  10.7852564  56.2287865   3.0475993  11.6505480  55.9372444
   2.6190472  10.8844357  57.1702881  48.5535622   3.4974353  61.3970795
  47.6088181   3.3545029  61.3399811  48.7178307   4.2451758  60.8225060
  85.1394043  66.0853729  32.5053406  84.6173401  65.3223267  32.2574692
  84.5296555  66.8211212  32.4495583  49.6251984  45.7710075  62.2823334
  49.1833839  45.0125694  62.6641808  50.4717102  45.4330215  61.9900742
   4.8295527  32.2531853  72.8977127   4.8186483  33.1348724  72.5252304
   4.7220764  31.6733170  72.1437683  58.5671768  41.6540565  67.3944321
  58.9305382  41.0051537  67.9970398  58.2569847  42.3601608  67.9613800
  45.1223259  36.1354408  41.7793045  45.7456932  36.0876274  41.0544891
  44.6223679  35.3213921  41.7193260  68.2074814  39.4100456  61.6012459
  68.2862396  39.8554840  60.7576752  67.6857986  40.0058556  62.1389198
  23.8656178  10.0963697  88.3836212  24.5077438   9.4433641  88.6619949
  23.6329956   9.8384686  87.4916534  15.6899748   1.0207865  65.5311432
  16.2233124   0.3879397  66.0120697  15.0484838   0.4865489  65.0628433
   2.9988165  12.0121021   7.4333644   3.2043493  12.7067060   8.0590744
   3.1760986  12.4010839   6.5769200  40.2528343  47.4915962  17.1251240
  40.7899742  47.3996658  17.9120579  39.3706551  47.2505646  17.4077816
  73.7008820  41.1957474  34.9722595  74.4209671  40.5855026  34.8131599
  74.1072617  42.0614624  34.9319763  30.4412651  46.6148720   4.6852007
  30.9365578  47.2823410   5.1599669  30.2180748  45.9638252   5.3504481
  29.1562634  33.4081764   3.6333566  29.3865166  32.5132713   3.8830702
  29.4107094  33.4729767   2.7128725  81.1829376  18.1256714  26.2085819
  82.0375290  18.5537720  26.2599602  80.8043213  18.2413597  27.0800724
  50.1029091  12.1980772  31.5909805  49.6208191  12.7244282  32.2287712
  50.7171898  12.8122911  31.1889477  83.0631790  67.9943237  52.5121727
  83.3923950  68.4113846  53.3083572  83.1318436  68.6727753  51.8404388
  84.9563141   2.0005894  78.5440292  84.1780853   1.7037971  78.0723190
  84.7098160   1.9514462  79.4676361   5.0018268  24.6153145  60.2578964
   4.5519638  24.5442047  59.4159966   4.5690918  23.9691868  60.8160133
  54.0203476   6.0641189  46.4895515  53.6411324   5.7550783  47.3123055
  53.5423584   5.5868669  45.8113289   0.9007717  71.0972443  58.0928192
   1.3746917  71.9053345  57.8962936   1.4916495  70.6057663  58.6633835
   6.0363598   2.6800458   5.7485738   5.3162551   3.1542249   6.1643085
   6.7886767   2.8393176   6.3185596  48.0450821  69.4091721  75.9721680
  48.3971214  69.7807007  75.1632996  48.2558708  70.0567703  76.6447906
  23.9416771  53.6896896  66.7430496  23.1476898  53.1553535  66.7257004
  24.4312477  53.3667107  67.4995117  38.2613792  31.9393425  10.2920856
  38.6107292  32.7579956   9.9399605  38.6918831  31.2551117   9.7795172
  54.9907227  48.2524948  79.8318939  54.1288986  47.8517036  79.7184753
  54.9974480  48.5528564  80.7407227  61.9042397  34.4296570  81.4138107
  61.1533966  34.0048752  80.9990387  61.6003380  34.6457520  82.2953873
  64.0788727   4.3814120   4.5946202  63.3452530   4.1069074   5.1447830
  64.5800323   4.9822936   5.1459937  66.7987823  30.6239872  60.0080299
  66.9512711  30.2491722  60.8754921  66.2213593  29.9960079  59.5739098
  76.8471832  19.1347351  35.2014618  76.9098511  18.7255077  36.0644989
  77.2189865  20.0083542  35.3230629  19.1867104  65.1116791  41.4187393
  19.8292789  65.7676315  41.6890526  19.7127113  64.3661270  41.1294174
  72.5749512  40.2329063  45.8665733  72.9251099  39.9219894  45.0317383
  72.3309250  39.4351730  46.3359375  28.0135479   2.9312067  13.6319456
  27.6489887   3.4691119  12.9291039  28.0484943   2.0481627  13.2641907
  18.6095314  15.3634777  74.6082001  19.0840836  15.3377590  75.4390869
  18.2460003  16.2480125  74.5672836  40.3809052   8.4454699  73.7209244
  39.8653526   8.9972782  74.3090973  40.2394753   8.8231583  72.8528366
  54.2216225  28.1400928  62.2475281  53.8496704  28.3154049  63.1119080
  54.6537476  28.9582405  62.0023079  40.7564087  26.1226406  14.2906294
  40.3896599  26.1460075  15.1744738  40.3952904  26.8979816  13.8608961
   1.1667529   7.2063365   9.1993876   0.8716052   7.3436127  10.0995407
   1.6072743   8.0230618   8.9645844  48.3232536  39.7704582  47.1181412
  48.3045235  38.8458786  47.3651962  47.4635277  40.1042976  47.3743629
  43.7130890  15.9588079  18.8482647  42.8307762  15.8689108  18.4881630
  44.2495956  16.2288513  18.1029663  21.1948986  55.9331055  35.3670273
  20.8005314  56.6849251  34.9249077  21.3030453  56.2184219  36.2742920
  54.3377419  19.1385269  18.9288521  54.6185570  18.3771458  19.4364643
  53.5520401  18.8431358  18.4687977  54.2973328  70.8475342  27.1283264
  54.6839943  71.3013382  26.3794689  54.1694908  71.5331497  27.7839375
   1.2947012  34.5250359  11.9374304   2.2107518  34.2966957  12.0953693
   0.8590319  33.6843300  11.7973022   8.8351831  51.6111069  82.6858368
   8.6500206  51.6938858  81.7503738   9.4454384  52.3243408  82.8732376
   3.6751595  50.9369392  30.8816261   4.0472078  50.0678177  30.7318230
   2.8483915  50.9299431  30.3993015   7.4482722   1.0191277  85.5160141
   7.6135216   0.7137668  86.4080200   8.1496105   0.6279091  84.9951477
  47.8706703  56.3488884  14.6005163  46.9170723  56.4036446  14.5381441
  48.1461182  55.9954758  13.7546673  55.6492882  33.8964233  38.3947449
  56.5426407  33.6030197  38.2156868  55.6996422  34.8517036  38.3610229
  27.1329498  65.9706345  42.0687561  27.6580009  65.1772842  41.9631233
  27.6974449  66.5678558  42.5595703  70.7055283   2.1561139  66.2835846
  70.4539490   1.4757062  66.9080734  70.1623383   1.9873110  65.5137253
  59.5122032  54.0331917   4.0747972  59.9108124  53.3477669   3.5385733
  59.8827324  54.8481674   3.7360449  86.7070236  27.6738644  81.6119156
  86.0656662  27.9749584  80.9683075  86.5968781  28.2667713  82.3552628
  75.7240219  37.2967567  40.3956299  75.3058167  36.4367905  40.4379883
  75.9727783  37.3971176  39.4767799  26.6510944  68.2111969  79.7885361
  26.5706253  67.6540680  80.5627213  27.3168640  68.8566132  80.0260620
  78.3882523  53.9876480  67.5718079  78.5567017  53.1096306  67.2298355
  78.9178467  54.5646820  67.0215378  59.9293442  10.1286621  85.3324127
  60.4663086  10.0248375  84.5468445  60.1599922  10.9951630  85.6673889
  81.0511322   5.7804093   0.5222121  80.9537277   5.3103776   1.3503516
  81.2380676   6.6831636   0.7797418  38.7331047  48.9096909  39.9225769
  37.8043747  49.0714149  39.7566299  39.0919838  49.7712135  40.1352158
  84.2653809   8.6847486  20.2095432  83.3727646   8.5816708  19.8796349
  84.3719482   7.9715219  20.8389740  23.0532494  42.6352959  71.3301773
  23.1485519  41.8643723  70.7708664  22.7246075  43.3171463  70.7442474
  37.0068665  60.5777664  62.3115082  37.8756561  60.4494705  61.9307480
  36.9656372  59.9484634  63.0315857  55.6105423  34.2730370  55.3212585
  54.9170799  34.6527748  54.7816811  56.3968124  34.7629356  55.0804100
  32.1115761  56.8792610  85.4848251  31.8663273  56.4329414  84.6743393
  32.0691948  57.8105392  85.2676849  41.1701355  50.3911324  32.5064545
  41.3110695  49.5327377  32.1070442  42.0368080  50.6578865  32.8129654
  51.0060844  37.2044258  22.1298275  50.6125946  37.2608109  23.0005836
  51.9161644  36.9572525  22.2938042   5.2287993  48.7283630  30.7858677
   6.1743822  48.7997780  30.9162693   5.0715566  47.7899017  30.6819324
  63.4972115  60.3035965  51.4130363  64.1403580  60.8935738  51.0199356
  64.0223694  59.6532021  51.8793221   7.4773512  63.4127312  25.0189533
   8.1989822  62.8160553  25.2175941   7.8423829  64.2859879  25.1617947
  75.0422745  57.3269043  68.4737625  75.6732330  56.9631882  69.0949097
  74.2117081  56.9109497  68.7047958  74.4809952  29.0370197   3.6409712
  74.0045166  28.2259026   3.8178518  75.0189133  28.8366394   2.8749893
  56.1362038  21.3114033  66.3828964  55.3536491  20.7626591  66.3307419
  56.8204346  20.7937641  65.9585037  16.1575985   2.1431510  14.8105965
  16.9930115   1.6770837  14.8437605  16.3869781   3.0578778  14.9745874
  57.5619087  59.0488701   7.9196858  57.3835716  58.4749260   8.6646786
  58.2007294  59.6799889   8.2510891  19.6045990  55.4998169  19.9716759
  18.6528683  55.4725723  20.0701580  19.8792572  56.2460785  20.5044899
  71.5912094  34.8614197  29.2158413  72.2863998  35.4356804  28.8946457
  70.7884674  35.3701668  29.1017513   4.6302929  62.0430946  86.2064514
   3.9515119  61.3807793  86.3361588   5.4477668  61.5459290  86.1782608
  27.8581905  21.2344341  86.6422272  27.7048321  20.3355064  86.9331589
  28.2725983  21.6614361  87.3920059  85.6904144  39.0415421  34.2775536
  85.4275131  39.3952866  33.4278603  86.2840958  38.3217087  34.0639954
  10.8658686  26.6282330  70.2570572  11.3217421  26.2231636  70.9948502
  11.4362936  27.3488255  69.9894867  76.3558578  46.1276360  55.8411484
  75.4550781  45.9524269  55.5688782  76.8889923  45.8565712  55.0938034
  84.6217041  63.7330666  10.1660013  83.8949966  63.1183586  10.2673149
  84.5779800  64.2862549  10.9459381  50.7627411  50.8368454   3.8847358
  50.7619934  51.0784149   2.9585204  50.5437927  49.9050331   3.8894079
   6.4729123  17.4496212  12.9683962   6.6723514  16.6896172  13.5150681
   6.4070153  18.1780987  13.5858183  33.9503098  48.8643951  68.2186127
  33.9665756  48.0442772  68.7119446  33.1347084  49.2883606  68.4855957
  56.7440643  45.3148193  87.2892685  57.5896072  45.3680763  87.7347565
  56.9632301  45.3241997  86.3575439   6.4287019  46.8460083  41.6132851
   7.2377462  47.1711349  41.2183533   6.2775183  46.0014877  41.1888275
  62.5543060  21.2751789  14.5516710  63.4680061  20.9902573  14.5659342
  62.5171051  21.9254093  13.8502092  79.8834076  52.3058052  70.4603653
  80.4457626  51.5382957  70.3558884  79.0393753  52.0352898  70.0988846
  84.1830139   5.9793272  24.5206852  84.5092468   5.1271172  24.8097229
  84.2185211   6.5277443  25.3043995  46.5116348  25.1738663  45.1384621
  45.6694450  24.9567451  45.5382233  46.7705460  25.9951267  45.5564690
  49.9521370  31.4465656  87.8785629  50.0534477  30.4961967  87.8259506
  50.6274948  31.7921028  87.2948380  44.7185707  16.2146549  22.9011574
  45.0544090  16.1785202  23.7967777  44.4609795  15.3137846  22.7054214
  77.2723846  25.5532799  20.7152882  78.1483459  25.1708183  20.7667160
  76.9846573  25.6161804  21.6260509   0.2567358  47.6374245  78.6352997
   0.6346986  48.0620651  79.4054031   0.7892535  47.9499893  77.9038925
  64.1016388  35.1077347  28.8876858  63.6411095  35.4502678  28.1216469
  63.8532448  34.1840134  28.9232559  38.4618225   2.2185090  21.3410339
  37.6895027   1.6674560  21.2141743  38.9647636   1.7727447  22.0226307
  57.4053345  33.7516098  24.7441254  58.1711807  34.2904701  24.9424648
  57.7682610  32.9452019  24.3777637  33.4896355  67.3311844  62.8245697
  32.9906502  67.7204895  63.5426826  32.8310623  66.8942566  62.2845650
  63.2042694   4.4003272  55.8851166  62.8541451   3.8096344  55.2182388
  63.7779694   3.8483818  56.4165840  18.7707806  60.3048706  76.5941162
  19.2702274  59.4890900  76.6299973  19.3966236  60.9550285  76.2749863
  11.6823587  15.2709303  80.7523727  11.6670761  16.0865574  81.2531204
  12.5996771  14.9979143  80.7672195  63.0515251  66.1058807  38.8020248
  62.4766312  66.6056900  38.2224426  63.0684433  65.2270966  38.4229660
   8.6554098  51.0222816  79.5897446   8.8311272  50.1935005  79.1442337
   7.8210502  51.3178406  79.2254333  43.6087189  66.7564697  87.8424301
  43.7907524  66.3887405  88.7072220  43.9736328  67.6407318  87.8765259
   5.9720078  48.4495583  61.2570992   5.7959895  48.4715958  60.3164787
   5.1515226  48.7322350  61.6609917  53.9841118  67.0292587  50.1530952
  54.0031204  66.3822403  50.8582420  53.5284348  67.7816391  50.5306091
  66.4030762  36.8765526  78.5974808  65.5076447  36.6528587  78.3437119
  66.3331070  37.1408844  79.5148010  51.4823112   7.6795349  57.0994492
  52.3877144   7.9265785  57.2877197  50.9630585   8.1674204  57.7386475
  61.8754845   5.2048082   6.3608861  62.3464050   5.8895688   5.8859463
  61.8140450   5.5341620   7.2575369  82.9845734   4.8506966  81.3638687
  82.9274368   3.9268699  81.1199188  82.1274261   5.0528388  81.7389297
  33.0456123   1.9711387  17.6650715  33.0795135   2.1911020  18.5960369
  33.1271858   2.8130088  17.2169285  52.6041718  14.9674034  57.4455986
  51.7664413  14.6733713  57.0878448  52.3855896  15.7450571  57.9591255
  13.0968246   7.4192863  68.5966721  12.7001553   7.4026690  67.7256927
  12.3608847   7.5598493  69.1923828  71.8072281  44.1675606  78.8138962
  71.8431320  43.2387085  78.5854721  72.5666809  44.3044662  79.3802185
  45.8200188   8.3640051  16.0893173  46.4208679   8.2413235  15.3543634
  46.3761749   8.3035917  16.8660202  16.6155148  49.3403816   5.1105905
  17.2046261  50.0047798   5.4680185  16.2058411  48.9447021   5.8798995
  74.0338440  51.6389236  72.0666733  73.8071518  51.7770958  71.1470184
  74.3944550  50.7526665  72.0939178  60.2326813  66.2985077  44.1392403
  60.7761688  67.0406799  43.8746147  60.1076546  66.4168854  45.0808258
  16.1487236  58.3325615  33.1597137  16.6618404  58.1918602  32.3640099
  15.6281385  59.1140442  32.9739494  46.0956230   0.7335457  12.7411022
  46.5907974   1.0203004  11.9737673  45.1879692   0.6946880  12.4396286
  70.9640503  20.8599377  36.3371315  71.3315811  20.9728603  37.2137146
  70.5649185  19.9901085  36.3549957   2.4031916  55.1220016  62.2753677
   2.1164176  56.0289001  62.3827209   1.6262119  54.5998650  62.4751396
   8.8210611  60.0288506  46.9695091   8.7131290  60.5402222  46.1675873
   7.9273953  59.8298607  47.2487869  78.5949936   1.0991088  21.1754875
  78.3669357   1.3105406  20.2702160  78.1245804   0.2855287  21.3572292
  78.1573715  33.8451462  20.4976807  78.8994522  34.1583061  19.9804993
  78.1051941  32.9100571  20.2998905  46.2910042  34.6579285  11.2386446
  46.8969345  35.0926361  11.8387356  45.4879990  35.1761665  11.2920055
  42.7280045  47.7348061  55.5353394  42.6312027  46.8464317  55.1923294
  41.8885117  48.1557999  55.3502769  22.2988758  70.4203262   0.2117911
  21.5338612  70.7592010  -0.2531280  22.8787003  71.1765594   0.3020340
  82.4383850  54.8163452  77.1736755  81.8390274  55.2177391  77.8028793
  82.4519501  55.4242477  76.4344254  55.8831825  63.9890404  58.1083069
  55.3407021  63.2337723  58.3352928  55.2779808  64.7305527  58.1191864
  59.8017197  55.3999672  73.2992477  59.3311043  55.0202942  72.5572281
  60.7099609  55.1255798  73.1725769  40.9743042  70.5440903  78.1300583
  41.1472778  69.6575470  78.4468384  40.1240005  70.7712479  78.5063705
  75.2194290   7.2156763  36.2945137  75.4916382   8.1327868  36.3268471
  74.4519196   7.2136602  35.7225380  56.2795830  31.8668919  59.1667938
  56.2218704  31.1978722  59.8489304  55.4526482  32.3448868  59.2295418
  81.7729340  40.4430656  14.5504532  81.3054047  39.7125778  14.9554653
  82.6684036  40.3664055  14.8798294  68.7454834  25.3509026   3.9888055
  68.4446640  25.6838665   4.8343062  68.0696335  24.7274952   3.7226892
  81.9155579  46.4881592  42.8428612  81.0381165  46.1781960  42.6187019
  82.5030823  45.9434166  42.3191185  43.5973854  46.1118317  12.1584196
  44.4198456  46.5982170  12.1016531  42.9779015  46.6277771  11.6424017
  71.2732849  36.8717957   6.4374142  71.8641586  36.9110260   7.1894474
  70.3972168  36.9373245   6.8174748  41.0980949  63.3537483   1.2795981
  41.0002785  63.9582405   0.5439011  41.2459488  63.9201355   2.0369446
  81.8497696  65.8326416   3.1246183  81.2538986  65.9183273   2.3804214
  81.3825912  66.2405472   3.8537164  57.6493568   5.2290478  69.1433868
  57.5974274   4.9991412  70.0711136  57.5275955   4.3983846  68.6835938
  29.8679924  53.3535500  73.8851700  28.9309750  53.2675018  73.7096024
  30.0670795  52.6321793  74.4820099  11.6826363  51.3573380   8.4338541
  11.3685732  52.0521011   9.0125580  11.5314064  51.6944885   7.5508528
  41.8139420  30.5669632  19.3116703  42.7638550  30.4502296  19.3281288
  41.5738983  30.7067490  20.2276783  64.8005142  31.9236794  35.6111145
  65.1762161  32.6322746  36.1335831  64.5725098  31.2492542  36.2509575
  72.2382889  59.3629570  53.0181999  71.6052628  58.6496887  53.1003876
  71.9299774  60.0288353  53.6328430  48.2196388   5.3551164  16.2894917
  48.0718307   4.7829447  17.0424881  48.6413994   4.7923236  15.6401739
  47.5419273  62.7781105  40.7480659  48.2504120  62.2501717  40.3798828
  47.6527672  62.7002831  41.6956367  66.2892685  53.6934814  35.2505074
  66.3411942  53.1598358  34.4575615  65.9242020  54.5273628  34.9545288
   5.8616986   3.6911957  11.6774120   6.7779307   3.8576648  11.4559650
   5.4385200   4.5467052  11.6049194  51.9780960  55.4498062  37.4982986
  51.6779823  55.6700821  36.6164551  51.5390625  56.0832748  38.0659256
  72.3595352   0.2419248   5.6153803  72.0078583   1.0479162   5.9934449
  72.2399521  -0.4159702   6.3002925  84.3458405  47.2625694  80.8917694
  85.1868362  47.6599846  81.1176529  84.1731262  47.5590820  79.9981918
   4.2340136  56.7697182  16.1249294   4.1179991  57.6864395  15.8751450
   4.9260187  56.7873383  16.7860260  77.5554428  14.1353884  45.8545570
  78.0448914  13.5595512  45.2671165  76.6517639  13.8253069  45.7958527
  31.6187801  64.4075851  25.2926941  31.6206398  65.3209610  25.0063782
  30.6923847  64.1691208  25.3266678  29.2199097  65.9367371  55.2349167
  29.5056934  66.6839752  55.7604637  28.6889172  65.4117813  55.8338280
  72.6451340  59.5295258  44.8472595  71.7301178  59.7880707  44.7370682
  72.6908569  59.1846771  45.7390137  29.8220291  31.1343708   4.8865452
  29.3527431  30.4130211   5.3056598  30.7469749  30.9115429   4.9916902
  83.2905350  18.6314144  55.1049309  82.5613098  18.8987656  54.5454788
  83.0414581  18.9269543  55.9806290   5.3998656  39.0490036  44.5742455
   5.7598615  39.2325096  45.4419746   5.3101883  38.0963554  44.5487061
  40.8483200  45.1700859  73.3969040  41.5838928  44.5970459  73.6132202
  41.0937233  46.0216827  73.7585526  73.1169968   2.2911375  25.8375378
  73.1901093   1.9466612  26.7276058  72.8854904   1.5304780  25.3045864
   8.0650682  38.2724419  53.3518066   7.8506198  37.8409042  54.1788635
   8.4266262  37.5752640  52.8045845  11.4030952  55.1757736  22.8655186
  11.4735699  54.2296638  22.9925823  11.7760658  55.5528870  23.6623306
  78.1408081  28.7294788  81.2195663  78.0904465  28.0384769  80.5591049
  78.5056686  28.2968273  81.9915237  77.6598587  63.4912224  72.9885101
  77.1755447  64.3009949  73.1495514  77.0355301  62.9249077  72.5349350
  20.2664242  38.8012543  13.4882698  20.2493496  38.0537033  14.0858564
  20.0341473  38.4321060  12.6362076  43.6460457  60.8573608  39.4849548
  43.5830650  61.5109863  38.7885094  42.8391609  60.9653473  39.9884529
  32.1610298  34.9170799  65.3490829  31.4391060  34.2929268  65.4231644
  31.7358265  35.7745399  65.3350220  16.5785809  11.9636126  18.3438034
  16.1474628  11.3932810  17.7073345  17.4434662  12.1301012  17.9689827
  51.9306755  40.3641624  45.5749130  51.4759369  39.5431099  45.3869820
  52.4568520  40.5309601  44.7928963  71.7036285  43.3862839  20.2419796
  72.1037216  43.7865868  19.4700260  71.3255081  42.5684395  19.9188938
  21.6852322  11.7327948  88.7711639  22.6066971  11.6086502  88.5437393
  21.3764648  10.8576956  89.0058899  68.6893387   5.6375966  43.2280922
  68.3122864   6.3929219  43.6792526  69.4890671   5.9745417  42.8241959
   1.1838588   0.6665998   6.3342991   1.3469412   1.6092677   6.3024693
   1.7841668   0.3422084   7.0055904  10.0969725  40.3546143   0.3933491
   9.4918661  40.7603874   1.0141746  10.5273342  41.0924149  -0.0387018
  26.2996502  52.2074623  19.2975750  25.8466568  52.8245506  18.7229195
  25.8237839  51.3842354  19.1876297  18.9470234  45.8829956  59.9058304
  19.5784016  46.5928345  59.7886810  18.4082184  45.9087715  59.1150970
  27.8107834  23.4476109  75.1214447  28.4093189  22.7264233  75.3160629
  28.3240891  24.0446091  74.5770721  50.9824677  18.7722340  85.2987289
  50.5274124  18.0284271  84.9038773  50.3050613  19.4407940  85.4006271
  74.3226166  19.2835884  30.8532524  74.8021927  19.2184772  31.6790867
  74.9986496  19.4489861  30.1960983  43.1277695  26.7251740  65.0884018
  42.2965660  26.3359890  64.8166122  43.6260147  26.8172474  64.2762985
  50.0801697   5.5382285  21.9064770  50.0546989   4.6645474  22.2966862
  49.4466553   6.0456891  22.4137955   6.9683790  57.0480194  60.3730469
   7.9239097  57.0615044  60.4279213   6.6863441  57.7755585  60.9274635
  59.0205688   3.8431253  72.7317886  58.3553200   4.4327564  73.0867767
  59.6911659   4.4256339  72.3751144   7.9480891  14.2642975   1.1760353
   8.4904575  14.6802025   1.8461789   8.5342131  14.1553907   0.4271497
   0.2679502   0.8368772  14.7666750   0.0756270  -0.0748578  14.5476246
   0.7793320   0.7864358  15.5742493  38.9349747  45.8095436  26.3157120
  38.8985786  45.1628914  27.0205154  39.7986641  46.2124748  26.4047184
  70.8784256  50.0178032  25.7293739  71.6822968  49.4986153  25.7077961
  71.0427246  50.7390099  25.1218376  31.1802750  53.6676483  32.6142082
  30.4834461  53.1336594  32.2327423  30.8057518  54.0041656  33.4282837
  65.0104599   3.3264747  66.5723953  64.4363785   4.0657439  66.7727509
  65.7727203   3.7226980  66.1502609  66.8478317   7.6190004  26.2936592
  67.3007355   8.1485968  25.6374302  65.9724350   7.4847336  25.9304962
  86.1727219  58.1778183  56.0761032  85.2348328  58.3568344  56.0086250
  86.5534134  58.6016922  55.3069267  80.5652695  40.8731461   1.9960371
  80.7995071  40.5284348   2.8577459  81.0463181  41.6979828   1.9291848
  59.5806160  56.9819183  81.9826202  58.8774261  57.0801392  81.3406601
  59.2138901  57.3311653  82.7948837  10.6675014  15.5261745  76.2500076
  10.6076031  14.8132076  76.8858719  11.5927124  15.5524054  76.0060272
  75.8212357  38.9462624  71.0088654  76.1224060  38.2891235  70.3814163
  76.3173752  38.7611694  71.8062515  67.3515854  25.3490753  14.1029139
  68.1766663  25.1688061  14.5534554  67.6144180  25.6488266  13.2326813
  76.2093811  61.2852364  15.2461872  76.5143585  61.9525299  14.6314192
  75.3657684  61.0022163  14.8934050  67.7399750  54.8739777  37.7803345
  68.4161987  54.3071709  38.1514015  67.5496979  54.4908638  36.9240341
   1.3561106  24.9538307  14.2911625   2.2273173  24.7406979  14.6255350
   1.0943599  25.7318859  14.7834520   1.8794062  45.8521843  42.4655495
   2.2857559  46.1893120  41.6671410   2.3143342  45.0135994  42.6199608
  59.7593575   7.1860976  60.0618629  60.1794853   7.9480171  60.4608650
  59.1366272   6.8826447  60.7224388  58.0692062  45.0205917  84.8735657
  57.3058319  45.3001747  84.3682709  58.8162994  45.3909187  84.4035187
  29.8922024  11.7282743   4.7977767  30.1410885  10.8230915   4.6108747
  30.7198257  12.2091827   4.7974162  75.4002151  22.5497589   3.4689937
  75.6182785  23.1202278   2.7319407  76.2284012  22.4326286   3.9344137
  78.1380844  29.6366940  76.1564178  77.8245621  30.1574211  76.8958664
  77.3420639  29.3707485  75.6961441  43.4263573  14.5165186  57.8804131
  42.6422005  14.7226925  57.3716698  44.0493660  15.2057552  57.6500931
  43.1499481  59.1770706  47.3658257  42.7606125  60.0317383  47.1808929
  43.3542252  59.2041435  48.3005829  51.8957138  48.9649887  16.0730324
  52.1634636  49.8283157  16.3880062  51.9474335  49.0312653  15.1195316
  72.5103912  44.6520386  34.9630814  73.3779602  44.4508057  35.3138618
  71.9589310  44.7636833  35.7374573  46.9436569   2.5239389  25.0595341
  47.1794853   1.5994565  24.9823971  47.7299728   2.9954522  24.7845554
  37.3490791  20.3542156  78.3717880  36.9478531  20.7354336  77.5908127
  38.2713699  20.6035843  78.3132401  84.2588120  66.2365189   1.4384243
  83.3852386  65.9086075   1.6519344  84.3392563  67.0478745   1.9398834
  52.7307205  58.4305687  22.4823494  52.4044380  58.1092606  23.3229027
  52.0193901  58.2550240  21.8663750  80.6851578  34.9125938  23.1655006
  81.0660782  35.0661201  24.0301151  79.8722076  34.4393082  23.3425446
  65.4961395  59.1160278  53.7694664  66.2062683  59.6885262  54.0596428
  64.6990204  59.5506210  54.0727119  67.3743820  55.4592743  19.9127445
  68.2719498  55.6948738  19.6780014  67.0918808  56.1544952  20.5069599
  82.4628296  25.4358387  77.8898163  83.3070831  25.8853016  77.8517380
  82.6750259  24.5528126  78.1922607  68.4355392  13.7916975   9.9010143
  68.1188431  12.9096661  10.0958395  67.6952972  14.3627596  10.1063404
  62.1291008  51.8029137   8.8682680  62.7744751  52.1244545   8.2387171
  62.4619141  50.9463348   9.1361198  40.4875908  16.6890450  73.1054993
  40.2349968  17.4706135  72.6139908  41.1651497  16.2773895  72.5691299
  40.1109428  49.6237869   9.3053894  39.3803177  49.0139465   9.4079199
  39.7099571  50.4224930   8.9625874  13.6223860  64.6325760  51.3027344
  13.1367826  63.9782639  51.8050232  14.2066689  64.1202774  50.7438164
  71.0724792  40.7644424  10.2993011  71.6825638  40.2040100   9.8197756
  70.8072357  40.2389374  11.0541039  29.1568317  28.3268681  16.1097355
  28.7627029  28.5124664  16.9620533  28.9144707  29.0760899  15.5655298
  40.3028221  40.9627151  18.6566315  40.3943481  40.0551109  18.3666191
  40.8568649  41.0225067  19.4348927  79.6468430  35.2662621  56.3415718
  80.5294189  35.4684372  56.6520767  79.2809219  34.6939468  57.0159531
  49.9653053   8.8011227  67.1592331  49.4060020   8.0492849  67.3545609
  50.1079636   8.7543249  66.2138824  32.1201820  17.1534576   9.8439150
  31.9143333  16.5030499  10.5153522  32.5387306  16.6515121   9.1445599
  35.3658409  44.8896484  47.3637581  35.4094086  44.6861153  46.4294586
  36.1015663  44.4124146  47.7474098  40.2809258  29.8429642  12.8893394
  40.6013412  30.7236366  12.6944466  40.7877884  29.2707386  12.3132477
  53.7250977   2.2908423  35.3385544  54.1827202   1.4940172  35.0704460
  54.3610954   2.9918270  35.1958771  66.7292938   5.4195118  18.7100697
  66.1423569   4.7475595  19.0567989  66.2123032   5.8664322  18.0398350
  11.5449390  66.7814865   8.6162119  11.4328737  66.1562271   9.3322592
  10.9583168  66.4660187   7.9287605  11.6850491  67.2423019  40.8414459
  11.9375238  66.6809692  41.5745163  11.5460777  68.1033173  41.2358742
  55.2936592   2.6152420  44.0177078  54.9543495   1.8133976  43.6200333
  54.7027130   2.7876995  44.7506943  54.8574829  18.2767658  13.7087307
  54.8780212  19.2193012  13.5430946  55.5321236  17.9175606  13.1324816
   6.9134793  54.6380806  76.4595413   6.2149482  55.2886276  76.5307922
   6.9078097  54.1871147  77.3038330  51.8459854  68.5185699  43.1520920
  51.8274498  67.7905579  42.5308990  51.1145477  69.0769577  42.8885765
  26.8836098  49.5182686  27.4530640  27.0933361  48.5850372  27.4165840
  27.5274448  49.9311218  26.8775101  62.7769508  43.9045143  40.2014427
  62.3301697  43.0594101  40.1523094  62.5192642  44.2626381  41.0508957
  13.1466103  66.0135193  11.5112877  12.9336739  66.8792267  11.1628094
  14.1022043  66.0058289  11.5661688   0.9639217  71.5044098  87.9867706
   0.9150446  71.0401535  87.1511230   1.5405432  70.9645004  88.5273590
  84.1526871  51.0971756  67.5781021  84.8338242  50.4552116  67.7784882
  84.5329208  51.9375648  67.8338242  68.5255280  65.0457687  63.1732445
  69.2013397  65.0688171  62.4957581  68.9427032  64.6038055  63.9127502
  18.2084293   4.7926221  78.3882980  18.8676758   5.3951554  78.0439453
  18.3518047   3.9789891  77.9048996   2.4942541  43.8890152  21.9392014
   2.2987590  44.0702209  21.0198669   1.9222728  44.4815674  22.4270058
  47.9994659  45.6227570  58.3475151  48.6734123  46.2994308  58.2831917
  47.1816406  46.0798378  58.1513634  63.3349724  27.3559837  88.0236893
  62.8604507  26.5521450  87.8117828  63.6707535  27.2098370  88.9080658
   1.7831957  62.6256409  39.2223320   2.4135756  63.0896416  39.7732925
   1.6695585  63.1921196  38.4591675  71.3060074  48.6514931  61.8749237
  70.9528885  48.6807251  62.7641296  71.4646912  49.5682564  61.6499748
  62.2070999  11.1366844   0.1979458  61.8607979  11.6025305  -0.5631679
  61.5291519  10.4971676   0.4162046  26.2553902  29.0462227  84.8965607
  26.2199516  28.2749615  84.3307571  26.9837933  28.8725929  85.4928055
  12.7582645   4.9966736  24.7030468  13.3277979   5.5077891  24.1280460
  12.0218058   5.5788870  24.8898296  40.0715523  41.9634666  30.6986961
  40.5196800  41.1242676  30.5930691  40.1244774  42.1468620  31.6366711
  77.0328445  49.1393356  52.7832108  76.5183105  48.5875282  53.3722763
  76.3841782  49.5473404  52.2096291  74.0525818  57.8107071   4.5363240
  73.2412567  58.2879143   4.3623867  74.4347153  57.6645584   3.6709654
   6.6743364  11.1858854  82.1491394   6.5408955  12.0189590  81.6970215
   5.8223805  10.9842300  82.5361023  51.3424225  25.0405521  36.1697006
  51.7640457  24.1812649  36.1791458  50.6721230  24.9709911  35.4899254
  84.7443771  64.7023392   3.8806148  83.9251022  65.1586533   3.6887717
  85.4198761  65.3743515   3.7893491  18.6361809  39.1812515  45.0855637
  18.5661087  39.2467461  46.0379486  17.7391529  39.2938843  44.7710991
  18.7921238  70.4586105  87.9062653  18.4184361  71.1964645  87.4244232
  19.6511745  70.3220673  87.5067368  55.0583115  62.8747711  44.7814255
  54.5419807  62.3486481  44.1708298  55.1720886  62.3109245  45.5465202
  43.1708298  65.8303986  15.9989719  42.2834358  65.5166397  16.1730919
  43.1618500  66.0726013  15.0729647  46.7552071  42.1706161  38.0588799
  47.0364723  42.6980133  38.8065262  47.0136566  42.6835709  37.2931671
  49.8120079   5.2537265  43.0675774  49.3997993   6.1172662  43.0427704
  50.3349609   5.2148647  42.2668037  77.1416931  52.2931976  52.1778145
  77.9151230  52.2061691  51.6206169  76.6269226  51.5065842  51.9975815
  65.4275818  59.9276543  68.0127640  65.9268036  59.7678719  68.8136826
  65.2575989  59.0548820  67.6583481  50.9838219  42.4656410  11.6898336
  51.3935509  43.3067589  11.4876547  50.7155876  42.5438004  12.6053524
  12.3377171  13.9350805  78.0889664  11.8842850  13.9227419  78.9318695
  13.2660017  13.9849634  78.3170700  15.6373997  16.2155724  18.3855438
  16.0446892  15.5556688  18.9466820  14.7974024  15.8312397  18.1346951
   5.8845296  50.5508575  -0.3347864   6.2592421  51.2802925   0.1589192
   5.8024058  49.8448257   0.3063147   8.3700132  43.9377480  52.0768547
   8.2442570  44.8601112  52.2997131   7.6452603  43.7331314  51.4860077
   1.3527201  12.7580404  52.5393295   1.2697622  13.6643419  52.2427368
   1.1118672  12.2332048  51.7759361  79.0407486   2.7683039  83.9075546
  79.8820877   2.5298409  84.2967987  79.0888367   2.4361534  83.0111160
  71.9176331  37.4669456  75.7250977  72.2419434  37.5141144  76.6244431
  72.3328629  36.6849060  75.3614655   7.3046160  37.9550133  46.5936966
   7.5700412  38.0000153  47.5122566   7.1041241  37.0305634  46.4473305
  64.2351532  52.8691788  39.1628189  64.5060196  52.7090378  38.2588158
  64.5551758  52.1080933  39.6471367   3.5520620  54.9029045  48.0268021
   3.9058290  54.2284164  47.4470215   3.6993475  54.5617790  48.9089432
  31.8710861  45.2031708  25.4340992  32.6169052  45.1455460  24.8368855
  31.7008133  46.1416397  25.5147896   3.4374802  31.1893883  24.6810665
   3.1165571  30.3762569  24.2911205   3.0167117  31.8818092  24.1714191
  39.4513550   0.5357940  41.0457687  38.7696991   1.2062477  41.0002441
  39.0081139  -0.2739792  40.7927055  18.0591698  43.7775154  24.7543278
  18.1279888  43.0771675  24.1054783  18.3408737  44.5645599  24.2880287
  21.8155346  40.7315674  89.0763474  22.1549473  41.6252556  89.0278320
  22.5422745  40.1830025  88.7811203  86.5170135  62.4638596  71.6541824
  86.4314880  61.6255836  72.1082840  85.9488678  63.0597763  72.1423798
  60.0686836  49.8564644  17.2382660  60.2217216  49.7940941  16.2954407
  59.1321259  50.0376358  17.3174210  52.4534950  16.6262283  78.6724243
  51.8999901  15.9009829  78.3828049  51.8596115  17.3751755  78.7235489
  84.2833786  10.2365799  23.6085491  83.9217758   9.3776712  23.8270836
  85.1916885  10.1972904  23.9079781  22.3570309  36.0541382  25.2320194
  21.5585423  36.4933853  25.5247803  22.6929855  35.6202049  26.0162811
  53.4332581   3.1425939  57.1586227  53.0146255   2.9284227  56.3248901
  54.3697090   3.0379360  56.9902802  18.8501740  67.0517426   2.1938474
  18.1911945  67.4672699   2.7500057  18.4480686  67.0243683   1.3256344
  86.1279068   0.6268116  20.6869698  85.9669571   0.7038492  21.6273918
  85.9118576   1.4905188  20.3354549  54.4819069  39.3759308   9.5971947
  54.7957764  39.4113121   8.6936092  54.0005150  40.1947327   9.7157602
  59.4121780  51.8535080  42.2218018  59.4292564  51.8924713  41.2655449
  58.5173264  52.1000977  42.4556122  84.0749283  62.3047142  14.0340109
  83.4096298  62.8469887  13.6102743  84.3020172  62.7834549  14.8311739
  67.0117950  22.8807545  71.2112503  67.9435425  23.0983868  71.1844177
  66.6967087  23.0672894  70.3268509  69.7237625  39.6176414  64.0221252
  69.3476791  39.4210815  63.1641273  70.1297531  40.4777489  63.9143295
  57.6893044  33.7414818  75.4919281  58.3341141  34.3279991  75.8874664
  58.0759010  32.8697472  75.5747147  81.9777222   5.4136543  37.9937019
  82.7849197   5.8776531  37.7715263  81.2880783   6.0691237  37.8889008
  75.9783325  11.9820414  10.7897959  75.5821381  11.2152510  10.3759165
  76.1990662  12.5608492  10.0600767  77.2479477  64.4457092  44.8068275
  76.9396210  63.9985123  45.5949783  76.7764435  64.0207520  44.0903625
  19.5085087  70.4630585  75.2538147  20.0816574  71.1215668  74.8612671
  20.0953579  69.7443924  75.4891052  19.3115406  20.5386868  87.0338516
  19.8243542  19.7308311  87.0587921  18.4825954  20.3092442  87.4538956
  59.5495605  50.6773529  63.2312775  60.2427979  50.3795776  62.6422272
  59.9884605  51.2784958  63.8331261   5.6255193  58.5392647  77.6791534
   6.4726262  58.1841850  77.9485245   5.4052396  59.1755333  78.3594971
  60.3744202  51.1850777   5.8488245  61.2187767  51.6346130   5.8836622
  60.5331688  50.3437386   6.2768164  72.6429443   1.3775066  16.0202427
  73.0305939   2.2464912  16.1242905  71.6992416   1.5367286  16.0029869
  24.5288372  68.3902817  67.5964203  23.8754063  68.2977600  68.2897415
  25.3569355  68.5078506  68.0618896  53.0970955  49.0380287  12.8604479
  53.2649231  49.9622993  13.0442762  52.1919708  49.0161171  12.5498114
  82.1216278  42.4061394  89.1083984  81.4969635  42.0541115  88.4742813
  82.7882004  42.8375664  88.5738144  77.8601379  70.3663177  47.3361664
  77.3093491  69.5841217  47.3040009  77.4417572  70.9271622  47.9893456
  16.6768227  36.6126137  10.3222942  15.9011984  36.5005836  10.8719196
  16.6845226  35.8391876   9.7583933  73.7779160   5.4698534  53.9121933
  73.9323654   5.2798204  52.9868469  74.3029099   4.8210087  54.3808250
  46.5273323  54.8725090  86.9063492  46.5409050  55.7325478  86.4863739
  47.0895348  54.3279762  86.3553085  12.9030180  65.9271469  85.0494614
  12.5713558  66.8088455  84.8796310  12.2298450  65.3457794  84.6958008
  60.2478638  58.2194481  73.3329773  60.2506981  57.2760315  73.4947968
  61.0995178  58.3964996  72.9335175  40.5442047   2.6405096  11.9332685
  40.8132935   2.9478788  12.7989168  39.8136368   3.2104623  11.6931505
  55.2893066  27.5493050  38.7239456  54.6490784  27.5553627  38.0123940
  55.8640556  26.8107929  38.5227165  52.9403229  67.1467590  34.0614166
  53.5051880  67.4873123  34.7550850  52.0605774  67.1653748  34.4381599
  84.9529266  42.2842216  63.4253883  84.1099930  42.3216705  62.9734077
  84.8211670  41.6447830  64.1253815  16.4258766  27.2937469  72.6883469
  16.5599384  27.1811066  73.6293945  16.8361244  26.5239868  72.2941437
  63.0002899  17.1161728  25.1777020  62.2325859  16.9601250  24.6276913
  63.6882324  17.3697758  24.5623550  85.9665680  22.2162762  33.2621498
  86.1027145  21.3840542  33.7150307  86.2516556  22.0494976  32.3637428
  14.1537323  13.8402691  81.2482910  14.5860310  13.6612692  80.4132462
  14.8702469  14.0381327  81.8513565  72.2462616  49.6743431   2.6166096
  72.1135025  49.9134521   1.6993128  72.8680801  50.3233871   2.9457254
  56.6870003  57.7165108  48.6971855  55.9647980  57.1057129  48.5502777
  56.7413673  57.7985764  49.6493073  86.3744049  24.6417885  12.2804842
  86.2946014  23.6880112  12.2672777  86.9175720  24.8261032  13.0467949
  55.3672905  27.7640820   9.9097948  54.8273735  27.3963089  10.6094122
  55.9310303  28.3994122  10.3511362  12.8628139  31.5035038  82.6818848
  12.4981775  31.8612232  81.8723755  13.6942549  31.9642887  82.7941971
  23.5709534   5.6699138  74.3480225  23.3958817   6.2916436  75.0544510
  22.8849640   5.8411336  73.7027893  81.9929581  20.3511219   3.6444530
  82.9159775  20.4908924   3.8559508  81.5874557  20.1229382   4.4809537
  35.7982483  31.6355705  81.7124786  35.9830055  30.7169647  81.5168762
  35.0469856  31.8516693  81.1600876  20.4797115   4.1817436  86.3192825
  20.0302944   3.6678960  85.6483002  20.0956936   3.8859694  87.1446762
  65.6569061  48.5628433  84.4141464  64.9657440  49.0861282  84.8199768
  66.4049530  48.6551590  85.0041733  54.2639656  49.2334442  63.6663361
  54.0751038  48.9840584  64.5709763  54.6976166  50.0837784  63.7378540
  36.3503685  59.6095695  75.2406158  37.1725845  59.1247559  75.1688461
  36.5014992  60.2336845  75.9504547  34.7126045  61.6167488   4.0903988
  34.2803001  62.0092354   4.8488841  34.0873909  60.9677849   3.7676098
  40.1381989  42.2517433  41.4092827  39.9348869  43.1537628  41.6567841
  41.0504723  42.2822762  41.1210938  68.5023117   2.7472684  46.5571136
  68.3696365   3.6307433  46.9007721  68.9326630   2.8808935  45.7126160
  32.4360085   1.1353172  70.5112839  32.4588776   1.9002247  71.0862808
  31.9573288   0.4741126  71.0111847   6.8763499  71.0633850  49.3592300
   6.5448060  71.7066650  49.9857292   7.8214250  71.0470276  49.5102158
  17.2509155  62.1182175  30.2043819  17.5743771  62.6048203  30.9625530
  17.2581882  61.2034187  30.4860210   2.1448793  40.7904205   8.2837744
   1.3879888  41.3108253   8.0144644   1.7770456  39.9409599   8.5273886
  39.5999680  60.5457001  19.2758026  40.1169777  61.0179825  19.9283962
  39.0478325  59.9556961  19.7889061  84.8036270  56.0713806  29.1521893
  84.8760529  56.3084488  28.2276421  84.1684036  56.6918983  29.5095100
   6.4571223   2.5132432  22.9806232   5.5029106   2.5218363  23.0557098
   6.7554245   3.1318073  23.6474247  62.1858673  34.5316200  65.6113358
  61.5601501  34.0972328  66.1910019  62.6065292  35.1905479  66.1636887
  54.8824539  25.9183960   7.6814866  55.4988518  26.3560925   8.2686024
  54.2906570  25.4443703   8.2657032  18.5179081   5.5655289  68.8121567
  19.4603882   5.5334687  68.6480331  18.1508465   4.8990412  68.2313919
  31.7122116  29.6131649  79.0548401  31.4433079  29.3804512  78.1661530
  32.6199532  29.9024601  78.9623871  33.2239113  27.0608273  13.1935005
  32.3292618  27.0003586  13.5284252  33.5291710  27.9216824  13.4798164
  31.1012249   7.2628508  87.9413986  31.5143833   6.5866098  87.4045258
  30.1636982   7.0813503  87.8755569  80.5915833  37.7802391  82.9240875
  81.4736481  38.0597687  83.1691513  80.6440353  36.8251114  82.8892365
  51.7464333  16.3888054  38.6125793  51.2368889  16.3145046  37.8056870
  51.1476517  16.1003170  39.3013954  57.7851715  65.3239288  12.3199558
  57.5424194  65.8106232  13.1076336  57.6726341  64.4047470  12.5621605
  19.1012745  55.0465088   7.6076989  18.9608479  55.5636177   6.8145323
  18.2383270  55.0001297   8.0192862  42.3393478  27.1090488  50.3125267
  42.0606461  26.4940758  50.9910278  41.7024002  27.8220348  50.3592300
  45.8108292  52.9416733  15.0186968  44.9629517  52.6406250  14.6920376
  46.4091797  52.2175179  14.8348217  13.3177605  70.7237091  16.2290077
  13.3309126  71.3647232  16.9397507  12.9050312  69.9496994  16.6121540
  58.5036774  30.3421230   1.5702713  58.2760353  30.8122520   0.7681561
  57.8958244  29.6031303   1.5954686  84.9699097  15.8033409  79.1136475
  84.2582550  15.2830820  79.4866257  85.5771332  15.1561937  78.7548828
  30.4923534   4.4566460  84.4122162  29.6866589   4.9408751  84.2316284
  30.8863564   4.3175869  83.5510178  37.5307846  15.4382067  63.5669479
  38.1258545  14.7251997  63.3351212  38.0071106  15.9429445  64.2261810
  17.6598625  61.2704926  66.7024384  16.7233582  61.0735092  66.7221832
  17.7110977  62.1542816  66.3383942  48.4661407  25.4049339   0.4063854
  47.5292320  25.5820293   0.4904799  48.8799095  26.2650452   0.4787448
  22.8070774  25.6705685  73.2281952  22.5681000  25.0385437  73.9061813
  21.9948750  26.1421642  73.0433807  61.3187256  33.6396713   3.2681744
  61.1854553  33.9720497   2.3804836  61.8078156  34.3322945   3.7123523
  75.9066772   4.1019106  47.8463821  75.9457092   3.8467445  46.9246445
  75.2022934   3.5675683  48.2132034  80.5480881  54.6560974  71.6290054
  80.3958130  53.8913269  71.0738678  81.3359299  55.0617256  71.2670670
  60.4461441  32.2658997  45.8369865  61.2176323  32.8268967  45.7574577
  59.7935791  32.6739731  45.2678947  47.7305450  33.6875076  50.2485809
  47.5594444  34.0815697  49.3932037  46.9996147  33.0847397  50.3851242
  44.3143616  60.4872246  72.6475830  43.6912117  60.8909683  73.2516556
  44.3365860  59.5660286  72.9066849   6.1121354  60.0781593  57.6040649
   5.6936398  60.5608635  56.8912582   5.3922625  59.6208153  58.0386314
  74.4271240  56.0369415  61.8847733  74.7478867  55.1658134  61.6513672
  73.6718826  55.8708763  62.4489136  12.4390469  50.2873726  84.0548782
  11.8551149  50.8283119  83.5232468  12.5744247  49.4965858  83.5327988
  28.8122768  45.5709419  65.8002548  28.2236080  45.5424881  65.0460052
  28.6847382  44.7280426  66.2355499  45.2456779  44.5595665  20.8648758
  44.9074173  44.6717758  21.7532578  46.0183525  45.1234589  20.8297920
  53.7975273  26.0155735   5.0983582  53.3288116  25.1834335   5.1622686
  54.3514824  26.0389843   5.8786263  33.0038757  58.8397369   3.6879737
  33.2093544  58.6419296   2.7742550  32.0567322  58.7172546   3.7524011
  30.2432976  38.5265198   9.2164145  30.5101604  37.8619728   8.5812817
  30.6180115  38.2294769  10.0456228  45.4154472   6.2243176  61.3550606
  44.7997704   6.0496583  62.0668640  45.3684120   5.4451222  60.8010979
  85.4929886  64.9076004  15.5417509  86.3735962  64.5629578  15.3935003
  85.3479462  64.7979507  16.4815235  59.8149223   6.6004643  40.4024849
  60.6442223   6.1748199  40.1849594  59.3347206   6.6264424  39.5748596
   2.3486660  12.8961143  89.1736069   2.6296277  12.0100775  89.4021454
   2.7286160  13.0523443  88.3090439  60.1355858   9.6616430  31.7638626
  60.6995697   9.7991333  31.0027771  60.0579491  10.5277166  32.1640129
  14.1463194  65.2229004  19.9969101  13.3332415  65.6748962  20.2223701
  13.9227686  64.6963730  19.2294273  52.0934830  31.3254509  13.9945354
  52.6832047  32.0471764  14.2126541  51.2209129  31.7189217  14.0006552
   5.1579399  26.4000301  34.4444962   5.9537034  26.3303566  33.9171104
   4.4500031  26.1753387  33.8406982  10.1331263  66.0654297  37.4645805
   9.5980816  66.2912827  38.2254677  10.0755777  66.8326263  36.8950768
  84.1110916  16.2214890   4.5626564  84.6260834  16.3162518   3.7613866
  84.4077072  16.9377327   5.1241250  84.4018250  37.4313927  28.3219090
  84.0578156  37.7179527  27.4758759  85.3376846  37.6277428  28.2788658
  47.5429382  59.4693375  75.6005402  47.7062988  60.1708412  76.2309647
  47.5628357  59.9040642  74.7479858  86.5030746   4.7570524  10.0581980
  87.1876984   5.4229321   9.9939556  85.7274094   5.1740651   9.6831245
  53.6522560  58.0192986  59.3852310  54.5013657  58.2532654  59.7600670
  53.1357346  58.8231850  59.4418907  82.4011536  27.5859318  16.2780628
  82.2744370  26.7048569  16.6300278  81.8530655  28.1449699  16.8287945
   6.5883036  62.9547997   3.2696440   7.3587947  63.4602280   3.5287163
   6.0291729  62.9553261   4.0465641  11.8828802  45.7958565  64.3421555
  11.2532358  46.3828621  64.7607193  11.9561262  45.0549164  64.9437180
  85.9985504  70.2749481   7.2957549  86.6426315  70.3553772   7.9992623
  86.2840881  70.9071274   6.6361766  17.8471069  30.4478855  36.6355896
  17.8355999  31.0125446  37.4084167  17.4313698  29.6360340  36.9259224
  52.0520515  21.6409359  39.9074783  52.5694695  22.0335960  40.6105652
  52.2458878  20.7051201  39.9613876   2.7139668  38.2076416  25.1628056
   3.1374140  37.7499504  25.8890572   3.4391158  38.5474586  24.6384792
  84.1418762  67.7677383  24.0349903  83.6282043  68.1701202  24.7353191
  84.6062164  68.4991455  23.6279659  16.9366016   6.8172216  21.6984959
  17.5538902   6.7187271  20.9735928  17.1260281   7.6837487  22.0583286
  39.1953545  37.4363213  21.5081940  38.2781601  37.2969971  21.7439346
  39.4124985  36.6952782  20.9425659  84.2431717  15.9239311  13.1533585
  84.1467514  16.8762379  13.1601543  85.1145248  15.7688131  13.5179424
  85.2269821  17.3114662  43.2087898  84.5289917  17.9628963  43.1403618
  85.6677322  17.3425941  42.3596725   2.4214818  42.0346603  65.2033386
   2.5111701  42.7401733  65.8439941   1.8336500  42.3898621  64.5366211
  17.8060722  30.4463272  22.8063774  18.0919037  30.1182575  23.6589642
  17.0497742  29.9040508  22.5823631  79.0774765  21.1333923  54.7767258
  78.8264618  21.8803825  54.2333755  78.3723984  21.0571613  55.4195976
  85.8077545  45.7184181  42.4330521  85.5432587  46.6343765  42.5184746
  86.7357101  45.7141838  42.6678123  65.6854630  21.3813629  73.2995834
  65.8560638  21.7226639  72.4217148  66.0714874  20.5054646  73.2952194
  46.4774666  66.3538513  58.5549850  46.7665634  65.7597198  59.2475624
  45.9588547  65.8033981  57.9682350  33.0738068  50.0679779  39.0662613
  32.4349251  49.6644745  38.4786835  32.6087074  50.8100700  39.4525414
  83.1443176  60.4947395   7.1092834  82.8261795  59.7433853   7.6097727
  82.5731812  61.2166061   7.3718600  13.1371975  12.1871548  12.1857624
  12.6484518  12.5860262  12.9056654  13.3421793  11.3048840  12.4952984
  50.2158699  42.8744469  31.8776760  51.0406799  43.3260193  32.0565643
  49.5995293  43.2414436  32.5114479  79.0622253  21.3212986  46.8567162
  78.1415558  21.0805454  46.7536125  79.3354263  21.6027336  45.9835701
  36.5266953  25.9982586  64.5035172  35.6558342  25.9162750  64.8922501
  36.7031708  26.9390411  64.5075226  73.0180740  58.9335251   2.2339389
  72.7423172  59.5729408   2.8907025  73.8816299  59.2360573   1.9529051
  83.5799255  32.6418800  38.0445213  83.2651138  33.3202324  38.6419792
  82.8480148  32.0294571  37.9704781  26.2667789  42.7045174  35.0551987
  26.4449577  43.3434982  34.3651352  26.3951397  43.1899834  35.8701057
  54.3063087  25.0904465  68.7299881  54.2504158  24.6386757  67.8879623
  53.4625130  25.5331707  68.8207397  63.3317719  27.6090908  82.8504486
  63.0433846  28.4243832  82.4401245  62.5450592  27.0646458  82.8803253
   8.5437250   8.0388165  84.7571487   8.8710623   8.9191914  84.5727005
   8.5503597   7.5979352  83.9075546  79.9999390  58.3398438  14.5107117
  79.1637878  57.8839073  14.6066780  80.6351013  57.7687798  14.9427795
  47.5250740  70.2838516  87.5880661  47.7681541  71.2095032  87.5703125
  48.3232841  69.8318100  87.8614655   3.1052780  19.6607189  87.5860748
   3.9493062  19.2621574  87.7982025   2.6174619  18.9668159  87.1424942
  43.7685165  32.5992012  68.7845917  44.3549957  32.7250671  68.0386505
  43.9596405  33.3349113  69.3663406  85.8705368  49.2918320  15.4251432
  86.7824554  49.5781403  15.4767866  85.6113358  49.1523895  16.3359680
  64.3558350  50.7721863  66.8657913  64.4099960  51.6473122  67.2497940
  64.6353149  50.8912201  65.9580688   5.5422950  59.4975548  31.6762371
   5.4468236  58.7181015  31.1289101   5.5839562  60.2236061  31.0538673
  25.8392773  35.0357819  71.9579544  26.6047096  35.5883293  71.7997360
  25.6734009  34.6098328  71.1169586  54.4564705  34.0593758  65.5370789
  53.6636276  34.5106773  65.8268356  54.3720970  34.0146408  64.5846558
  57.7082481  70.3077850  29.5424156  58.4099808  69.6603317  29.6102924
  57.1689415  70.1587830  30.3190613   9.8585911  19.7194881  69.4020004
  10.3933039  20.1485844  70.0699768   9.2845306  19.1332188  69.8949280
  58.4889793   9.9255867   3.2435861  59.3656616   9.6668797   3.5277205
  58.6379700  10.6523628   2.6387467  60.5979309  62.3418083  52.5278168
  60.8601418  61.7123871  53.1996117  60.4211082  61.8066368  51.7541542
  21.8572788  68.0125046  26.8387184  22.6571712  68.1182175  26.3237152
  21.1701145  68.3990707  26.2959442  37.4559937  21.1233463  85.3814392
  37.1851921  21.9818783  85.0561447  36.6439362  20.7126389  85.6782837
  19.4893322  31.3380375  72.0552902  20.3979740  31.4422531  71.7729111
  19.3146725  30.4017811  71.9596252  27.9966774  35.6968002   1.1010885
  27.2500668  35.1159019   1.2472516  27.6596127  36.5723953   1.2907029
  53.3315773   5.6280499  22.3084011  52.6188965   6.1217532  22.7140808
  53.0009003   4.7314634  22.2534790   9.2579823  30.5321941   1.0081668
   8.4311924  30.8157654   1.3983421   9.8034134  31.3187847   1.0046842
  52.9567299  15.1667833  70.4469757  53.7437630  14.8003702  70.0438004
  52.3962326  14.4083328  70.6107712  55.0479507   4.6191525  33.6809692
  54.4272346   4.1268287  33.1437912  55.5381775   5.1508975  33.0539436
   6.2464175  64.9413452  73.6946869   6.3574758  64.3206940  74.4148865
   5.4253674  65.3922806  73.8915710  63.1804008  12.1794014   2.7339947
  63.8686371  11.5301075   2.8788371  62.8385201  11.9759016   1.8633977
  41.4540024   1.6905085  78.6651993  41.5531731   0.7570158  78.4781494
  41.8522110   2.1290681  77.9133148  57.7937584  64.9419556  53.6434593
  58.3921089  64.3232040  54.0622139  57.6814842  65.6403427  54.2883415
  23.2444248  68.4773636  82.6502228  23.9905777  68.4264145  83.2476273
  22.7460175  69.2361374  82.9536743  75.2788544   0.6775084  69.6592941
  75.7685089   0.0370983  70.1753845  75.9126129   1.3703966  69.4735718
  49.5781479   2.2737868  40.6886063  50.4188690   1.8168968  40.6627502
  49.7702675   3.1482532  40.3500366   4.7466044  63.5773201  13.9917908
   4.3024206  64.2510300  13.4769602   5.5455184  63.3877945  13.4998074
  19.1710243  30.1695995  11.7424021  18.8480091  29.9660187  12.6201544
  18.8270187  29.4664402  11.1915302  77.4459915  13.7846527  13.6355362
  77.2201309  13.4966593  12.7510719  77.7881393  14.6709585  13.5187788
  81.6050720  24.1127014  32.0887604  81.9973373  24.8327274  31.5948753
  82.1518631  23.3546982  31.8821583  17.1118793  52.2210579  67.3789825
  17.6341267  51.5868149  66.8878403  17.2376347  51.9761620  68.2957382
  82.4861069  33.9142303   9.6146851  83.0714264  33.1694336   9.4771414
  81.9749756  33.6774406  10.3885736  18.7825851  48.4164162  20.9852867
  18.1903782  48.2440796  20.2532864  19.4522572  48.9949493  20.6204987
  66.4923248   3.8451116  69.6137314  66.5619888   4.2247605  68.7378006
  67.2059097   4.2492599  70.1073837  67.3735428  42.7390442  70.5724182
  68.1959991  43.1832924  70.7784271  67.5690231  41.8088188  70.6851196
  41.3311577  40.3515701  81.3228760  41.1205368  41.1781006  80.8884659
  40.4915123  39.8974609  81.3937073  58.3096313  70.9881897  83.8829041
  58.7153511  70.1257553  83.9713745  57.3750381  70.8277359  84.0133743
   1.7869220  26.2963085  76.8919067   1.9681160  26.8930893  77.6180267
   1.2969425  25.5767269  77.2898407   2.1534455  57.9608612  23.1735725
   2.7534084  57.2492676  22.9501743   2.4415023  58.2545738  24.0378571
   4.1346588   1.8027298  53.5528488   4.5459452   1.7791768  52.6888351
   3.6271386   0.9924500  53.5986938  37.6277924  53.0647430  37.0718765
  38.5076332  52.7819786  37.3211899  37.7492218  53.5175476  36.2373352
  28.0725441  53.0617180  47.1817169  28.6120110  53.7517395  46.7956123
  27.4357376  52.8460884  46.5003815  78.7702866  28.3884029  34.6907921
  79.1231537  29.0838661  34.1357765  78.2980499  27.8159046  34.0862503
  66.3783264  58.0050888  51.2453728  66.4223862  58.9547119  51.1335487
  66.0784225  57.8836594  52.1462288  65.1115112  54.0912895  50.1847763
  65.8723907  54.6655312  50.2716522  64.9343414  54.0690765  49.2443810
  80.7506790  49.2239456  60.7115822  80.6253128  48.3366966  61.0481834
  80.8264771  49.1121254  59.7639618  65.0161057  25.6793327  70.3388748
  65.3672562  24.8170509  70.1166153  65.5579987  26.2935486  69.8435669
   7.9482846  69.2021713  82.5804672   7.7052908  69.4423904  81.6863251
   8.2135334  70.0274048  82.9864883  81.4425888  69.1193619  74.9107666
  81.1858063  68.6504364  74.1167831  81.8836899  68.4599304  75.4463120
  45.1947670  64.0365067  60.8403473  44.5628242  64.6574554  61.2027130
  44.7797852  63.7111588  60.0414886  12.0117083  56.8207397  65.8886185
  11.1992493  56.7373390  66.3878021  12.0763836  56.0015411  65.3977432
  53.7350044  19.7495136   4.5441642  52.8256531  19.9379635   4.3122258
  53.7014847  19.5115604   5.4707098  31.6394558  39.2949371  11.6450005
  31.6736431  39.6467361  12.5345516  32.4291878  38.7594681  11.5686884
  61.8157082  54.5454102  38.8320236  62.6914177  54.1589966  38.8388443
  61.5776253  54.6154747  39.7564926  35.2570572  62.6282730   1.5346925
  36.1320114  62.9766769   1.7058672  34.7915115  62.7316093   2.3646455
  67.8154373  59.1728783  22.7863235  67.3118744  59.9054337  23.1413136
  68.6835098  59.5388260  22.6167221   6.5420599  56.3635025  21.9556122
   6.1065092  57.0692558  22.4335613   6.5070877  56.6376915  21.0391903
   9.0254488  13.4878845  11.4533195   9.2683334  12.8545561  12.1286955
   8.1679897  13.8132896  11.7273769  17.0351715  10.8051367  64.6732178
  17.9730721  10.6140509  64.6811142  16.6303425  10.0343323  65.0709686
  67.6751633   0.4938889  35.8184776  66.9354477   1.0427984  36.0787659
  68.1235809   0.2911927  36.6394920  69.0262375  52.5584106  77.2963943
  69.8914032  52.7164764  76.9185791  68.4798584  52.3135147  76.5495834
   8.0804749  58.3075981  79.7544937   8.4341755  59.1794319  79.9306641
   8.6924934  57.9231567  79.1268997  45.7484474  19.0892200   6.7796116
  46.3911171  18.4998055   6.3848987  45.9831963  19.1129112   7.7072773
  20.5280857  17.9027958  87.5360565  20.6124420  17.4809456  86.6809845
  19.5968494  17.8336544  87.7464142  46.1437263  65.7768173  28.4937019
  46.0117302  64.9562759  28.0187988  46.7983627  66.2488022  27.9790058
  71.6786652  70.8140488  86.3949890  71.2574081  71.5253754  86.8774719
  71.6456299  70.0669403  86.9924622  27.5138683  10.2405806  70.2765198
  26.8906593  10.7521143  70.7924423  26.9727859   9.6030846  69.8106232
  63.8965225  68.6155396  57.6276360  63.7742310  68.7123718  56.6832314
  64.0046082  67.6736908  57.7598267   8.3842268  68.8883438  66.5012360
   8.3977528  69.7970734  66.8016739   8.9462166  68.4228897  67.1207123
  37.8477554  37.3808937  80.7746277  37.8259659  38.2073021  81.2571335
  38.5774689  36.8969383  81.1613312   5.5614233  59.4925804   5.5947781
   4.9282718  60.0703735   5.1687412   6.2781410  59.4167137   4.9648643
  36.5471458  29.8408546  21.3064690  37.0659866  30.5815163  20.9926891
  35.8801117  30.2363186  21.8676319  36.1346359  26.7333241  77.7531509
  35.8083000  25.9292488  78.1571274  35.3490372  27.1758842  77.4318924
  27.2147083   6.8144240   5.2724061  27.5431480   5.9698977   4.9639673
  26.6668396   7.1345577   4.5557570  75.7639542  56.3902626  71.0290298
  76.4243088  55.7767334  70.7069321  75.0510941  55.8328590  71.3410721
  70.3630295  17.3753109   6.7744007  70.1680527  18.0704269   7.4029140
  69.8875427  16.6131840   7.1050162  64.0731125  57.1185722  49.9168587
  63.5937119  57.2201042  50.7391090  64.9940643  57.1991577  50.1650276
  12.6196308  28.9166813  16.8001480  11.8754187  29.5181713  16.8244190
  13.3579073  29.4361343  17.1184978  65.8308792   1.2378367  71.8996887
  65.9836426   2.0857122  72.3168259  66.6591568   0.7687278  72.0002594
  52.6908722  44.9806519  11.2022209  52.9878082  44.6110458  10.3706856
  53.2960777  45.7022400  11.3733053  71.2574615  58.7336121  41.7386169
  71.0884399  57.8259850  41.4858742  72.1624985  58.7308731  42.0502892
  65.2946014  62.0078850  50.4016380  65.0204620  62.9248505  50.4174957
  65.6480942  61.8787727  49.5215187   6.4355855   8.6990910   7.5815454
   6.2570257   8.7631083   6.6433287   6.8444300   9.5352020   7.8051429
  68.6520996  42.0827217  42.6848335  68.3559647  41.9911461  43.5904579
  69.4782791  41.6003838  42.6530647  36.4656219  44.3373108  25.5335770
  36.9574280  44.2269325  26.3473186  36.2872124  45.2765846  25.4870701
  74.6474228  56.3299789  38.3022614  74.5159912  56.0472183  37.3972740
  75.5344315  56.6895561  38.3144226  21.0796299   0.3794769  20.1957455
  20.1867962   0.6766753  20.3711033  21.1845627  -0.3992372  20.7423954
  79.9391479  17.0907345  62.9011765  80.4518433  17.2419758  63.6952171
  80.5878754  17.0692310  62.1976738   3.6722317  41.2604599  87.0800171
   4.3059502  41.9676285  87.2006226   4.0258050  40.7427826  86.3566666
  16.8571796  20.7751884   6.7610397  16.6622524  20.4253178   5.8916578
  17.8019314  20.9287415   6.7511230  69.9450684  14.8341494  24.0672455
  70.3363495  13.9729691  24.2138729  70.3711548  15.4031105  24.7083092
  46.0024529  37.6120872  83.5654831  45.7878380  36.7130623  83.8143463
  45.1988945  38.1049309  83.7317047  20.0925903  48.4717369  48.5721970
  19.9854870  49.1964417  49.1882820  19.9722080  47.6852303  49.1043167
  82.7007904  62.4895554  84.1950684  82.8273544  61.9412270  84.9693680
  81.9528656  63.0450974  84.4146423  46.7324486  55.9754181  81.2486572
  47.5199394  55.4710922  81.0443344  46.2571831  55.4329262  81.8779907
  83.7111435  44.2815094  71.6175842  84.6256409  44.5227509  71.7649841
  83.5101166  43.6637192  72.3205414  18.4343719  52.6008453   9.4099674
  17.8466949  52.8361702   8.6919928  19.2867737  52.4793854   8.9917650
   6.2120366  40.8900871   4.3311777   6.3208661  40.9427605   5.2807112
   5.5607419  40.2005043   4.2026339  27.6528454  68.8153992  21.4660206
  27.0898151  69.5773163  21.3292236  27.1907158  68.2903137  22.1194401
   2.1233673  70.7434540  29.5940723   1.1781689  70.6386871  29.4851913
   2.5061495  70.1467285  28.9509373  78.5313644  14.7973976  19.6514759
  77.9580460  14.5107031  20.3623543  79.0495987  14.0224543  19.4343891
  36.2613220  67.8554764  49.7521935  36.8756065  67.1330643  49.8826141
  36.7774582  68.5327988  49.3150749   9.7849169  35.0265846  69.8689957
  10.4444666  35.7158737  69.9471359  10.2876749  34.2343941  69.6795197
  81.3154755  34.4085503  79.9951172  80.7967377  34.2757912  79.2016907
  81.4300537  33.5295181  80.3562317  21.6104107  44.7216530  70.2956543
  21.8190269  44.3296700  69.4476776  20.7001629  45.0053787  70.2109299
  82.2442322  33.8292313  71.5712662  82.8921051  33.5751114  72.2284775
  81.6306763  34.3911743  72.0445557  26.6274509  35.9700356  76.4370346
  25.7980919  36.4323921  76.3161240  27.2934074  36.6558113  76.3875504
  19.3609257  47.4732780  35.2218132  19.4232903  47.8519249  34.3449059
  19.9735832  46.7379379  35.2093086  70.2496338  19.2963600  44.0015221
  69.5345306  19.9221630  43.8864861  70.9223785  19.7857819  44.4749184
  83.3401794  38.8695145  68.0410767  83.2474136  39.1331940  67.1255951
  84.2179794  38.4914474  68.0936661  32.7430382  39.2194595  18.0330620
  32.1161690  39.7345314  17.5251522  33.2339630  38.7248001  17.3769054
  73.2405472   7.7344155  16.5009651  72.9714432   7.0233111  17.0824661
  74.1042175   7.4705181  16.1836796  17.6968346  18.2089901  87.5368118
  16.7981815  17.9932613  87.7860413  17.7586155  17.9516315  86.6169357
  21.1421604  12.2102623  19.3154812  20.5983906  11.4284611  19.2188740
  20.9579163  12.5221729  20.2014828  76.6127777  66.6430511  27.8062210
  76.5412750  65.9428635  27.1574898  75.7068710  66.8514252  28.0345707
  32.3310509  48.1249352  41.4497414  32.5368652  49.0539207  41.3455620
  33.0811920  47.6691399  41.0679398  62.3255005  27.9950123  76.8898926
  62.1247139  28.4905739  76.0959549  63.2095490  27.6579571  76.7446976
  74.3647842   8.3573875  46.9485779  73.7004395   7.7158556  47.2001991
  74.7583008   7.9957781  46.1544647  72.7969208  17.1894474  32.8777885
  73.1921387  17.6691952  33.6057167  73.2100220  17.5568676  32.0963936
  24.9148750  53.4597931  33.4404106  24.2303505  54.1034431  33.2577286
  24.6311150  53.0309753  34.2477722  84.2761612  45.9231720  83.2859039
  83.5273285  46.4099464  83.6301956  84.4206772  46.2910919  82.4141388
   6.8542743  31.4227066   2.1680293   7.0227528  32.3540268   2.0248744
   6.6952181  31.3499699   3.1091149  33.0280838  32.8985519  15.4499235
  32.9843063  32.9984512  16.4008884  33.9146347  32.5784149  15.2832851
  67.9663544  15.7796373  32.8763885  67.1581650  16.2256756  32.6231842
  68.4261932  15.6299210  32.0503387  56.6869583   5.4135532  31.5396824
  57.6161766   5.6133137  31.4261951  56.5825615   4.5388122  31.1653023
  17.2437439  48.5649338  11.0880613  17.9379654  48.0596771  10.6649790
  16.5834637  47.9134979  11.3244801  31.9082241  43.3222618  61.2219505
  31.8676853  44.1229019  60.6989174  31.2127781  43.4250832  61.8715744
  60.5451889  40.8242950  59.0930519  59.8362656  40.1813927  59.1114044
  60.1108360  41.6641197  59.2422409  58.1612244  20.5549583  64.4686127
  58.2816391  21.2436638  63.8148384  58.2434158  19.7390366  63.9748993
  35.7970314  46.5258369  65.6518402  35.2893486  45.7993050  65.2903976
  36.1804314  46.1738358  66.4551620  27.6617069  19.5132179  64.9934616
  27.7026997  19.2184753  65.9032364  26.7923832  19.9044952  64.9074020
  46.3114700  47.9978333   4.7277102  46.6493263  48.6315689   4.0948896
  45.5707664  47.5863380   4.2824459  75.4491806  10.8388910  53.7906570
  75.5499420  11.3991184  54.5602188  76.2409439  10.3010788  53.7805977
   5.5774741  38.2762794  11.2718401   6.0386024  39.0643616  10.9845829
   5.0066905  38.0515175  10.5370474   4.2404475  36.5942383   2.5506165
   4.0610342  36.9011116   1.6618706   4.3964729  35.6549225   2.4527423
  63.4521713  59.7472916  35.4951439  63.0826530  59.4605942  34.6599846
  64.3920135  59.5878143  35.4085693  84.9642944  22.2926197  24.2070751
  85.5450974  22.3073349  24.9677830  85.5022049  22.6252098  23.4885597
  35.0928688  57.8334160  22.3483028  34.8815117  57.2393036  21.6281681
  34.4187050  58.5115509  22.3050652  47.5681915  23.2863235   9.4350367
  47.7757416  23.9577961  10.0848675  47.7626114  22.4588490   9.8751698
  25.9265842  51.9222794   7.6535830  26.3867836  51.2980995   7.0924702
  25.4638042  51.3767014   8.2895155   3.1459928  59.4966393  71.8553925
   3.1962659  58.7423439  71.2682495   3.1076965  60.2533455  71.2704544
  64.5945969  31.0196934  17.6391048  64.0418777  30.8010445  16.8888187
  65.1742477  30.2643814  17.7377663  10.3298788  33.0299339  82.5039978
   9.9536076  32.1722031  82.7013474  10.9997673  32.8514900  81.8439636
  58.1307030  16.9722271   8.0428905  58.9806252  17.3767395   8.2167654
  58.0406342  16.3030663   8.7213764  68.0727844  42.3403130  49.2048683
  67.6604462  41.5403786  48.8788033  68.9360504  42.3504372  48.7914658
  45.8203392  28.4039783  68.7662582  45.3155785  27.6949825  68.3677902
  45.1841087  28.8806973  69.2993393  57.9858780  56.1022034   1.7503370
  57.0420761  56.2610168   1.7658813  58.0678749  55.1608963   1.5971888
  66.2556305  57.5142899   9.7290840  66.6086884  58.3327904   9.3803043
  66.7983017  57.3264389  10.4948864  75.5082932  37.3949738  47.8157463
  76.0444565  37.9935951  48.3357658  75.9706345  37.3233223  46.9806747
  39.4316292  38.6257095  61.0751686  39.2621269  37.7292480  61.3647537
  39.4119453  38.5764427  60.1194420  53.5234756   1.6387848  12.2433233
  52.8397636   2.2859497  12.0702696  53.4610863   1.4700114  13.1834593
  46.2022324  49.9208908  24.4958496  45.8406830  50.8032150  24.4120808
  47.0796280  49.9847641  24.1185837  64.6952438  67.2301712  21.8111153
  64.6047745  68.1786880  21.9025726  64.6579590  66.8984070  22.7082081
  86.1503983   4.5682507  78.9235840  85.9213486   3.6410763  78.8594284
  87.1002350   4.5889435  78.8069153  18.6893539   2.4366286  65.3171082
  19.5165749   1.9744374  65.4524536  18.9279060   3.2099156  64.8058853
  23.9313030  39.8373909  12.9134026  24.6382961  40.2474899  12.4151926
  24.3429642  39.5649605  13.7334929  55.2638550  34.0948830  19.4451771
  55.5208168  33.1728401  19.4390354  56.0554276  34.5658607  19.1847477
  65.2796249   6.2680535  51.8202438  64.7385712   6.9239697  52.2598648
  66.1729355   6.4678521  52.1000671  59.8634109  37.7143135  56.2925148
  60.2328300  37.7121887  57.1755524  60.0624657  36.8439217  55.9475174
  62.7117538  64.2337189   0.5783139  62.0251808  63.5668945   0.5922956
  63.2384987  64.0190353  -0.1915462  39.2033958  59.9445457  69.8984299
  38.6113205  60.2871437  69.2288742  40.0794296  60.1436768  69.5680695
  65.0988617  58.4795341  33.2125435  64.9737167  59.4263611  33.1486130
  65.9778137  58.3782310  33.5777893  55.1362648  36.8893776  68.8255997
  54.4107857  36.8082657  68.2064667  55.9219475  36.8524437  68.2801056
  80.5700378  43.2731285  59.6399498  80.0297241  43.6959419  58.9724770
  80.3677521  43.7464218  60.4469833  78.2988205  15.4454689  88.3850708
  78.5712433  15.7961693  89.2330246  78.3043747  14.4959087  88.5056381
  41.3997536  11.5895338  43.7537498  41.5919075  12.1850700  43.0294266
  40.8024902  12.0820246  44.3167458   7.5875688  63.1977730  19.4181728
   6.9704504  63.2480354  20.1481514   7.2388792  63.8069687  18.7673836
  54.0641174  22.1345768  83.8047714  54.6414337  22.7480907  84.2592392
  54.6574631  21.4987373  83.4049301  70.2608871   2.4591198  85.8823166
  69.6243286   3.0434630  86.2940979  69.8069305   2.1140399  85.1134949
  23.8444195  46.8748589   6.1915970  24.1032162  46.8515129   5.2703419
  22.9723587  46.4804611   6.2054715  44.3712158  26.4091892  62.7427979
  43.7158623  26.0177250  62.1653061  44.7732506  27.0995712  62.2155685
  75.2210007  58.9886398  71.9694061  74.7099228  58.8380775  72.7646179
  75.2581406  58.1325302  71.5428772  19.2492237  53.7172050   3.2519076
  18.3506737  53.9114418   3.5185769  19.3917274  52.8127899   3.5311193
  67.8486862  45.9277916   2.0519140  67.9820023  45.0281487   1.7534117
  66.8979492  46.0224762   2.1099679  45.9478683  61.2688026  68.4221573
  46.0637245  60.4220123  67.9911652  45.7951050  61.8837929  67.7047424
  17.7628536  45.0363960  83.5407104  17.8762913  44.2527275  83.0029068
  18.1692429  44.8130989  84.3780975  13.6536493  60.1394806  49.5639648
  14.0595045  59.3543549  49.1964188  12.8006601  60.1923599  49.1328659
  38.8430443  33.1535912  83.6064911  39.1472816  33.7837105  84.2596512
  37.9902878  32.8646889  83.9314117  40.2983284  50.1454391  69.8434753
  39.8228264  49.4545593  70.3047943  39.8836479  50.9573822  70.1350632
  26.6510487  65.3783188  73.5483017  26.1251392  65.6307755  74.3071899
  27.5568771  65.4903107  73.8366852  70.9204865   9.9564199  68.9599228
  71.7511673  10.2271328  68.5688782  70.4050903  10.7615356  69.0087280
  57.3324127  48.5245628  42.8779907  56.5612679  47.9936867  42.6786499
  57.1035080  48.9859695  43.6847992  85.7262268  53.1641541  41.3304214
  85.7529602  53.1486206  42.2871246  86.4756775  53.7037315  41.0786018
  38.5383224  12.6624794  10.4789085  38.4647217  13.3243370  11.1664839
  38.6041985  11.8326092  10.9513578  28.9173641  25.0597115  70.1963120
  29.2908211  25.9400768  70.1548386  29.6365948  24.4821510  69.9406433
  52.5100784  34.4563828  79.6706390  52.4834747  33.5364838  79.9339142
  52.0646477  34.4760704  78.8236237  52.5414696  28.7443161  88.3049469
  52.1531487  28.3478050  89.0848312  51.7944450  28.9453506  87.7412338
  46.3100395  37.2419472  43.9943810  45.9569130  36.8744698  43.1841393
  45.5515671  37.3182869  44.5732765  36.9073448  48.9863434  65.9441681
  36.6827316  48.0852051  65.7123642  37.8246117  48.9426537  66.2142487
  62.6913795  52.6623077  11.8192148  61.7862434  52.9534416  11.9296694
  62.6690521  52.0988731  11.0457335  40.2695084  53.2273254  37.4007530
  40.5925636  52.7697334  36.6245613  40.9967613  53.7897568  37.6672287
  41.8693657   8.0340300  10.4157639  41.6074219   8.7364931   9.8206491
  41.0709610   7.5232549  10.5495157  76.5336990  24.2145538  82.8666534
  77.4823914  24.0888119  82.8464050  76.1732941  23.3513393  82.6636734
  46.4574509  34.3924637  45.1805458  45.5581779  34.3445168  44.8561401
  46.6677475  35.3261719  45.1663017   0.7457715  58.4830437  82.2753601
   0.7792835  57.8358345  81.5709229  -0.1882523  58.6464272  82.4062653
  60.9167557  64.6235733  27.7732410  60.6358528  63.8007469  27.3728962
  61.4406891  64.3559647  28.5282993  51.9576874  21.9340038  14.4838791
  52.7883148  21.5009937  14.6808395  51.2893867  21.3023243  14.7495546
  53.9287949  55.3828964  41.3750877  53.5760651  54.4930992  41.3835030
  54.7524414  55.3094864  40.8929558  74.9290924  69.2062225  32.9354286
  75.0066910  70.0975647  33.2756119  73.9974289  69.1043930  32.7408371
  22.2994041  40.8982849  53.7698898  23.0787697  40.3426552  53.7797394
  21.8246193  40.6309814  52.9828949   0.6576688  46.6964455  36.0035477
   0.9415599  47.6100388  36.0349083   1.4612751  46.2012405  35.8447418
  33.5623894  14.7924938   9.2267990  32.7237930  14.3555183   9.3752480
  34.2098618  14.2089920   9.6224432  12.2972021  60.4975662   0.0332760
  11.3506603  60.6391144   0.0492357  12.4019632  59.5601158   0.1958847
  11.6758690   8.5263786  77.6149445  11.7268095   9.1276321  76.8718948
  11.3283577   9.0588055  78.3304825  13.1271763  32.2024498  61.6335754
  12.3287582  32.0893288  61.1178589  13.7122269  31.5109787  61.3240395
  57.9041405   2.7931356  20.3648701  58.1244583   3.0406520  19.4668579
  58.6953163   2.9867556  20.8676434  78.6040649  17.1216125   9.5960512
  78.4196625  17.9024830  10.1180363  79.4107361  16.7679825   9.9708281
  77.1205215  70.0874405  42.7192802  76.4811859  69.5792313  42.2200737
  77.6201248  70.5623932  42.0551682  23.6822681  47.7338524  31.9465637
  22.9166965  47.4233017  31.4631481  23.6274071  48.6880722  31.8946953
  24.7320271  39.2929802  61.8374176  25.6420479  39.1833344  61.5616035
  24.2599792  38.5903893  61.3904648  32.8447304  21.4948845  11.1347866
  32.8051033  20.9924564  10.3210115  33.5961647  21.1321831  11.6038551
  86.4573135  53.9924393  62.3370705  85.6134644  53.5431786  62.3852310
  86.3707581  54.5852928  61.5905647  31.4129333  39.9592743  83.4639053
  31.3561039  39.6844254  82.5487747  32.1040115  40.6215172  83.4726181
  80.6411285  31.9517841  56.2922249  79.8665237  31.9157429  56.8534050
  80.4348373  31.3689022  55.5615196  78.9137955  29.1638279  60.5224915
  78.7553406  29.5274773  61.3936310  79.0410156  28.2272053  60.6734428
  19.3819466   2.6615784  18.1545219  18.5620651   3.1310012  18.3083649
  19.6862221   2.4181044  19.0288048   9.4210587  51.6742363  20.1718750
   9.9375315  52.4616890  20.3433533   8.6391001  51.9939690  19.7218266
  -0.0707427  21.1737823  28.6855202   0.4449339  21.5286751  29.4096470
   0.3985194  20.3819408  28.4228191  53.5565910  66.4972229  38.1793594
  53.0939255  67.3235016  38.3187485  54.4361992  66.7582855  37.9066658
  86.1394806  53.7765274  56.6615677  85.9075470  53.3886719  57.5053711
  85.3070297  54.0829353  56.3018913  16.7891426   9.3828354   1.2924671
  16.7149029   9.9319954   2.0729434  15.9005575   9.3486776   0.9382330
  74.3554611  32.4191017  38.4620781  74.4372787  31.6576233  39.0362625
  73.4502716  32.3893242  38.1522827   2.9191840  18.9481068  75.1224899
   1.9805564  18.7967834  75.2334442   3.3029671  18.6991215  75.9632950
  18.5698948  31.9462566   2.0536444  19.5073280  32.1239204   1.9769324
  18.5171547  31.1818333   2.6273232  37.8241806  59.4124298  41.5005379
  37.6239853  60.0009232  42.2284317  37.2440643  58.6625366  41.6323051
  20.8735104   3.9217095  35.4139824  20.1943779   3.8117549  34.7484589
  20.4193859   3.7820575  36.2449455  14.0021067  64.1798325  24.8019257
  13.2910061  64.0205154  24.1812916  13.5651541  64.2702484  25.6487598
  29.1517467  47.9167747  79.6345978  30.0986328  47.7869225  79.6873016
  28.8203449  47.6079903  80.4778366  48.7241898  53.8944283  75.7412643
  47.8190613  53.9981956  76.0348740  48.7239685  54.2249184  74.8429337
  67.1435776  24.5892773  46.4416885  66.6673584  25.2970505  46.8758583
  67.8132401  24.3281593  47.0738297  62.3480759  21.1753750   3.2172687
  63.0573311  21.5328884   2.6830671  61.6463318  21.8226604   3.1479261
  47.6597137  69.6414490  47.7371330  47.6271553  69.1598740  46.9105415
  47.9643631  70.5154877  47.4932709  80.5170212  20.0436726  82.2513504
  80.2927246  20.7930489  82.8030396  81.4552383  20.1392078  82.0874634
  18.1831741  11.7789240  85.9278717  18.0150204  11.9835749  85.0080490
  18.8876457  12.3754559  86.1810532  35.4875145  14.6848297  67.7857819
  34.8810158  14.0252657  67.4490738  34.9794083  15.4960070  67.7929153
  84.7127991  49.4512825  45.2432976  84.4313736  49.7749252  46.0990372
  85.4377594  48.8574753  45.4383812  53.3484459  21.4784260  30.3842392
  53.2858429  21.1779709  29.4775734  53.3393517  20.6747265  30.9040604
   9.5241823  27.9049587  45.0014343   8.6478386  27.5651474  45.1824913
   9.8106918  28.2835884  45.8325653  69.8639755  22.5517273  34.5967674
  70.2598801  21.8549366  35.1201935  69.7248993  23.2675362  35.2168541
  29.9022064  50.1692276  59.9450035  29.1821194  50.5463333  59.4395332
  30.6859531  50.3747063  59.4353447  52.2849388  55.5155983  34.4264908
  53.0705719  56.0427742  34.5717468  51.6952515  56.0930824  33.9417114
  37.5970879  57.6912880  84.1419144  37.1068497  58.5112114  84.0816803
  37.1200638  57.0848389  83.5754395  80.1839142   2.2906075  34.2861481
  79.3711243   2.4977283  33.8249512  80.8514786   2.2762339  33.6003075
  43.3478737  68.4043655  33.1084175  43.7083168  68.7142334  32.2775764
  43.3674622  69.1724396  33.6793060  32.3036385  18.0069523  13.1226473
  33.1102829  17.8289776  12.6390352  32.4079819  18.9037056  13.4407320
  77.0968246  36.0107765  88.0223618  76.2410965  36.4391594  88.0434799
  77.0077515  35.2682076  88.6197662  52.6097145  18.1977882  22.2143631
  52.2441101  17.6325512  21.5338707  53.5512924  18.2016697  22.0421658
  58.8126259   2.9953063  86.1809464  59.3887634   2.2885065  85.8898544
  58.8287468   2.9393287  87.1363678  47.6608009  24.0252209  73.5024338
  47.0203552  24.5385342  73.0099106  47.4804764  24.2332268  74.4191895
  13.6829491  49.5188522  32.6059570  13.3616924  49.7607269  31.7373238
  14.4378691  48.9560471  32.4339714  18.6785259  13.4276457  72.8278198
  17.8377113  13.2339077  72.4134140  18.4828472  14.1274195  73.4509201
   8.6330318  42.5488510  32.7471542   8.6763926  42.6486015  31.7961521
   9.2086258  41.8079185  32.9367523  54.9683380  44.1339607  54.6240120
  54.4692841  44.9492760  54.6734161  54.9928780  43.8131599  55.5255165
  74.7459946   4.6486912   9.9439659  75.5083313   4.5775805   9.3695011
  74.2974930   3.8080902   9.8519268  26.1845646   7.7185745  83.0269699
  26.6548576   7.6989589  82.1934967  25.5673409   6.9891043  82.9709320
   2.7114913  28.5273476  17.6040497   3.0380158  28.1851997  18.4362450
   1.9690003  29.0803356  17.8472424  62.9786797   2.0609496   9.8652430
  62.2619438   1.7508938  10.4187660  62.6567383   1.9479843   8.9709139
  63.3062134  38.5885162  32.6178207  63.1241150  38.5357246  31.6795864
  63.2848434  39.5252304  32.8136177  52.0086174  52.1010666  42.2804985
  52.0797157  51.4362526  42.9654808  52.5112953  51.7448769  41.5479202
  63.0021477  40.5409546  60.3743401  62.0573120  40.6559258  60.2728729
  63.1207275  40.3408012  61.3028412  86.5479507   8.7880049  59.5091095
  86.5056458   8.4362345  60.3983192  85.6346970   8.9477987  59.2710495
  51.3659744  52.1524239  45.2407455  51.7206535  51.3114815  44.9522171
  50.4931946  51.9428558  45.5732574  49.6561661   2.7333703  55.5768356
  50.6132050   2.7475989  55.5663071  49.4208603   3.0836396  56.4360085
  33.4500732  46.6922989  35.5054970  34.1881943  46.1530991  35.2214699
  32.7894821  46.0619202  35.7926712  10.4503889   8.9560966  22.7570629
  10.6466370   8.2531147  23.3763638  11.2317638   9.0161657  22.2074490
  37.9067497  43.4175339  10.8630505  38.6989288  43.7073135  10.4105988
  37.8050423  44.0351448  11.5872374   2.7232659  62.9567108  30.9377689
   3.6679165  62.8156242  31.0007095   2.3388696  62.2196312  31.4123039
  67.1435699  69.8560257  80.8211441  67.7028427  70.6281738  80.7360840
  67.1442490  69.4625015  79.9485779  25.6987705  47.9944649  86.8843765
  26.2509537  47.3054047  86.5148849  26.3044910  48.7110367  87.0737381
  56.7576180  19.2397747  75.2856522  56.0395813  18.6676655  75.0148315
  57.1062469  18.8285427  76.0765915  12.8556471   1.3842890   9.0941391
  13.6286831   0.8782529   9.3442879  12.8483896   1.3533422   8.1374664
  78.6454468  36.6432838  29.2979355  78.8536835  35.7476807  29.5639515
  79.4582138  36.9748688  28.9162292  23.0317345  50.9118080  85.9547501
  22.9221764  50.0096855  85.6540680  22.7149754  50.9033623  86.8579788
  55.5917892  60.2173843  27.9923477  56.2446327  60.8739624  28.2351036
  55.2496948  60.5194473  27.1509438  16.5767097  59.0454140  76.2071228
  16.7028561  58.4645195  75.4568634  17.4263096  59.4697227  76.3270187
   4.1780190  53.2267685  65.7537994   3.5455458  52.6400833  66.1685486
   4.8701000  52.6468430  65.4360886  79.6834869  22.5581188  85.6489334
  80.2508163  21.7940102  85.7514267  80.0935974  23.0690422  84.9510727
  84.2910385  53.5072098  70.7460785  83.7004623  53.6643562  71.4827957
  85.1320114  53.2994919  71.1533356  56.9279518  62.2497101  23.7982159
  56.7661324  61.8118172  22.9625740  56.7429161  63.1726913  23.6247387
  58.9466972  17.3033028  66.4633713  59.7899399  17.5681362  66.0959015
  58.3215828  17.4403362  65.7515488  44.1447906  11.8383837  87.5156403
  43.6629677  12.2822590  86.8177490  44.0826683  12.4315672  88.2643127
  47.2400436  27.1638947  57.6332550  46.3453751  27.0754509  57.9618607
  47.2154808  27.9436035  57.0785637  59.0289497  27.3018761  15.3920574
  59.9413986  27.1411896  15.1515522  58.7866821  26.5480061  15.9298496
   0.3102810  32.4124680  14.8014116   1.2089162  32.4834442  14.4794655
  -0.2106388  32.2302322  14.0193214  25.0081825  23.8086700  79.0196991
  24.8154926  23.9236126  79.9502335  24.1885109  23.4883862  78.6431580
  44.8102112  63.9976501  80.2352524  44.6951485  63.0862007  79.9664536
  43.9885979  64.4245148  79.9924240  58.4880867  13.2532034  79.1655273
  58.2333336  12.3315716  79.1216278  58.1970825  13.6221161  78.3315887
  22.3603535  27.4095154  69.7859726  22.0461254  27.7569294  70.6207123
  21.9857025  26.5300827  69.7363052  10.1224356  11.4907331   1.0815564
   9.9887075  11.8279753   1.9673420  10.4407349  12.2439699   0.5840109
  64.3433609  31.2099056  72.5265808  63.8483200  30.4657841  72.1838837
  64.9715805  30.8200741  73.1345367  38.7803879  42.8223610  37.0505905
  39.5819130  42.4833374  37.4491539  38.0753822  42.4716034  37.5948029
  84.7295151  12.2700386  85.0220337  84.9325027  11.5118656  85.5699463
  84.3979950  11.8942881  84.2064743  48.9041786  56.6503525  61.6367989
  48.6872368  57.4934769  62.0346794  49.2184143  56.8728523  60.7604485
  65.6753082   7.1273246  60.6438103  64.8256989   6.8477612  60.3028679
  65.7250977   8.0586672  60.4285049  40.0660667   0.7229416  23.0334969
  40.2183685   0.0181598  22.4039593  39.7439919   0.2782718  23.8175678
  63.4478073   8.2332087  26.7263451  63.8197594   8.3467770  27.6009808
  62.5635414   8.5934858  26.7934933  85.3455124  70.1709900  60.6871109
  84.5967789  70.7478256  60.5358315  86.0637207  70.7638168  60.9083939
  14.3864393  34.9913101  64.7080307  14.6751175  35.7336273  64.1771240
  15.1545210  34.4226990  64.7624664   4.9821367  16.2639923  86.5871277
   5.3048816  15.9523468  87.4326706   5.2908683  15.6121044  85.9578705
  53.1779442  16.8210983  42.1963120  53.6000099  16.7695370  43.0538864
  53.6536484  17.5128021  41.7364426   1.9731146  33.1521835   6.9316168
   2.7317383  33.7146950   6.7757235   1.2227042  33.7449074   6.8892498
  16.2938137   4.5879035  74.8327789  15.9727554   3.8134060  75.2946243
  15.6623583   4.7245049  74.1264954  79.7507477  29.8904018  42.6394310
  79.9477844  30.6511326  42.0928993  80.3317566  29.2035923  42.3123932
  58.0902710  46.5614357   5.1720877  57.8747711  47.2486343   5.8026042
  58.4734268  45.8621292   5.7016087   5.6725016   9.8997946  21.9268055
   5.2267671   9.1549244  22.3301926   4.9775410  10.3791752  21.4757442
  65.0675201  46.1616249   1.4653461  65.4447556  45.9044266   0.6240532
  64.2114029  45.7339363   1.4847285  30.8535175  39.9945297  33.4894218
  30.4947624  39.7892838  34.3527870  30.1302738  40.4135246  33.0229530
  57.4552879  43.5700111  49.7579460  57.6530914  43.4055443  50.6799316
  57.5524445  42.7162628  49.3361549  34.5344620  26.0379047  19.2698097
  35.2115555  26.7014751  19.1377048  33.7746811  26.5297050  19.5814114
  51.1978340  71.0949478  85.4602203  51.6042709  70.3361130  85.8787994
  51.9338760  71.6037521  85.1202316  56.4291840  15.4798660  77.1235428
  55.8882561  15.8870258  76.4468918  56.2494812  15.9902449  77.9131317
  12.2031422  71.2085724  70.9260559  12.3707695  72.0692520  70.5421906
  12.3823242  70.5910492  70.2169724  80.2535248  28.0948772  51.3189354
  81.1956558  28.1719055  51.4695816  80.0677032  28.7349567  50.6319122
  33.7314873   8.9578590  13.7886038  32.8126526   9.1122942  13.5692329
  33.7107353   8.6236134  14.6853094  74.0660553  29.9528427  40.0018616
  73.2612839  29.4346218  39.9969177  74.3143921  30.0007782  40.9250412
  57.0311317  51.7997131  55.2849960  57.5820045  51.1236153  54.8904457
  57.3188820  51.8410530  56.1969833  86.6748199  43.5283203  67.5656433
  86.5536575  43.1849174  68.4508667  86.4335861  42.8013191  66.9916153
  64.4039078  28.3366833  34.9675980  65.0962830  27.7728329  35.3124466
  64.2606812  28.9876003  35.6546402  53.0254326   6.5187240   5.9474487
  52.7929535   7.3752556   5.5889244  53.9826050   6.5121665   5.9505839
  13.0524569  40.0909004   6.1297135  13.8081532  40.1088829   6.7169380
  13.0411854  40.9592896   5.7272148  33.9497337  42.4244118  47.2237892
  34.2990150  43.3145828  47.2665100  34.6802292  41.8673363  47.4926300
  78.7213440   4.0598993  60.5511055  78.5493469   3.1307721  60.7039833
  79.3918304   4.0701389  59.8680496  59.4673958  33.1427040   9.9953728
  59.2440033  32.4646301  10.6329813  59.2554169  33.9653702  10.4364176
   1.0795704  38.3434372  79.9880829   0.9082208  37.8822594  80.8091660
   0.4205310  38.0056572  79.3816147  37.8537788  28.1918182  14.7288733
  37.3451805  27.6504974  15.3326387  38.4056129  28.7299232  15.2964592
  80.3576202   9.9051180  66.4063034  80.0542145   8.9974775  66.3872681
  81.1100922   9.8937664  66.9978256  71.4736023  27.7522449  42.0061989
  72.0802612  27.0358734  41.8191071  71.5886536  27.9257050  42.9404945
  12.0529089  34.4920845  84.0965347  12.4371281  35.0895691  83.4549637
  11.5050926  33.9032784  83.5774689  16.1164780   7.3968463  25.6644726
  15.8756504   6.6129451  26.1581650  15.6880846   7.2863374  24.8156509
  80.8965530  16.0204868  56.2155190  80.6135101  16.4287033  55.3973045
  80.1034317  15.6178961  56.5692215  41.2651596  33.1070518  60.4872704
  41.3201866  33.3778305  59.5708199  42.1503105  33.2350121  60.8283882
  79.4316711  64.7562561  36.0496559  78.9211578  63.9726982  35.8455963
  80.0436707  64.8405228  35.3185005  84.9724045  61.9349785  73.8834381
  84.6285782  62.7416458  74.2672272  85.6536179  61.6511002  74.4930344
  55.2525978  10.1057606  12.8065996  55.5632248   9.2040815  12.7246361
  55.2446747  10.4388590  11.9092617  25.5629654  43.8908005  43.6428032
  26.3190861  43.8893089  43.0558510  25.4946632  44.7971039  43.9431076
  86.0497055  36.6899033  37.3624878  86.6933975  36.5571976  36.6665802
  86.5116501  36.4483185  38.1652794  80.7670288  47.8948135  47.2373238
  81.0343323  48.0822487  46.3375168  80.4598465  48.7357368  47.5760269
  13.7252722  57.5919876   8.4844522  14.2410812  58.2816162   8.9022846
  14.3517790  57.1268616   7.9300346  61.7986183  66.5654984  67.5339432
  62.7262230  66.7120209  67.7191849  61.3763390  66.5885468  68.3926544
  32.6700172  44.9798203   9.8045588  33.3248558  44.4174423   9.3908625
  32.2838364  45.4711609   9.0795212  41.2877083  67.7078323  64.3924789
  40.4393997  67.7685547  64.8316956  41.9212646  67.6265564  65.1053848
  64.1924133  32.1712418  28.7303658  63.4468651  32.0540733  28.1415825
  64.9600220  32.0374374  28.1743908  58.9691696  17.6627502  58.8290100
  59.2389565  18.1629658  58.0587959  58.6503448  16.8322639  58.4756317
  66.6698074  13.0772133   0.1892406  66.1190262  12.4165468  -0.2307528
  67.4134293  12.5840387   0.5357110  81.4151001  56.8103218  78.8504562
  81.1749191  56.7455139  79.7747650  81.2931976  57.7350922  78.6355820
  14.8280687  20.5698738  10.8910074  13.8893318  20.4926720  11.0614338
  14.9762697  20.0274391  10.1163893   5.3064590  36.1697464  44.7980690
   5.0807881  35.7668495  43.9596291   4.4646611  36.4253807  45.1752396
  49.7669563  19.8098297  13.8307247  49.1269875  19.1652737  13.5286970
  50.5997238  19.5091133  13.4669943   2.8843966  22.8435841  56.2431602
   2.8844383  22.2899456  55.4623146   1.9623311  23.0580959  56.3846207
  64.5423050   7.5036263  24.3672657  64.2551041   7.9980388  25.1349277
  63.7578163   7.4275799  23.8241024  72.7325668  43.8826103  70.6873093
  73.3220978  43.9725723  71.4360352  72.9933853  43.0592346  70.2746811
  80.2851334  56.8576164  24.0162907  80.6026688  57.0638771  24.8954144
  81.0053329  56.3770523  23.6081238  12.8460112  54.6832314  39.4678421
  12.8460827  53.8164444  39.8739395  12.2186861  54.6106682  38.7485161
  48.7162209  54.2852631  66.6055832  49.0966110  53.6835594  65.9656754
  48.0584984  53.7625961  67.0643387  32.9071884  33.6196098  12.0981455
  33.4670410  33.7948036  12.8545208  33.4690857  33.7844429  11.3409576
  36.2469711  36.9522667   4.1449642  36.7589569  36.4554710   3.5067687
  35.6568184  36.3064919   4.5334530  50.3640594   0.5777996  27.4601288
  49.4641571   0.6518264  27.7778168  50.4393539  -0.3290144  27.1630573
  56.7754288  54.7928391  53.4999657  55.9516640  54.3169594  53.3942146
  56.5138321  55.7103996  53.5766144  11.9606762  57.5168152  77.3840256
  12.2555161  56.7870827  77.9288101  12.1985683  57.2616463  76.4926605
  83.0784378  31.9467869  57.6209946  82.2412720  32.1326141  57.1957397
  83.1013489  30.9929810  57.6982193  40.1984978   1.1605912  18.4533978
  41.1318436   1.0227381  18.6149254  39.7906113   1.0713025  19.3147278
  28.7678375  19.7601185  12.6040916  28.9839420  19.2968884  11.7948027
  29.5490475  20.2774296  12.7998791  16.2609825  71.2139130  17.7478848
  15.6286097  71.9301224  17.6897888  15.7973757  70.5228348  18.2208748
  61.9046135  65.2049484  81.0712891  62.8077660  65.4242554  81.3003082
  61.7960243  64.3003311  81.3647079  54.7341537  40.9827766  19.0347958
  54.4910240  40.3470573  19.7078342  55.4880905  40.5896416  18.5951824
  54.7159386  34.3507576   0.8584701  54.6840782  34.1693802   1.7977885
  54.0093346  33.8217010   0.4882753  17.1739464  33.9519424  22.0519390
  16.9945564  34.8299141  22.3884125  18.1230526  33.9317093  21.9293823
  15.2822895  14.3032475  13.1422987  16.0584087  14.3615170  13.6995010
  14.6430283  13.8259058  13.6711855  24.4446640  66.8937683   2.3429465
  24.1058750  67.4810562   3.0186286  24.8643703  66.1848297   2.8302763
  80.7934265  17.8098125  44.1040916  81.6110535  17.7541294  44.5986786
  81.0614090  18.0907192  43.2291565  74.6386032   3.7108572  55.9708023
  74.8997116   3.3135772  56.8015976  74.0263367   4.4036593  56.2185669
  41.8033981  25.6352806  61.2620773  40.9587593  25.3208866  60.9396286
  42.3516350  25.6941013  60.4796371  70.3490448  60.1752853  84.9237213
  69.6231003  60.6119156  85.3693542  70.0229797  59.2939491  84.7416229
  79.0202789   6.0436096  77.7474747  78.7904510   5.9022875  78.6658630
  79.9082718   5.6955652  77.6665039  79.8107605  35.3671036  37.5013237
  79.8292007  36.2982521  37.7223663  78.9285507  35.0818901  37.7392197
  18.9681034  13.1400337   4.0998030  19.5706863  12.4306717   3.8763523
  19.0859661  13.7834730   3.4010003  35.7552757  51.0305252  31.0595112
  34.9596786  51.4703712  31.3591709  36.1405106  50.6639023  31.8553810
  69.2691345  65.4254227  85.2387466  68.9328232  64.5574875  85.0155792
  69.8675461  65.6415787  84.5236130  50.5095329  54.0449905  17.6625347
  50.8098907  54.3443604  16.8043976  49.5544357  54.0641403  17.6020832
  48.8171501   2.5449035  31.1089554  48.6121559   3.4722347  30.9895153
  48.2751427   2.0944355  30.4612389  51.7887115  14.0275326  30.3774967
  51.6996422  14.1636286  29.4342175  52.7278709  14.1088791  30.5436001
  28.4219704   1.5738295  40.5005569  28.5057411   1.2576997  41.4001541
  27.6415634   2.1279402  40.5131035  56.8915558  60.7400093  80.3608398
  55.9931259  60.4373398  80.2287445  57.4360428  60.0118752  80.0615234
  26.3084049   2.3346024  88.7854004  27.2651100   2.3058190  88.7744293
  26.0953846   3.2612686  88.6752014   2.8304837   6.1853833  12.2666149
   3.6065822   6.1653829  11.7067013   3.1787210   6.2239232  13.1573887
  60.5206413  22.9562397  69.3109818  61.0646935  23.3171272  68.6109848
  60.6799812  22.0130405  69.2760696  18.7557716   0.4270240  14.2203531
  18.9798775  -0.3252105  14.7682142  19.1668015   1.1727266  14.6576328
   0.4073400  50.5916290  68.3133240   0.3508705  49.7236328  67.9137955
   0.8759118  51.1219482  67.6687851  81.3068466  18.7789593  12.5416670
  81.1440125  18.6274681  11.6106644  80.7478180  18.1437016  12.9890633
  53.1327553  39.3477020  24.2180557  53.4585342  40.2184639  24.4458179
  52.2063866  39.4831276  24.0187397  79.5188751  27.2597637  18.9920120
  80.0129242  26.7784977  18.3282890  79.3142700  26.6051846  19.6597633
  30.7117519  12.9724903   1.4762832  30.0657310  12.6820240   0.8324504
  31.4452667  13.2933035   0.9516274  48.2669373  19.6720543  85.4687958
  47.6274147  19.2262115  84.9133987  47.8599052  20.5135670  85.6747437
  72.1433792  20.6315422   6.6992426  72.3058319  19.9353981   6.0626721
  71.3887024  21.1049309   6.3491054   2.6875398   1.1827703  12.0434933
   3.5353248   1.4811653  11.7141705   2.8472788   0.9772025  12.9646101
  79.1784668  54.6166115   8.3682632  80.0740433  54.7800140   8.0725231
  78.7551041  54.1878357   7.6245203  46.1568336  51.9229927  27.1935558
  47.0888138  51.7567749  27.0520782  46.0604668  52.8672562  27.0698280
  51.9835701  30.4011860  27.2594833  51.1124153  30.0045643  27.2557278
  52.3406677  30.2030792  26.3937645   2.5406799  29.7137680  57.4300385
   2.3802595  30.2919388  56.6842384   1.8435496  29.9248886  58.0510597
  17.3203545   6.1567225  87.8691864  17.7023678   7.0276389  87.9778214
  16.6677208   6.0927706  88.5664749  70.7803116  39.6722336  31.5263844
  70.2764130  40.2607689  30.9642925  71.6543808  40.0611229  31.5578613
  63.1057968  42.8495598  20.3191662  62.2135506  42.5439148  20.1557274
  63.2675743  43.4952202  19.6312847  75.7147522  41.6339722  61.4125786
  76.2270966  41.9954987  60.6893654  74.9885406  41.1780205  60.9871864
  55.5394897   7.4743299  12.2457495  55.0200653   7.5222178  13.0483303
  55.2146072   6.6941013  11.7963877  44.6671562  34.5402031  38.8458328
  44.8787422  34.2603912  37.9552307  43.7105217  34.5336075  38.8780518
  68.7554550  17.4865398  60.9823418  69.4962692  16.8939972  61.1100731
  68.9296417  18.2187214  61.5737801  24.7968464  33.6382904  76.7510300
  24.2184715  34.0304794  76.0968857  25.5234852  34.2563934  76.8296127
  63.9650497  38.3412361  52.2767448  63.0879211  38.5403290  52.6042137
  64.4725266  39.1331406  52.4544716  16.6317940  46.1359787  80.8151627
  15.8332729  45.8675766  81.2696457  16.7464943  47.0554504  81.0552521
  11.7376690  12.9275312  72.9130783  11.7987261  13.5668993  73.6228027
  11.1937456  13.3551455  72.2516251  78.7323456  30.4383202  63.0516052
  78.0925293  31.1447372  62.9630432  79.5130386  30.8651199  63.4045830
   6.5845838  34.0260696  77.3999863   7.1129694  33.4326935  76.8661804
   6.6004734  33.6391068  78.2753448  59.9942894   6.3756237  12.7411871
  60.6884880   5.8046331  12.4121094  59.2289238   5.8052754  12.8129253
  69.6981659  34.0226631  75.5060196  68.9322433  34.5928802  75.5726471
  70.3692474  34.4608650  76.0293350  31.1483593  54.8272629  28.4063187
  31.7979584  54.3169785  28.8899136  30.4719734  54.1922493  28.1707516
  18.5823975  43.6201172  85.6899185  18.0227680  42.9410095  86.0665588
  18.6103611  44.3051376  86.3579025  46.1100655  37.9189682  71.2244644
  46.2373657  36.9730568  71.1518173  46.9386559  38.2956047  70.9281235
  12.4845390  21.8146076  76.9665604  13.2291698  22.2790051  76.5843430
  12.5022078  20.9517918  76.5524750  41.8613586  68.8829956  84.3830109
  42.6477661  69.3197632  84.7101669  41.4002419  69.5596542  83.8872910
  14.1011667  45.3586273  32.0206184  13.6062384  44.8258896  32.6430893
  15.0083427  45.2952385  32.3193588  24.6710911  17.9405727  79.7926941
  24.4645977  17.6540108  78.9030457  24.7450161  18.8926220  79.7265701
  75.2279358  64.5639648  74.3691788  74.9721909  65.3098145  73.8264771
  76.0187225  64.8571396  74.8218842  24.3987503  70.2696915  34.0375710
  24.6603622  71.1904144  34.0300446  25.0473595  69.8318939  33.4863281
  17.2043362  62.6142464  70.1247482  16.6699905  63.2867966  69.7023926
  16.5948887  62.1490021  70.6977692  77.2129669   9.6080637  32.9034805
  76.6569977   8.8296194  32.8694725  76.7832947  10.2348738  32.3214798
  43.3449326  64.7268295  63.8943863  44.2315102  65.0064621  64.1224594
  43.0223045  65.4095993  63.3062019  77.8623123  42.9848442  10.7478237
  78.3361206  43.3206024  11.5087471  78.5409470  42.8371315  10.0891380
   9.6166697  63.7856789  54.3520546   9.0216980  63.6693001  55.0927963
   9.4580555  63.0233231  53.7953796   2.5523975  57.1946831  27.7821732
   2.1218178  56.5995026  27.1685028   1.9900464  57.1880798  28.5567379
  54.9752731  61.9653130  20.6346874  54.7792397  61.2714005  21.2642040
  55.9121857  62.1289406  20.7426243   4.1769729  14.1924314  72.8175430
   3.8428535  13.5713205  72.1703796   4.3279214  14.9970932  72.3215942
   3.5214872  45.8299141  58.3971443   2.7664542  46.4146996  58.4618111
   3.1687133  44.9611282  58.5894852  79.5384903   4.6369433  35.5769730
  79.7036438   3.7808959  35.1818275  80.2245178   5.2015147  35.2208023
  35.7300110  32.4005432   8.2850657  36.5756111  32.2060356   7.8808937
  35.6609879  31.7769661   9.0079918  36.4343719  61.4513092  53.1841164
  35.5024223  61.2769394  53.0525856  36.7279778  60.7543182  53.7708244
  65.3900604  63.7970734  85.9800415  65.9569931  63.0298500  85.9013824
  64.8598938  63.7858315  85.1831589   3.2087100  62.8764305  24.4326820
   3.8541725  62.2025948  24.2192497   3.7289736  63.6628036  24.5975285
  17.4883022  27.2329063  64.1902390  17.2492065  27.0453510  63.2825584
  18.1675606  26.5908241  64.3965683  13.8387518  49.2776413  86.1272583
  14.6331863  49.7798996  86.3084793  13.4595566  49.6992188  85.3560791
  62.2856827  42.5498352  15.8539324  62.6151276  41.8524055  16.4207592
  62.1290092  42.1208534  15.0127068  22.6817131  18.8627663  71.5807724
  22.5510654  19.5512657  70.9287491  22.3767643  18.0641289  71.1501694
  50.9592705   7.9038954  53.9569321  51.2658615   7.6030860  54.8123550
  50.8604965   8.8506842  54.0572662  63.2679787  21.6424255  71.7651749
  62.5453682  21.9026680  72.3364410  63.0653801  20.7399654  71.5186996
  22.1635876  56.4740410  38.2715645  21.9318714  55.5455132  38.2909279
  21.3997040  56.9192276  38.6383362   8.7198133  10.6255560  83.9680176
   9.3493261  11.3130188  84.1856003   8.0143099  11.0829058  83.5104980
  37.3037872  43.4197044  75.4700470  37.9998398  42.8226433  75.7443771
  36.9869385  43.8088303  76.2851639  69.0959778  39.2408371  66.7060089
  69.7913437  38.6508217  66.9968262  69.3064957  39.4264679  65.7908859
  54.8165512  37.7986145  73.3972397  55.3691673  37.0354080  73.5656586
  54.8749542  38.3182220  74.1990051  45.7599792  26.2138920  88.8209000
  44.8491173  26.4613533  88.9800415  45.7138710  25.3015022  88.5351486
  14.6752996  39.3760872  38.9862404  14.4969053  39.8032837  38.1484375
  14.7671967  38.4487648  38.7674751  32.1691666   7.4769187  16.1051254
  31.5124092   7.8790989  16.6735878  32.9805069   7.5160260  16.6115150
  30.8035793  25.6192589   7.5155993  31.2721596  25.1629620   8.2144957
  30.6803951  24.9556293   6.8368845  25.9938736   8.0182352  88.3072586
  26.3808784   8.2440052  87.4613953  26.3775005   8.6446333  88.9210129
  25.6799870   6.4775853   3.0022194  26.0518951   5.5986514   3.0756364
  24.9661217   6.4896178   3.6397812   2.4622610  49.1540756  17.5366688
   2.7375178  49.8356438  16.9235344   1.7409936  48.7088890  17.0919075
  72.8644562  15.6503887  70.1588440  73.5909271  15.0278082  70.1881104
  72.6431732  15.8036041  71.0774231  27.7319698  29.2261677   5.8098922
  27.9156742  28.3159809   6.0423646  26.9868450  29.4681320   6.3598680
  13.2102613  52.7141457  49.8232803  13.1516018  53.0363922  48.9238625
  13.7301474  51.9131508  49.7572899  58.7070198  48.6653748  82.4286423
  57.8829002  48.9060020  82.0053635  58.5428963  48.7938728  83.3628693
  72.9252548   5.4436083  11.7781935  73.4373245   4.7367082  11.3853750
  73.4183655   6.2383265  11.5744991  76.4090424  49.3800430  48.6793365
  76.2923279  49.8749313  49.4903183  75.8021698  49.7869530  48.0609856
  66.5921936  28.9547443  17.5229893  66.5755081  28.0512886  17.2072010
  67.3070068  28.9728794  18.1593437  52.6350708   8.6336775  85.8428574
  53.3258209   8.1154747  86.2558517  53.0074577   8.9033947  85.0033264
  20.1613064  40.2257271  86.7444305  19.8691559  39.8699760  87.5836716
  21.1103230  40.1008987  86.7487030   8.2487268  24.5982647  10.7223339
   9.0971556  24.6573277  11.1615515   8.4654627  24.4610214   9.8001499
  33.1291313  64.6822968  68.5437012  32.4226799  64.0530930  68.3978882
  33.9306068  64.1647263  68.4663239  84.1026993  39.6307755   0.7405433
  84.7627640  40.2223091   0.3791103  83.9717331  39.9375381   1.6377472
   7.1296339  43.2648888  34.8940277   7.7918119  43.1487885  35.5754013
   7.5543609  42.9588737  34.0926590  68.0371552  44.4928322  28.7363014
  68.9066162  44.8820724  28.6426487  67.6659775  44.9188499  29.5089340
  80.1466827  24.6109200  13.1588440  79.6076355  25.2545834  13.6185875
  80.8618393  25.1231670  12.7815180  75.2242508  50.5811768  86.1828995
  75.5059814  50.6050148  87.0973892  76.0120468  50.3396492  85.6958008
  87.0440750  52.5126457  25.1262703  86.7748947  51.6145058  25.3189240
  86.2973328  53.0488892  25.3928261   8.9016180  21.8330936  18.5748787
   9.0684748  21.5018692  19.4573078   8.0895672  22.3332596  18.6563606
  61.0182991  17.7266045  51.1181107  60.3800201  17.2177486  50.6182098
  60.8068733  18.6385498  50.9183884  11.5259380  51.7970581   2.5677047
  11.4543781  51.7230301   1.6160583  11.1529369  52.6550827   2.7699175
  38.0643196  50.6351585  53.7985725  38.2248116  49.9302559  53.1712074
  37.1538086  50.5135803  54.0676842  79.3506088  11.7788658  50.5601959
  80.2553711  11.5882339  50.8077698  78.9794083  12.2154627  51.3268929
  57.9796562  18.0431709  63.4145012  57.0927544  17.6869888  63.4671707
  58.4230194  17.4879932  62.7730675  55.8121834  34.1220627  16.0819893
  55.5769234  33.1992035  16.1779804  55.7528534  34.4778366  16.9686317
   5.1828561  66.4533234  77.7519302   5.0507169  67.0266724  78.5069427
   5.8524017  66.8953018  77.2298279   8.0608578  60.3222885   8.6060915
   7.9670653  60.9543190   7.8933687   7.6567788  59.5218315   8.2711039
  16.1809406  26.9821796  85.7504578  16.6330452  27.6925163  85.2952042
  16.7813053  26.7260227  86.4505844  70.9074249  17.9500885  71.4274979
  70.3327255  17.6344929  70.7301025  71.1155930  17.1680031  71.9386139
  58.6825218  36.6691208  79.3364334  58.0369530  36.4036598  79.9914169
  58.4906883  37.5922775  79.1714859  34.4564209  57.5012321  64.5275192
  34.8384781  57.1145401  63.7396507  35.1246567  58.1089897  64.8442535
  29.0506077  12.4783363  69.0137100  28.5972862  11.7549639  69.4466782
  28.3657970  13.1270075  68.8509445  41.3785706  55.8932228  81.0808182
  41.6165543  55.6622009  80.1829224  42.2166061  55.9975014  81.5314331
  20.2382030  65.4448013  82.8603134  20.4794369  64.8885117  82.1196518
  20.5168629  66.3230515  82.6009827   4.4779139  62.5157547  18.3454800
   4.2180209  62.3527260  19.2521820   4.2487860  63.4323273  18.1917553
  31.2060585  54.1210709  67.8723068  31.5517750  54.2715645  68.7521133
  31.7767620  54.6336670  67.2997894  78.4726486  23.0808449  77.9396515
  78.4422379  22.2128544  78.3420181  79.3242722  23.1131096  77.5038376
  53.5567856   9.7168121  60.1610832  53.8501892   9.9803553  59.2889061
  54.0098495   8.8900156  60.3265228  44.3736229  34.9172363  24.5619164
  43.5730820  35.3222885  24.8955269  44.8104362  34.5729218  25.3409386
  61.7498627  37.7226868  35.7030487  61.9261246  38.0133667  36.5978508
  61.9633980  36.7896233  35.7078781  62.6889877   7.9963069  33.6255493
  62.5123100   7.0646505  33.7560616  63.6330261   8.0421476  33.4741402
  77.1841888  54.3666115   2.7671909  77.4113007  54.4700584   1.8430959
  76.5993271  55.1010208   2.9537599  30.4631023  22.9496555  18.7433033
  30.9766426  23.7081566  19.0211258  30.2797680  22.4746418  19.5538464
  37.9303131  61.8230438  11.5176563  38.8081284  61.4903831  11.3305378
  37.6145172  62.1522446  10.6761503  37.8954773  46.5713577  54.5465698
  37.1400986  46.3987198  53.9845848  38.1918221  45.7040596  54.8226242
  70.3126678  68.1544952  17.0492458  69.9149170  68.7051468  17.7236423
  71.2407608  68.1240845  17.2815075  51.5589600   1.3463936  29.6697388
  52.4031105   0.9023044  29.7499294  51.2353706   1.0915185  28.8057022
  43.1147118   1.4055790  11.6429787  43.6162109   1.8261428  10.9445105
  42.2168922   1.3813342  11.3119793  63.5422363  60.3189507  55.1252251
  62.7769127  60.6219139  55.6138229  64.2615280  60.8635712  55.4449768
  34.6259422   1.3366222  78.1385269  34.0973053   0.5592118  77.9585190
  35.2659569   1.3610334  77.4271774  61.4923134  48.0850372  77.6804428
  62.4113045  48.1774139  77.9317474  61.4411125  47.2202721  77.2732697
  32.4339790   4.2923007   4.7848988  32.0974846   3.5359020   5.2653828
  32.3457336   4.0492239   3.8632922  30.5330563  34.9577637   1.3280820
  31.0582466  35.2683372   0.5905526  29.6570549  35.3058701   1.1617265
   3.3127286  29.3334312  75.6882629   3.4764745  28.7669659  76.4422760
   3.6209004  28.8269444  74.9367752  55.0027504   1.4233159  51.7806282
  54.9297829   1.8692356  50.9367905  54.2948990   1.7925858  52.3086624
  35.7850113  69.1442490   2.7073047  35.3885117  69.7959137   3.2855427
  35.1652489  68.4147797   2.7079451  49.4196281  56.4393616  28.5047283
  50.3664818  56.3913727  28.6366215  49.0767250  56.7520256  29.3419189
  21.0158749  70.2575302  28.7625637  21.6712379  69.5848160  28.5776463
  20.2565937  69.7705765  29.0828762  85.9798355  50.6733055  36.4318047
  86.0236664  49.9473801  37.0541725  85.0603409  50.7074356  36.1680031
  10.7218924  69.6922607   7.4916902  10.0690155  69.3725128   6.8689971
  10.9706249  68.9180450   7.9966254  35.6217728  44.8734550  80.7719116
  36.5108147  45.1207237  81.0262680  35.1054535  45.6689034  80.9019623
  13.9712381  70.7946777  64.2638016  13.0529127  71.0494843  64.3531494
  13.9998665  69.8894730  64.5736618  25.6714878  65.6386032  17.5545635
  26.4333038  65.1998367  17.1759472  26.0265102  66.1502914  18.2814541
  44.0565300  38.0448837  35.1018028  44.0239487  38.5871048  34.3136597
  43.3078499  37.4544640  35.0174484  75.0140152  47.4874916   1.4067014
  74.6885910  47.2340546   2.2704730  74.6690674  46.8187218   0.8151031
  71.7905655  44.6677742  62.5307999  71.3856354  44.7266159  61.6654701
  72.5125656  44.0499191  62.4158669   5.4703884  34.6114197  51.0462112
   5.2594619  35.3899269  51.5616379   6.2435985  34.2433014  51.4738388
  64.8429871  36.1839523  42.3682518  65.7913361  36.0624008  42.4140015
  64.6661530  36.9137955  42.9617958  52.6440277   6.0200295  37.3583946
  53.0420914   5.1851268  37.6047935  52.0733337   6.2398472  38.0947495
  73.1932602  14.5980644  66.5789261  73.9513474  14.0864258  66.8613586
  73.3794022  15.4876938  66.8791656  52.8515739   0.9543882  14.8201647
  52.9292145   0.1786225  15.3754940  52.2741508   1.5414672  15.3081741
  69.9464951  59.3919754  65.8030930  69.5894241  59.5963135  64.9388123
  70.7196274  59.9509163  65.8810959   6.2184091  30.6124763  83.8475342
   6.3472085  31.4373016  84.3158340   6.1022544  29.9603462  84.5385208
  22.9275208   5.8087673  65.1387024  22.6266518   5.7410231  64.2325439
  23.0031357   4.9015388  65.4344254  71.0735474   8.5083141   7.8448906
  71.8559036   7.9569612   7.8322639  70.7598572   8.4997196   6.9405918
  86.3625946  68.8013229  73.5927582  85.5831985  69.0314255  74.0985565
  86.0807648  68.0762024  73.0350876   7.7877378  40.7662506  79.4049377
   7.9679942  41.6124344  78.9954071   8.4894333  40.6564064  80.0466461
  85.6766434  41.4410667  66.2826920  84.9934616  41.5216331  66.9482727
  85.7366104  40.5008278  66.1136017  31.3657513  70.9824142  72.3749237
  31.0012646  71.2443924  73.2203522  31.8539486  70.1807556  72.5626450
  10.3220625  38.7726212   9.5296659  10.2275190  39.7207642   9.6208506
  10.4766293  38.6361275   8.5949411   7.5606804  55.1267776  81.1987839
   7.3487902  55.9545441  80.7673569   8.2974586  54.7771950  80.6976089
  33.4294624  33.6918297  71.7924042  33.4122276  34.2525597  71.0168228
  32.5575142  33.7864418  72.1757812  62.8173256  45.5953445  37.8742790
  62.9137688  45.0323982  38.6424065  63.7133789  45.8386345  37.6416130
  25.9896526  49.6647263  52.8122292  26.5299416  49.6315384  52.0227890
  26.6194572  49.6984215  53.5322571  60.8287811  36.9927597  67.9671860
  60.4361496  36.6015282  68.7475739  61.7196732  36.6433105  67.9464493
  41.8073349   3.3291411  64.5415421  41.1673203   3.0464823  65.1947708
  42.0006676   2.5384655  64.0378647  19.3212681  27.2954254  67.0277100
  20.2571964  27.3030930  66.8271866  18.9756279  26.5548134  66.5294571
  36.1716232  54.9542007  56.2013969  36.9196320  55.5514030  56.2093239
  36.4444466  54.2361755  55.6302223  78.5102310  61.6294365  70.8566589
  78.9388580  60.9210815  71.3370209  77.6294632  61.6726227  71.2289810
  37.6572495  70.0096741  22.2863865  37.1022873  69.6791840  22.9928036
  37.8844414  69.2320709  21.7765388  81.7265396  33.7214928  45.1884918
  82.1206970  32.8566933  45.3024864  80.9288101  33.5567436  44.6857834
  58.9170990  38.2895050  48.8095322  59.0693016  37.4415741  49.2267609
  59.7654686  38.5284348  48.4361458  24.7194691  13.8444128  75.1265030
  24.4118023  13.3391743  74.3739700  25.6106548  14.1038637  74.8926086
   2.3498793  10.4875917  85.3539200   1.6072074  10.5445547  84.7527390
   3.1143763  10.4085817  84.7833633  79.4426117  31.1694679  20.6613617
  80.3944931  31.0708065  20.6818485  79.1515121  30.8630142  21.5201855
   1.5302811  22.1096821  68.3890839   1.6432210  21.8427029  67.4768372
   1.0752724  22.9502754  68.3380585  32.9153061  27.8284264  86.7880783
  33.5504799  27.3326702  87.3048096  32.6736832  28.5656681  87.3487244
  62.6859322  68.8050156   4.1501770  63.1222534  69.3736801   4.7845888
  63.1869812  68.9184570   3.3425181   0.4477043  65.2185059  54.0612869
   1.0891665  64.5921860  54.3966599  -0.1121381  65.4135742  54.8127899
  18.3652649  66.1102295  76.3109818  18.7949982  65.3722610  76.7433701
  18.4543991  66.8352356  76.9295731  72.1065826  61.7838860  69.0421448
  71.2364960  62.1075706  68.8088837  72.0512238  60.8365326  68.9168854
   0.6003205  43.0217056  44.5885849   0.9099017  43.4406128  43.7855225
   1.1449034  43.3977318  45.2801514  44.7168503  66.0659103  33.2069588
  44.2571945  66.8384094  33.5358849  44.5597343  66.0776596  32.2628174
  13.4964552  64.4527359   7.7227283  13.4986763  64.1138229   6.8275385
  13.2807951  63.6943207   8.2654285  42.8626518  62.4561577  37.2849693
  42.5547371  61.5844498  37.0368919  42.7827454  62.9751434  36.4846573
  72.1659546  25.5688820  75.7200394  72.1276627  26.3480968  76.2746429
  71.4098969  25.6512012  75.1388016   8.3139477  43.4186974  78.8127441
   7.3984427  43.4523430  79.0901413   8.3043680  43.7494507  77.9145584
  38.8540039  21.3528214   0.8773386  39.1244278  20.4414234   0.7657414
  38.3052597  21.3455181   1.6615968  73.9488220  70.0721283  29.3085155
  73.5605011  69.7606735  30.1260967  73.9227295  71.0263519  29.3792171
   5.4059143  61.6400795  55.2370949   4.6350279  61.7818909  54.6876793
   5.9861321  61.0997391  54.7007980  44.0458298  33.3848648  47.3236618
  44.3234711  32.4781685  47.1930809  43.5168419  33.3608932  48.1210518
   9.1079693  30.6965256  83.4598160   8.6790066  30.5995159  84.3100052
   9.6623011  29.9201393  83.3812561  29.2155704  50.9395294  36.7904701
  29.8620281  51.5844460  37.0775375  29.2122917  50.2789726  37.4832077
  78.6064224  42.0595169  23.7309284  79.3871078  41.5060806  23.7527237
  77.8983765  41.4865837  24.0252914  82.9448318  62.1855392  33.0778351
  82.1437988  61.8044510  32.7181854  83.4647522  61.4315910  33.3561821
  35.2658272  63.0937233  78.1663055  34.9412956  63.7020607  78.8302612
  36.2112694  63.2420540  78.1472168  21.1557102  47.1208534  38.7821960
  21.0410500  47.9764023  39.1958618  22.0401821  47.1478920  38.4172173
  47.5313950  10.3556280  36.7608681  47.5898895  10.7152252  35.8757095
  47.0343170   9.5441875  36.6573715  14.9261827  29.1049652  62.7620430
  15.1013346  29.5990410  63.5629463  14.0929337  28.6646862  62.9296227
  40.8025513  36.1524010  49.0411682  40.8675804  35.2412186  49.3270836
  39.8904533  36.2535057  48.7689743  41.6760750   7.9054461  66.3779297
  41.7075500   7.6971736  67.3116684  41.0549355   7.2753015  66.0127869
   3.7296076  27.6751652  55.9691505   4.6492262  27.8351421  56.1811447
   3.2423785  28.1787148  56.6212845  46.9581985  62.0764618  35.2737503
  47.3952293  61.5196838  34.6293640  46.7183189  62.8643913  34.7860413
  49.1448441  71.7973251  68.5733719  48.2371826  71.5421066  68.7384338
  49.5859795  70.9790878  68.3450623  12.3031101  19.7639904  80.4590073
  12.6346531  20.6605816  80.5083542  12.0789385  19.6419601  79.5364609
  54.2225914  17.8931179   8.6204643  54.9841881  17.8782921   8.0408249
  54.4090843  18.5958595   9.2430449  86.1057587  51.8721657  48.1197014
  86.7226105  52.4376945  48.5843506  85.5731049  51.4795227  48.8113213
  48.0233727  10.5297852  60.7943306  47.2563515   9.9677505  60.6846657
  47.7961197  11.3376589  60.3339729  48.9931412  61.7772484  62.2725487
  49.7455215  61.7364883  62.8628845  49.2976494  62.3022308  61.5323448
  29.1737633  36.6619492  60.2618294  29.2656136  37.0685501  59.4001617
  29.6837463  37.2223663  60.8467064  33.1761665  61.1690903  55.8654785
  33.9076958  60.6537781  56.2054062  33.5906868  61.8996582  55.4064865
  19.5958958  30.6087475  75.1236877  20.1823025  30.9179535  75.8141632
  19.7245293  31.2279129  74.4051361  56.4965744  46.5257492  19.0146046
  56.7098312  46.0303001  18.2238579  56.0155411  47.2895966  18.6962090
  81.5356293  16.7061157  65.2098312  82.1959381  16.1685352  64.7725372
  82.0321503  17.2333050  65.8357468  42.4644661  27.7418633  12.9369793
  42.3205872  27.4114666  13.8237543  43.2676811  28.2585297  13.0012684
  77.9791489  27.9417648  28.9483128  77.3617859  27.2937908  29.2877712
  77.7591019  28.7488956  29.4134502   5.3839717  13.5821543  75.6791840
   4.6638193  13.8520670  75.1093063   4.9774375  13.4592447  76.5370026
  55.9433937  20.0341816  29.2087154  56.0297585  20.9836082  29.2945156
  56.1698685  19.8545742  28.2961998  77.7784500  46.6113663  73.4241257
  77.5426788  46.7254448  74.3447952  78.2144775  47.4293671  73.1854095
  11.5450926  49.6049042  22.5547695  12.4260817  49.7590256  22.8958511
  11.5637608  49.9691772  21.6697903  54.5215225  51.6200523  13.0776863
  54.5218735  52.1957817  12.3129835  55.3223419  51.1033134  12.9888191
  33.3651085  50.5903358  42.0480995  33.7063293  51.4818420  41.9772720
  33.7676086  50.2423363  42.8437881  24.3202343  41.6209908   2.0702615
  24.3785820  41.2516022   1.1891376  23.4889393  42.0954819   2.0764866
  29.8268661  21.0590458  64.4390335  30.5571861  20.7262268  63.9174042
  29.1692295  20.3645744  64.4009018  71.2407913  12.9077702  19.9151630
  70.3485870  13.1596460  19.6768990  71.7491531  13.0416002  19.1152344
  53.7905769  45.0846596   6.0814214  54.3805428  45.4925117   5.4475193
  53.4432564  45.8167992   6.5908995  37.8316460  61.5047302  47.7571068
  38.4805908  62.0001335  47.2574310  36.9932861  61.7380066  47.3584023
  55.2594299  34.3298912  87.1359177  55.2424850  34.2857857  88.0919495
  54.3720284  34.5935631  86.8925476  59.6329613  23.5625153   5.5813894
  58.8576698  24.0977821   5.7506342  60.2691345  23.8483601   6.2369852
  13.0966444  48.8922691  26.0678520  13.8832350  49.1001015  26.5721474
  13.3952112  48.8648949  25.1588192  10.4775057  42.9993553  88.9623795
   9.6481447  43.3685226  88.6588974  11.1400452  43.6237755  88.6668015
  70.0615463  18.7432308  66.8294144  70.5798645  19.4587574  67.1976547
  69.6733398  18.3121872  67.5908127  59.8193665  30.6713066  83.8299713
  58.9084282  30.9650364  83.8181229  60.3066139  31.4160900  84.1822815
  67.8485718  19.8493462  54.0457573  67.1014481  19.6071358  54.5929070
  68.1210938  19.0285664  53.6355286   0.5648517  37.0998039  70.9492035
   0.2300593  36.8425331  70.0901566   0.7529764  36.2716446  71.3907852
   0.1998574  62.0423775  68.2342453   0.1770513  62.9901695  68.3661575
   0.0901838  61.9292488  67.2901077   9.9838495  35.7200623  55.0098152
  10.3463612  35.6286659  54.1286430   9.0541220  35.5160866  54.9086609
  32.0124321  10.5382023  70.6248703  31.7154007  10.2934465  71.5012817
  32.6430511   9.8584566  70.3871765  49.0023155  20.1685867  79.3421860
  48.9683914  21.1209526  79.2522964  48.8025894  19.8380775  78.4663391
  80.9224854  36.4592514  34.4639244  81.0781860  35.5594940  34.7510262
  81.7964706  36.8437119  34.3962936  21.0032539  64.4886093  29.1902161
  21.4053631  65.3568802  29.1648426  20.6846447  64.3460693  28.2989235
  48.0432472   6.3979568  69.6898956  48.7306061   6.7008996  70.2831879
  48.4199333   6.4985576  68.8156967  63.6962204  66.8108368  35.6536064
  62.9855919  66.1750336  35.5700188  63.3326149  67.6239090  35.3029900
   1.7113962  36.7071648  21.2000732   1.0597917  36.0075035  21.2460442
   2.5440204  36.2713470  21.3818207  49.2611732  45.3781013   8.3990211
  48.5600777  44.9475288   8.8882093  48.8252907  45.7481079   7.6313386
  81.7937698  27.4160538  61.8787651  81.6430817  26.4768753  61.9858513
  81.6277237  27.7856846  62.7459641  26.7925529  66.9643326  82.4874268
  26.7709370  66.1786499  83.0337524  26.1884079  67.5706863  82.9158859
  10.4222050  49.0649605  27.9319763  11.2315264  48.5888901  28.1179523
  10.1123285  48.6965408  27.1046448  50.3502083  52.4728279  30.1306705
  51.0607109  53.0445328  29.8398609  50.6519279  52.1233673  30.9691658
  63.1877480  46.4368515  84.5681839  63.9217796  45.9790497  84.1585007
  63.5983276  47.0536957  85.1741257  59.4629745   4.8847079  15.7668657
  59.9131737   5.7293911  15.7748032  58.7574158   4.9953303  15.1295443
  31.7141800  59.1624527  12.4169083  30.9441414  59.2833061  11.8613300
  32.3061218  58.6237183  11.8919296   9.5524588  64.8547821   7.8948669
   9.4328642  64.9487000   8.8399115  10.0949450  64.0720291   7.7987151
  57.6672630  34.2946930  62.0561485  58.0673370  34.4339523  62.9145088
  58.2468224  33.6698875  61.6203041  23.7179413  64.7286606  66.0740051
  23.9929485  64.3621979  66.9144287  24.1894493  65.5591431  66.0090485
  82.4748459  46.0035057  38.3749809  82.6853790  46.5693398  37.6321907
  83.2429276  45.4407082  38.4726105   2.3989284  17.5484314  69.3666611
   1.7696832  17.8577595  68.7150497   3.2281783  17.4936619  68.8917160
  41.7439499  22.8944550  75.1477127  41.1984062  22.1079693  75.1400681
  41.3039856  23.4969654  74.5480118  51.7672997  61.4536934  35.5248680
  51.3367119  62.3077278  35.5629654  52.5891685  61.5784492  35.9994202
  54.5962830  26.3468533  73.4177704  54.6393433  25.5155334  72.9452438
  55.4214401  26.7844334  73.2083130  43.3760910  70.4621964  24.9369278
  43.7694511  70.2724609  25.7886906  43.0683022  71.3655167  25.0111294
  73.4278793  32.3693047   2.6567788  73.4390335  33.1000633   2.0386379
  74.2410660  31.8955021   2.4822125  58.2758141   4.0339994  39.2837257
  58.0351868   4.1864486  38.3698921  57.4709816   3.7170851  39.6936569
  29.2337818  40.7217407  77.9451981  29.7685890  41.5155945  77.9479446
  28.6048985  40.8541603  78.6545639   0.4055775  19.7636929  59.0166626
  -0.5499644  19.7280655  59.0602760   0.5973435  19.9243641  58.0927353
  21.3817997  53.8507385  38.2303314  20.6311970  53.6163406  37.6845436
  21.9901428  53.1188278  38.1280823  39.4191437  61.1815872  79.8668976
  39.3184471  60.7465782  80.7135696  39.1728630  60.5158234  79.2247696
  38.8753662   1.1288117  35.3789711  39.4063606   0.5722705  35.9486542
  38.3011017   1.6059685  35.9779472  38.2463799  66.0525055  73.0082474
  37.6505127  65.9024353  73.7421799  39.0979729  66.2039337  73.4182281
  13.8001204  49.3394165  12.8326559  13.0512171  49.8552437  12.5338306
  13.7917147  49.4345131  13.7850828  72.5331116  28.4708900  17.2000561
  73.4167252  28.5137062  16.8345070  72.5803909  27.7796955  17.8605442
  47.5011673  43.8609657  63.4308586  47.0549202  43.8697166  64.2776260
  47.5253906  42.9368820  63.1824265  28.4193287  42.3698502  11.7778015
  29.1311646  41.8082924  12.0846815  28.7169476  42.6900101  10.9262419
  74.0256577  63.4925919  76.4881287  73.5885239  64.3141556  76.7121429
  74.5156021  63.6917725  75.6903076  71.9367294   8.2195816  13.2763128
  71.2167664   8.2342148  12.6456976  72.2036591   7.3011184  13.3138018
  28.8500595  40.3123703  51.4490013  29.7406597  40.0064087  51.6206169
  28.9563961  41.0061646  50.7981796  83.7946320  66.3765030   8.0084257
  82.9123383  66.1545639   8.3059511  84.3539581  66.2000732   8.7649088
  46.5718307  26.1938992  75.1555939  46.0428238  26.9016037  74.7874451
  47.4702263  26.5221214  75.1183472  44.5123901  39.2271423  78.9613800
  43.7386971  39.3702927  78.4162750  44.2993584  38.4518089  79.4807129
   9.6178198  58.3420715  21.2154083   9.7287197  57.7835960  21.9848499
  10.3496637  58.1102066  20.6436787  14.3146296  31.8206177  69.2143021
  14.1770086  31.4372597  68.3480911  15.2586870  31.7549038  69.3580704
   7.1033840  59.4073219  53.7471657   6.9064064  59.4235497  52.8105927
   8.0537052  59.5119057  53.7938957   4.4255381  15.7796707   7.1264396
   4.1175742  15.2757654   7.8797455   4.0140176  15.3582191   6.3719449
  80.9822922   6.2555747  47.0538063  80.8029633   5.3155627  47.0326157
  80.7058716   6.5715938  46.1936035  54.9364586  24.4522362  87.3799896
  54.5596733  24.7624054  88.2034302  55.2008133  23.5504875  87.5621948
  83.3356857  20.2790089  23.0158653  83.8138657  19.8255215  22.3216553
  83.9419479  20.9528065  23.3235588  46.6522827   1.9311372  16.3350506
  45.8714676   1.4210038  16.5502892  47.3133278   1.2752694  16.1134987
  85.5602570  39.0356941  44.6660881  85.9898300  38.2474556  44.3338585
  85.2418289  38.7872353  45.5339050  38.0054169  71.0229340  29.5077686
  38.2853889  71.9206161  29.6867027  38.5575752  70.7406769  28.7786045
  75.9322662  28.6411228   1.5832354  75.7755814  29.2392101   0.8525012
  76.8051529  28.8734665   1.8999763  29.9202824  55.1425934  24.3237190
  29.1082687  54.8176308  24.7126446  29.7146378  55.2505875  23.3951283
   5.0388217  68.6190567   5.0486469   5.3100104  69.2940903   5.6707568
   5.1706443  69.0187683   4.1889467  45.5292282  69.6606140  83.9028397
  46.4538307  69.5235901  83.6965179  45.1102867  68.8265686  83.6904755
   5.6668863  58.2585831  36.2999268   5.4085894  57.9299927  35.4387970
   4.8471742  58.3132820  36.7911606  47.7973175  21.9094372  21.4825211
  47.4855347  21.5206394  22.2997494  48.7483482  21.9488831  21.5835819
  80.4436264  54.0875893  37.3165703  80.3275681  54.9911385  37.0227051
  81.3288040  54.0658112  37.6801872  63.2230453  69.4234467  69.4002075
  63.4256897  69.1794510  68.4970856  63.9002495  70.0580368  69.6345673
  80.1733780   9.2281237  38.6999550  80.7041855   8.7778711  39.3570290
  79.9464569   8.5465641  38.0673294  56.5864410  70.7639999  57.4962120
  55.7905388  70.9515610  56.9986305  57.0899963  71.5771484  57.4580154
  11.1378441   7.0551815  70.6478806  10.8504429   7.6205115  71.3648376
  10.4941082   6.3470449  70.6284332  49.3539581  14.8060560   6.7842636
  49.2016907  14.0857334   7.3959675  50.1335526  15.2466707   7.1223879
  46.2109261  70.1323471  66.1151123  46.9586678  69.5373840  66.1711273
  46.2628479  70.6580963  66.9133072  23.7634525  70.0810318  85.0223389
  24.2634354  70.8596802  85.2671890  24.3539143  69.3500748  85.2048111
  24.9853210  15.1444368  14.1420155  25.9374371  15.0463572  14.1512985
  24.6544571  14.2569466  14.0037327  42.9893608  44.2999878  49.7493286
  42.7429047  45.2021561  49.5454063  43.2983360  43.9421425  48.9170380
  17.4688740  20.0871124  78.4292755  18.1184559  20.3630600  77.7826462
  17.1029816  19.2783604  78.0711212  40.7807808  32.8361092  17.4598446
  41.1454735  31.9976902  17.7431889  41.5009956  33.2674141  16.9999619
  20.5559292  11.3558292  23.5188103  21.3119602  10.7787123  23.4111748
  20.8783207  12.2219238  23.2694626  20.6904640  14.1757288  41.6547470
  20.7119141  13.8597488  40.7514572  21.3481674  13.6487160  42.1085243
  24.7792625   7.0317988  77.5766144  24.6275349   6.8012061  78.4931488
  25.7265320   7.1543117  77.5141220  54.2977676  55.2522430   0.4655141
  53.9443932  55.1275177   1.3463100  53.5848351  54.9917831  -0.1176845
  70.2101974  69.0840225  81.8786850  70.3165512  68.7949905  80.9723892
  70.6237259  69.9468842  81.9049988  10.9440031  39.7987251  42.9238739
  10.7722158  39.3012199  43.7233810  10.0877132  39.8804054  42.5039597
  18.3812027  10.8838406  56.4501228  18.0301304  11.3586378  55.6967659
  18.0244751   9.9998264  56.3635406  48.9385986  26.7228737  70.0849762
  49.0056343  26.9805584  71.0043945  48.1118469  26.2435875  70.0302277
  41.4290352  12.4499130  11.5639277  41.4418564  12.7432013  10.6528568
  41.5309334  11.4996204  11.5110865  50.0854301  45.6317406  41.4557533
  49.9004707  45.5981216  42.3943138  50.7263451  46.3366280  41.3630409
  18.8163662  26.6299229  69.6371841  18.9447155  26.8333817  68.7107010
  19.3901005  25.8811550  69.7996826  45.7304344  22.7581406  81.2477875
  45.0907173  22.4866848  81.9060440  45.9748497  21.9468517  80.8024750
  12.4992514   0.0981401  19.5109673  12.1845350  -0.4871585  20.1998863
  11.7031298   0.4216698  19.0893631  18.6188889   6.2316399  75.5569458
  19.1416798   5.5386896  75.9603577  17.9182320   5.7672944  75.0990219
   9.1049128  37.1258621  22.4572906  10.0611744  37.0867615  22.4736137
   8.8588562  36.6423264  21.6686974  26.6348362  30.7868271  77.7889633
  26.8048477  31.5878124  78.2846985  25.7058125  30.8370457  77.5639648
   2.0444758   7.5017915  63.1182747   2.1698020   7.6513858  64.0553665
   2.2329636   8.3483601  62.7132721  46.7118568  58.9448051  30.8028660
  46.8304405  58.5529060  29.9376583  47.4859352  58.6740761  31.2965660
   5.9128304  18.1686344   1.7285755   5.3491206  18.0208302   2.4879284
   6.7037368  18.5674381   2.0914185  57.9898605   1.3042353  57.8277016
  57.7754936   2.0794740  58.3466301  58.9342003   1.3658321  57.6839828
   5.5981140  69.5387573   2.3517587   5.4064250  70.4732132   2.4310555
   4.8859487  69.1929855   1.8137147  53.9940224  53.0689812  22.5778637
  54.2451782  52.2789955  22.0992470  53.8534737  52.7701836  23.4763050
  19.2483311  37.7662010  70.6202164  19.1965427  38.4745636  71.2619095
  19.9304142  37.1860275  70.9584427  49.7510185  54.0004578  42.9881096
  48.9821701  53.5465660  42.6430244  50.4783783  53.4014015  42.8198471
  26.5796680  70.6350021  25.1532516  27.3950100  70.3414536  24.7467041
  26.8590508  71.0988159  25.9425907  69.0162430  58.0932770  87.3841095
  68.3082199  57.5594101  87.0236588  68.9476624  58.9273491  86.9195099
  16.6317158  55.1601677   9.2176752  16.7003918  55.0849800  10.1694431
  16.2987442  54.3089066   8.9335728  54.3502808  61.3802071  36.5274124
  54.9661865  60.6707649  36.7106552  54.5709724  62.0595436  37.1646156
  26.7339764  50.1152191  88.3485336  27.6774750  49.9539185  88.3435211
  26.6263962  50.9228783  87.8461914  35.3932991   8.1747980  75.4149399
  35.3870125   9.1259594  75.5221024  35.7708702   8.0340834  74.5466843
  50.9230385  70.8511658  81.4546967  50.3886108  70.7188644  80.6716766
  50.2893372  71.0259628  82.1504669  81.8413010   6.9806666  22.9416122
  82.5339127   6.5535436  23.4456825  81.6649857   6.3784623  22.2187729
  51.8682556  30.6470432  67.1573868  51.2592430  30.1026058  67.6563110
  51.3063164  31.1909218  66.6054306  64.0900116  48.4523277  62.8187828
  63.6081429  47.6367416  62.9560966  64.7422104  48.2359009  62.1524315
   0.6986902  70.6204453  24.0950546   1.1243092  69.9748688  23.5308647
   0.9554781  70.3694382  24.9823456   4.2114511  38.2657356  61.0194359
   3.9514656  38.0549278  60.1226654   4.6918807  37.4933090  61.3173828
  73.0673752  43.2376671  67.1738663  72.2879028  43.6458435  67.5507507
  73.7706223  43.8653679  67.3402023  50.0758972  63.8371124   9.3355646
  50.1407013  63.1609726  10.0100031  50.9498711  64.2260132   9.3015423
  52.4492874  40.0990448  27.9914474  52.2426109  39.2942352  28.4666309
  53.3173409  39.9416885  27.6200275  11.4609947  45.8600769  50.5597763
  10.9305182  45.9586639  49.7691383  12.2814360  46.3086967  50.3552132
  56.9068756  63.8043976  83.4917374  57.4923859  64.4471283  83.0913544
  56.0939026  63.8767815  82.9916687  55.8737526  34.4292717  51.3737030
  56.6082649  33.8355827  51.5294380  56.2336578  35.3020897  51.5314636
  46.8513794  71.5753021  80.8111877  46.1355438  71.1607513  80.3295670
  47.5715141  70.9469910  80.7576752  34.5376778  33.2626381  78.2270660
  34.7267303  34.1134033  78.6229019  33.5922050  33.2726135  78.0780106
  58.4498634   3.5920024  17.7998142  57.5380974   3.7984898  17.5941906
  58.9529533   4.0032344  17.0969505  36.3556061  25.9010487  85.6525116
  36.2737694  25.0288811  85.2666855  35.7357368  25.8994160  86.3818893
  46.9645844  65.3060532   0.5022177  46.0304031  65.2238388   0.6940104
  47.3970451  64.8222809   1.2059077  68.9150467  48.2110786   1.1511527
  69.8663712  48.1533966   1.0623010  68.6574097  47.3666916   1.5210994
  72.1009979  60.9940720  66.0837631  72.9294968  60.5647812  66.2971573
  72.2746277  61.4552879  65.2631760  84.5875778  69.9348068  22.5362282
  84.8047791  70.8159637  22.8405628  85.3130188  69.6949310  21.9596691
   5.2100601  65.7748337  16.5615559   4.7387753  65.2978058  15.8784971
   4.5213494  66.1564178  17.1058903  19.5377884  57.4918633  76.5077820
  20.4641418  57.2640114  76.4291382  19.1135292  57.0206947  75.7906799
  12.0387249  65.7098312  67.6951675  12.1553984  65.7957993  68.6413345
  12.8751211  65.3664246  67.3809280   9.2063904  43.0535393  56.9027290
   9.2051439  42.1741982  57.2808685   8.6144829  42.9926720  56.1529465
  85.7528992  62.4877930   5.2411828  85.4858017  63.3343620   4.8831096
  85.7965393  62.6306572   6.1866546   8.2958698  36.7753258   9.5515938
   9.0877924  37.2798424   9.7374878   7.6704731  37.4226112   9.2258148
  25.6721249  43.6772995   6.3744373  25.4073639  44.4643974   6.8504729
  26.6282101  43.7192955   6.3551555  76.9492340  63.0707741  63.4547501
  76.6975327  62.4686584  64.1549911  77.7783203  62.7229767  63.1263008
  33.8549271  48.3016930  60.3379364  34.6535225  47.9892311  59.9126778
  33.9964867  48.1301346  61.2689362  21.4800739   4.1187167   0.9516948
  21.0965023   3.3925557   0.4599680  20.8286533   4.3245077   1.6221676
  21.1055622  53.9103355  87.1563263  20.3976746  54.1586494  87.7508621
  20.8531170  54.2863960  86.3130722  50.3169899  24.1537590  73.3254318
  50.5475464  23.4426517  73.9232559  49.3598442  24.1579304  73.3160324
  28.8841877  18.3861866  72.1017227  29.2592354  17.5552025  71.8101120
  27.9685345  18.3456631  71.8257370  15.6873398  32.4807777   0.9526142
  16.2735500  31.8844471   1.4184253  16.2585697  33.1820450   0.6393200
  48.6477242  67.6534729  11.8701420  48.3543472  68.4781952  11.4828472
  49.3015518  67.9129333  12.5193138  33.7029533  26.5893764  68.9770660
  34.1597786  27.4255219  68.8854141  33.9489555  26.0950794  68.1951599
  47.7184563   3.4686158  18.5093002  47.5727081   2.8548932  17.7893448
  47.9028015   2.9113798  19.2654324  54.1870689   8.7783003  78.9444809
  54.8796387   9.4356880  79.0109863  53.8274155   8.7189178  79.8295517
  13.2241306  57.3867912  87.5055923  13.7704420  58.1723671  87.4801025
  13.7586975  56.7097435  87.0907745   6.5240760  35.7474670  37.3118057
   6.5403070  35.1907387  36.5333290   5.6143947  35.7182732  37.6082153
  65.8151550   5.8424578  36.8442612  65.1939774   5.9335742  37.5668068
  65.7589035   6.6741238  36.3737297  36.9436188   0.9497774  13.5072546
  36.3675117   0.8092747  14.2586479  37.8077431   0.6741899  13.8131485
  59.6381493  19.5344868  56.5390968  58.9593925  19.0556297  56.0634727
  60.2022972  19.8937416  55.8543282  48.1415672  20.3888836  42.7263298
  48.0261421  20.0586090  43.6173019  47.6999893  21.2381420  42.7266197
  16.6165409  66.0647202   1.0098436  16.2010670  65.3056564   1.4190332
  15.9047718  66.6943054   0.8947662  62.4109192  47.1264191   6.0332861
  62.5229301  47.6867867   5.2653852  61.5223236  46.7805023   5.9497962
   4.5426540  65.5087585  28.5776043   4.7099833  65.3056870  29.4979286
   5.4132042  65.5840759  28.1868343  58.6688118  64.6092300  36.8687439
  59.0145416  65.1303558  36.1440811  58.8879204  65.1135101  37.6522789
  49.3871765  50.0742264  72.6986847  49.9818459  50.7216415  72.3199310
  49.5401306  50.1314049  73.6418533  61.6908951  16.6807842  40.4868164
  61.8622551  16.4218063  41.3922424  62.1572571  17.5101624  40.3825722
  79.3609161  44.2118835  12.7340441  80.1490173  44.7092743  12.9525328
  79.3720322  43.4685059  13.3369484  38.4155273  48.1883087  52.0215378
  38.8293457  47.6910591  51.3160400  37.7044296  47.6248093  52.3265648
  12.3750868  57.0657120  50.5165939  12.2158813  56.2601242  51.0084496
  12.4297476  56.7822800  49.6039543   6.7908874  34.5286064   4.8531799
   7.7086096  34.2757378   4.9535556   6.5676780  34.2702065   3.9589553
  41.8457413  63.4639626  12.6237049  41.8930550  63.8722343  11.7592344
  42.6701279  63.7034187  13.0471163  27.7641964  21.7636890  14.7386436
  27.7693348  22.5230846  14.1559572  27.7856312  21.0095863  14.1494913
  70.5815811  66.1609726  15.0608454  70.1200790  66.2380371  15.8958969
  70.0509186  66.6678314  14.4462481  71.4669724  54.9028969   6.2352109
  71.9174728  55.2398682   7.0096350  70.8976135  54.2108307   6.5715170
  81.5245438  57.8919563   5.0740194  82.4416962  58.1636581   5.0386992
  81.1978836  58.2576904   5.8960657  68.1825409  48.1682243  12.4706373
  68.4246902  47.7018433  13.2706900  68.5641785  47.6466751  11.7645407
  76.9559708  64.0258560  83.0751343  76.2389450  64.6520309  83.1752243
  77.3035278  64.1976013  82.1999512  12.8288717  65.2221909  42.9811897
  13.6828604  64.9241028  43.2943611  12.5597277  64.5559082  42.3488464
  40.8843956  34.4099274  41.4430122  40.6338806  33.5478210  41.7750511
  40.8627510  34.9785843  42.2126808   4.1287465  29.1900387   7.8577762
   4.5762882  28.3849964   7.5973029   4.7812419  29.6736622   8.3643236
  46.5591660  47.8037338  13.5706224  45.7707710  48.2789764  13.3083067
  46.5714836  47.8688354  14.5255270  55.8443069  54.5926590   7.4850025
  56.0849457  53.8490524   8.0376091  56.6810722  54.9680824   7.2109399
  57.6892166  32.1281281  20.9916115  57.4070969  31.2554665  20.7175694
  57.0659332  32.3781471  21.6736984  77.1599503  22.3460464  32.8761177
  77.0682449  22.4307404  33.8251419  77.1427917  21.4023037  32.7171059
   2.4633689  21.0970860  33.9954910   2.1707020  20.6776733  34.8046074
   2.2147937  22.0157013  34.0984039  74.1193542  16.8249588  78.4962997
  73.3958206  17.3728447  78.8005371  74.6373444  17.4021225  77.9352341
  39.9604568  62.8105812  14.3914070  40.4823456  62.8258591  15.1936731
  40.5585289  63.1191101  13.7107086  42.5639343  16.2311459  85.6200027
  43.3453941  16.7753773  85.7167816  42.0448837  16.6745167  84.9490051
  31.2942009  67.6511459  50.0295525  30.7380810  67.7627945  50.8005905
  31.6642742  68.5199814  49.8733253  62.3783951  42.5094185  25.0725441
  62.3601341  43.1839142  25.7514782  63.2215843  42.6315193  24.6362438
  66.9531555  10.8934698  44.3940430  67.4930344  11.4021435  43.7890549
  67.4282608  10.9260597  45.2243690  54.7955627  25.6983032  61.2439957
  54.6267281  26.6156387  61.4589882  54.0831108  25.4558830  60.6524925
  53.5417747  58.8858147  46.0873489  54.2149582  59.5151634  46.3461494
  54.0321007  58.1306229  45.7625427  53.8801842  71.0536346  71.0554962
  53.6190491  71.3683701  71.9209366  54.0781136  70.1264725  71.1875000
  55.7203941   1.4379683  70.8144913  55.4302406   2.0126882  71.5228271
  55.0629272   0.7428948  70.7854691  21.7895069  62.2434692  26.0475922
  21.7941284  62.3093605  25.0926743  22.7145348  62.2586670  26.2932014
  67.4104233  55.6042709  49.9906883  67.7131882  55.7168007  49.0896339
  67.1392059  56.4807816  50.2634544  55.6704979  51.5736198  68.7525101
  55.2341156  51.5955658  67.9008560  55.9408569  52.4788437  68.9065018
  60.9764214  39.1865501  38.2605820  60.2458000  39.3677788  38.8518372
  61.1583252  40.0269508  37.8400192  33.1999168  29.5934486  14.4412432
  32.5978355  30.1006660  13.8967600  33.9594421  30.1648331  14.5547113
  54.7670288  10.5722122  19.0974140  54.2183304  10.9836321  18.4296570
  54.1487579  10.2709198  19.7631435  64.3395538  58.2756081  17.7394314
  64.4593048  59.0469208  17.1853828  64.0283051  58.6261711  18.5739784
  27.8277245  11.7508945  28.6961670  28.5977135  11.2898960  29.0290794
  27.3081474  11.9439354  29.4765568  72.6511917  62.4485626  42.7813110
  72.6346512  61.8405838  42.0421753  71.7383499  62.7136726  42.8938446
  86.0159836  67.6414490  67.3004761  85.6411438  67.0130844  67.9176331
  86.8402786  67.2418671  67.0228043  63.2595978  68.4043961  55.1192627
  62.8353233  69.2576447  55.2097397  63.1173134  68.1619720  54.2042656
   3.5730376  54.1358337  33.2946472   3.3172770  53.8322601  34.1656570
   2.7439849  54.2965508  32.8440094  23.8694763   4.4221177  11.7832060
  23.5060520   4.9803400  11.0957870  23.1714115   4.3598075  12.4351673
  57.3960152  37.7852287  63.3592224  58.1139450  37.1599426  63.4583435
  57.6395912  38.5206604  63.9213982   8.6713486  20.1648407  15.1940603
   8.4169350  20.0354328  14.2804089   8.4940977  21.0901394  15.3632860
  29.9269123  33.0602684  61.3039513  30.6221695  33.3660164  61.8865013
  30.0302410  33.5863419  60.5109787  50.6107941   0.6269231  75.2623215
  51.3734436   0.2735808  75.7202988  49.9222031   0.6507521  75.9267807
  57.7915688  18.0456161  45.2194901  57.8500404  17.1378784  44.9214554
  58.1641655  18.0327206  46.1011009   5.6733494  46.8592377  49.5864449
   5.3372455  47.6330986  50.0385551   6.0949516  47.2055740  48.7999725
  64.6190872  45.2204857  51.5584755  64.2266769  46.0805550  51.7085953
  65.3522644  45.1812477  52.1725922  53.3677826  41.9485016   8.8310862
  52.4514389  42.1924400   8.7005634  53.8381653  42.7820625   8.8430901
  49.3850937  29.8561306  27.9265823  49.3594398  30.6235790  28.4980679
  48.9008827  30.1230583  27.1452236  46.3663635   1.4630467  75.8791733
  45.4379044   1.4607141  76.1119537  46.5296097   2.3485012  75.5542831
  13.1757889  69.2111893  54.8104668  12.4636831  69.3830261  54.1943436
  13.9215012  68.9806519  54.2563934  41.2475815  58.5203972   4.3409925
  40.5882111  58.1132317   4.9028420  41.1002312  59.4608269   4.4415436
  24.1406155  10.6939678   5.0645032  23.8947945  10.9154358   5.9626989
  23.3908634  10.2056198   4.7244744  38.8614006  19.3610725  19.6012821
  38.7586555  19.9133568  18.8262615  38.5044060  18.5123558  19.3396206
  73.8673096   7.0145063  73.2310638  74.0620422   7.1832495  72.3091965
  72.9200668   7.1329646  73.3013382  22.3403301  16.0228901  68.2494812
  21.4729557  15.8066645  67.9072266  22.9489555  15.5948744  67.6473160
  49.3397560  65.8560104   7.8241868  49.5408707  65.0920868   8.3647423
  50.0200157  65.8587036   7.1507835  41.0811691  52.5336494  44.5718002
  40.2289925  52.5663681  44.1371155  41.6040764  51.9430084  44.0296326
  38.8047829  68.5021515   3.6117349  37.9429131  68.3259277   3.9890432
  39.1015472  69.2977219   4.0535765  24.7099094  61.1076660  10.2707014
  24.2058239  60.3756828   9.9152708  24.0603085  61.7937698  10.4240360
  37.3537941  32.9710579  71.2333832  38.1710129  33.0589905  70.7428207
  37.6031342  33.1276627  72.1441727  52.6118050  59.1296120  32.5100822
  52.8361626  59.1306610  31.5795498  52.6889954  60.0458565  32.7761040
  84.9959030   7.3679028  74.1792374  84.0906677   7.4077201  73.8706970
  85.5215607   7.5765018  73.4069672  35.5138893   2.3608341  82.4470367
  35.3584671   1.6540147  81.8205490  35.0746803   2.0725675  83.2471771
   6.4996614  32.6249466  28.4138260   7.1031837  33.3648720  28.3467388
   5.8444424  32.7880173  27.7353516  74.7941208  54.2491379  25.6439514
  75.0460739  53.5407562  25.0515461  75.2631607  54.0599785  26.4566307
  25.4417610  43.1038017  52.6106339  25.6261101  43.5230980  53.4511299
  25.2202587  43.8279648  52.0251808  42.1607819  65.1242371   3.4220665
  42.0250511  66.0687180   3.3461394  43.1104965  65.0230942   3.4856761
  65.1672211  42.2329559  49.5716629  65.1655579  41.8893433  50.4650612
  66.0885544  42.4152069  49.3868561  16.5022297  21.2147541  13.9493189
  16.8298359  20.5848808  14.5913210  15.7809076  20.7601490  13.5142803
  59.0564995  70.0915070  54.2875977  58.6049614  69.7858505  53.5008888
  58.5094910  70.8052139  54.6156845  81.4753265  29.1326427  69.7955704
  80.5415115  29.3297539  69.7222977  81.9032516  29.9885693  69.7732544
   0.9476346  46.9623337  58.0571213   0.0351748  46.9678917  58.3462906
   0.9417211  46.4389648  57.2556953  31.7558994   2.2010343  87.3116531
  32.1507568   1.3984509  87.6525040  31.5690899   2.0048838  86.3935776
  37.9462013  65.8740921  50.3589783  38.4197693  65.9073944  51.1901512
  38.0206032  64.9623108  50.0772858  80.9362335  42.8891106  29.9040070
  81.2866592  42.0133705  29.7411633  80.1136703  42.9126701  29.4150715
  83.2944489  67.3303833  65.9818497  83.2031326  66.3935852  65.8077698
  84.2166519  67.4423447  66.2125854  80.2844315  31.0773582  75.4665909
  79.4585190  30.6207352  75.6265945  80.0334320  31.8634911  74.9815903
  29.0721970  70.6482544  88.3128662  29.4297733  71.4423218  88.7101364
  28.7362137  70.9355774  87.4638748  84.3089142  20.2795544  18.3296928
  84.1327133  19.4246044  18.7224331  83.6840591  20.8699074  18.7507362
  75.8822250  23.4183331  25.0488014  74.9307785  23.3421726  25.1207981
  76.2201843  22.6664639  25.5353241  52.4468040  35.6743317  66.1839447
  51.8155441  36.3411598  65.9136124  52.1785316  35.4363441  67.0714264
  65.6038818  14.9016132   1.8634852  64.7850952  15.1359348   1.4265580
  65.9810791  14.2151976   1.3132217  72.7267151  10.9911785  65.6507034
  73.0584335  11.2470493  64.7900467  72.1871414  10.2192831  65.4796295
  53.3050880  49.1602402  38.6742058  52.7477112  49.9171181  38.8550224
  54.1939087  49.5152512  38.6600761  33.5921783  49.8082848  24.8637066
  33.6128044  48.8816338  25.1027107  34.5102882  50.0788307  24.8741646
  44.2033539  55.1420937  40.3983955  44.6943817  55.4774590  39.6482964
  44.0435829  55.9123077  40.9438057   9.9411287   5.1457410  80.4840622
   9.3310909   5.4231019  79.8005753  10.7371655   5.6491151  80.3132706
  58.6099052   6.3379078  83.7970047  58.9905548   5.8098750  83.0951996
  58.4161263   7.1799145  83.3850479  50.2860298  58.4987373  55.5554543
  49.4238472  58.1063957  55.4178314  50.7287521  57.8994179  56.1563263
  83.0572052  67.8436813  32.0584030  82.2409515  68.2261963  32.3803596
  83.0057983  67.9354172  31.1069965   1.1168014  59.3444519  73.9613876
   1.9526967  59.5029640  73.5227737   1.0857388  59.9972305  74.6607819
  83.6168060  70.3483963  80.2006760  83.7706223  70.0597076  79.3011017
  84.4734268  70.2834702  80.6228333   1.0757525  13.9910002  67.1133347
   0.4177238  13.4001112  67.4794998   1.6051077  13.4351206  66.5414810
  72.2985153   3.5307848  73.7855606  72.2693558   4.3629928  74.2575912
  73.1906128   3.4813743  73.4421005  80.2733459   4.6498718  63.1508331
  79.6216736   4.3908434  62.4993248  80.8394775   5.2691951  62.6902199
  80.1163330  19.5160828   5.7493916  79.9995499  19.8023186   6.6552954
  80.3291092  18.5853424   5.8178320  43.8699989  39.5347366   8.4926882
  44.2760735  39.7430878   9.3340702  44.0674782  38.6084137   8.3542814
  32.8245125  39.1188431  36.5781784  33.0648499  39.9039917  37.0701256
  32.0518913  38.7800179  37.0303802   4.5128059  49.8808937  75.7047806
   3.7516224  49.4279022  75.3419724   4.2475748  50.7996902  75.7459564
   1.4889052  35.8551140  67.0010147   1.0439389  35.0160255  66.8820114
   0.8950191  36.3651543  67.5518265  27.9683666  53.3372612  52.8392715
  27.6474743  52.8731194  52.0660782  28.9138165  53.4020462  52.7045135
   9.1221113  62.9235497  78.8766403   9.2252645  63.5677757  78.1762390
  10.0065413  62.5899353  79.0273666  55.8412628  45.6949463  31.1256104
  55.0102386  46.0199203  30.7791729  55.8709488  46.0233459  32.0242233
  38.6287880  53.8722649   5.0905414  39.3054657  53.9988213   4.4254661
  39.0533333  54.1149750   5.9133925  50.1558266  45.5820198  50.7581139
  51.0452080  45.2329292  50.8161430  50.2613487  46.5265427  50.8720016
  66.3955307  14.8754272  83.2100143  66.6392212  14.2290125  83.8725815
  66.3783875  14.3826780  82.3895645   4.9543924  69.0952682  18.9281750
   3.9983156  69.1236038  18.8914948   5.1492953  68.4148102  19.5725517
  77.1343842  68.5394745  69.3762131  77.6930847  67.7772446  69.5281754
  77.6882706  69.2894516  69.5929718  84.5444260  56.4425011  15.3327570
  85.0886536  55.6695671  15.1823616  85.1507568  57.0994949  15.6747427
  33.9111023  22.5804920  73.4054260  34.1990356  23.4501209  73.1278076
  33.2045898  22.3573227  72.7994003  25.3594856  56.5837555  50.0708733
  25.3782654  56.1518631  50.9248924  26.2798557  56.6529312  49.8171692
  -0.2135253  64.2360458  69.4952545   0.5149184  64.8563232  69.5245743
  -0.2232544  63.8367386  70.3651276  80.5450363  21.8851109  64.9421310
  80.3818512  21.1822224  65.5710602  80.2896729  22.6837349  65.4038849
   9.8989744  32.8612976  64.1810913  10.6329174  33.3124580  63.7639427
   9.8408051  32.0233536  63.7220688  39.8094521   3.4785056  25.0268421
  39.0174294   3.4974508  25.5640316  40.3925514   2.8704150  25.4812145
  28.1218967  56.4980927  79.7346344  28.4284744  56.7595253  80.6029053
  28.3879452  57.2162361  79.1604233  40.3559303   2.0310161  53.7774010
  39.4208488   1.8669116  53.8995552  40.7215309   2.0029826  54.6615868
  13.7727861  63.1958313  18.4012203  13.7628689  63.5461540  17.5104847
  14.3964424  62.4705238  18.3663979   5.1283031  45.7920685  65.2903748
   5.0329876  45.4394417  64.4056168   5.0964890  45.0230408  65.8594208
  25.1713886  59.5017281  44.1660995  26.1225204  59.4199791  44.2360840
  25.0323334  59.9976044  43.3592529  30.4092331   0.3809863   7.6806593
  30.5655003  -0.1516411   8.4604797  30.1277790   1.2295493   8.0226469
  34.7680664  66.1112366  26.3059120  34.9092484  66.4762421  27.1794491
  34.3603630  65.2599564  26.4650631  32.4584618  56.0850830  50.0686951
  31.5109367  56.0007553  50.1750679  32.5646782  56.6074219  49.2736397
   1.7136072  33.7556267  40.1093903   1.0730740  33.5084114  39.4424286
   1.2144305  33.7734299  40.9259300  33.8094139  65.3735657  19.4968777
  34.4038963  64.6248627  19.5444145  33.1687965  65.1287231  18.8291264
  40.3173981  15.0442457  83.7182541  40.3224220  14.2732592  83.1509933
  39.9673576  15.7445307  83.1675262  57.8676224  69.6751633  22.8794556
  57.1605568  70.1343460  22.4261990  58.6151352  70.2702866  22.8220692
  17.4655209  53.4869423  55.3609085  17.1939430  53.5161171  54.4435043
  17.2401314  54.3512459  55.7050171  39.0079498  49.0643959  29.6751862
  39.4693756  49.6404610  29.0657024  38.5473633  49.6603355  30.2659035
  84.7915039  60.2581940  24.6015205  85.2041626  61.0482635  24.9504204
  83.9046173  60.5336609  24.3696098   9.8929739  50.0169067  52.7594414
  10.7125540  49.5400124  52.6287041   9.4152241  49.4989853  53.4073143
  59.6988869  28.0155773  40.1781197  59.0409660  28.5798054  39.7718964
  59.1928329  27.4055157  40.7147446  67.7756271  36.5058823  41.7405701
  67.8670959  37.2451591  42.3416824  68.0813141  36.8427505  40.8983650
  16.6097794  39.1048241  11.0625544  16.5419483  38.1997604  10.7584352
  17.5004101  39.3689308  10.8317766  27.1534901   2.0942969  19.6469822
  27.0139847   2.3573849  18.7372818  27.0647335   2.9055378  20.1472244
  68.2179947  69.5686646  65.6071243  68.4140244  68.6349945  65.5293121
  69.0474625  70.0046387  65.4118271  19.7822495  47.9208641  80.1089630
  19.6845322  47.5696831  79.2238922  19.5280437  48.8404083  80.0311966
  51.9390373  45.3486786  69.8034592  52.0600128  44.4559212  70.1268616
  51.7619896  45.8660736  70.5890732  24.8397675  18.8844337  83.2274170
  24.3315887  19.5864697  82.8210526  25.7217731  18.9899006  82.8708038
  42.3735657  43.9604874   5.1851120  42.0945778  44.4978905   5.9264588
  43.1881447  44.3661995   4.8883085  34.6006737  54.6694298  43.5099640
  34.6142387  54.1704292  44.3266945  35.5225906  54.7585106  43.2683716
   5.7813401  11.9273520  85.7996750   4.8795514  12.1568651  86.0240250
   6.1110382  11.4685764  86.5723648  12.0134201  67.7834320  33.3528595
  12.8608131  67.3429947  33.4174652  11.3778610  67.0710220  33.2837944
  49.9934883  64.6967087  61.6292648  50.2332077  65.3006973  62.3320923
  50.7819290  64.6311722  61.0904732  69.9292679  68.6480789  53.1874352
  69.2404861  67.9867172  53.2539711  69.6801910  69.3181686  53.8239632
  65.8697281   5.0016518  43.4709358  65.5698547   5.0308609  42.5623894
  66.8238220   4.9587164  43.4069939  16.2899761  33.4260712  55.9663162
  17.1823921  33.2266502  56.2492599  15.7315378  32.9837608  56.6056442
  23.6614914  58.8279343   4.4095602  23.9636688  58.9970551   3.5171928
  24.0165749  59.5527878   4.9240847  74.1634827  18.7679062  34.6320457
  74.9412003  19.2667675  34.8820992  73.6437531  18.7165031  35.4342117
  32.7524109   7.8983974  69.7953720  33.2203712   7.4739680  69.0762711
  32.6999702   7.2274671  70.4760590  57.9332886  34.1881294  36.8872452
  57.9239349  35.1381683  36.7707520  58.8130188  33.9952278  37.2114372
   0.7389013  45.5975723  55.6796074   0.1107115  44.9114494  55.9050827
   0.9318718  45.4507370  54.7536278  65.0133362  61.8723183  83.7425766
  64.7702332  62.4645653  83.0309753  64.4865265  61.0875244  83.5915604
  81.0080948   8.5348005  24.9282207  80.0537109   8.5407543  24.8551159
  81.3005753   7.9850893  24.2012348  45.1532860  55.6579933  14.0789499
  44.9198799  55.5432663  13.1577606  45.1030540  54.7771759  14.4502525
  30.5921555  13.7423754  83.0184937  31.2231255  13.9624586  83.7038193
  29.9501381  13.1823759  83.4548950   2.0196261  33.0404243  23.2833176
   1.0946099  32.7943649  23.2889194   2.0184193  33.9807663  23.4621792
  60.3264236   2.9306209   2.9011869  60.0514259   2.3110743   2.2253394
  59.8137550   3.7196720   2.7256882  82.7230301  40.5039062  43.9260025
  81.7780228  40.5125885  43.7739487  83.0940399  40.1707764  43.1089325
  47.8807945  55.3359947  12.0337458  48.2013321  56.0336227  11.4620800
  46.9940147  55.1580467  11.7203979  50.7101707  32.4826317  17.2673111
  51.2630768  31.7095718  17.1537361  50.3285637  32.6333199  16.4024982
  16.9103508  33.1715775  63.4992561  16.7068100  33.8416252  62.8466949
  17.3047829  32.4592018  62.9960899  53.8670158  13.4979343  36.0207405
  53.9203873  14.4120064  35.7417145  53.3885841  13.0601435  35.3167000
  52.9116669  14.4265518   3.0601513  52.3630447  14.4729328   3.8431547
  53.3478241  15.2777767   3.0225320  72.9816742  18.4941120  62.9183350
  72.5742493  17.7585220  63.3756599  73.5678253  18.8842583  63.5667572
  46.5421104  37.8608246  36.3313828  45.7984009  37.7844162  35.7336426
  47.2309456  37.3348198  35.9251137  82.2789536  30.6727467  73.1865616
  81.6395645  30.1285133  72.7269821  81.7779770  31.0915184  73.8864822
  60.4644356  31.1564369  21.9948311  59.8537865  31.8686752  21.8049469
  60.3985405  31.0304108  22.9414062  64.3729248  29.8827229  37.2757454
  64.9139328  29.2489872  37.7468224  63.9442940  30.3906307  37.9646111
  61.0228615  21.0051708  45.8798790  60.0934677  20.7955322  45.9721031
  61.3411102  20.3951378  45.2144394  28.8664742   3.1242661  87.6713715
  29.8222923   3.1213653  87.7227325  28.6383877   4.0386930  87.5039444
  68.3874359  15.7133036   7.5530405  67.4604187  15.5387993   7.3904643
  68.5879745  15.2204533   8.3487234   9.5494146  13.8415527  81.4095078
   9.6456585  13.0834284  80.8331223  10.3097696  14.3891449  81.2139740
  54.9628639  32.6223755  73.3803406  54.3106918  32.1515465  72.8614731
  54.6543388  33.5284576  73.3877869  49.6213417  47.6303177  15.0837717
  50.0468330  46.9985199  14.5041008  50.3430443  48.1345673  15.4594250
  45.3466225  25.8934097  66.6902542  45.6594925  25.2835712  66.0220947
  44.4394379  26.0738487  66.4439011   7.3910108   3.2269020   8.0150986
   7.0396705   4.0996218   8.1915989   8.0839405   3.1116619   8.6653299
  57.4207039  23.4044952  13.6123533  57.6705322  24.0329227  12.9349346
  56.7125969  23.8363037  14.0902195  30.5241547  63.2710876  39.2903023
  30.9498787  62.4689293  38.9877548  30.4289150  63.8040695  38.5009422
  41.8290672  70.6454010   9.3985968  42.2321930  71.4836578   9.1726398
  40.9931259  70.8822021   9.8002939   4.4487796  54.7064629   8.0763798
   4.2489152  53.8210449   8.3802290   4.1644559  55.2751274   8.7919292
  43.8787880  69.6902237  13.5457716  43.7142258  70.4183426  12.9466133
  44.3024940  69.0248947  13.0035086  23.4931316  42.2148857   6.1018839
  23.7113075  41.6372871   6.8333282  24.1194191  42.9354858   6.1706748
  31.4502716  62.7381058  49.8043365  31.8856564  62.1044350  49.2341347
  31.8428802  63.5793915  49.5712509  48.8060188  43.4866257   0.6869943
  48.8970871  43.7450485  -0.2301516  49.7036362  43.3373680   0.9840400
  38.3923454  24.3355865  63.5840340  37.6027985  24.7224598  63.9624214
  38.4489479  24.7158623  62.7074432  68.4097748  54.3051262  46.3726044
  67.5553513  53.8756561  46.4143028  69.0209274  53.6570892  46.7229919
  74.9777145  48.2408600  14.5068541  74.2851334  47.6259499  14.2650900
  75.5138626  48.3200340  13.7178612  85.6164703  28.2185078   8.3927126
  86.5415115  28.1169796   8.6168432  85.1763306  28.3274040   9.2357121
  65.3372421  65.8737106  44.8891716  66.0245972  65.4990005  45.4399529
  64.6797333  65.1812820  44.8223839  82.4710388  37.7806129  30.5647984
  81.9449234  36.9957123  30.7176228  82.9385071  37.6005478  29.7491493
  70.9413300  57.9764977  12.5515137  70.6856918  58.0739288  13.4687843
  71.7945480  58.4065132  12.4936895   0.9869311  68.8909073  56.5347137
   0.6326435  68.1078568  56.9560814   0.6217922  69.6192474  57.0371323
  46.8029785  50.1676521  20.6817913  46.8351784  49.2353592  20.4672565
  47.4062309  50.2648506  21.4185886  80.7040024  54.2751122  48.3642960
  81.1238708  54.0665779  47.5297585  80.6277161  55.2292633  48.3622131
  27.4709854  64.7958298  15.5733414  28.3217545  65.2324677  15.6154261
  27.0071011  65.2428665  14.8653841  59.1443291  41.3553009  31.4172382
  59.6472015  42.0640907  31.8184452  58.6771355  40.9498444  32.1476936
  24.6472340  55.0543594  26.7405109  25.1099854  55.8272781  27.0640717
  25.1500511  54.3143005  27.0806828  21.0795670  66.6793442   3.5658979
  20.2353020  66.8463821   3.1469169  21.6672764  67.3348083   3.1901467
  11.0745707  26.6573944  80.3110504  11.7684612  27.1560097  80.7424774
  11.2483044  26.7649536  79.3759155   0.8484068  54.0112648  51.4682579
   0.1760379  54.4991989  51.9437256   1.6615915  54.2093849  51.9327049
  76.7113571  32.7919807  41.8040466  76.6392822  32.6052742  42.7400894
  76.1247635  33.5349426  41.6621437  17.5047283  17.8640480  74.2041626
  18.0448837  17.9522572  73.4188690  17.1828384  18.7493324  74.3741379
  60.1845474  52.8069344  28.4061165  60.9016190  52.1926498  28.5632591
  59.6396141  52.7447166  29.1905975  76.5847778   7.1640911  66.5554810
  76.8019867   7.5363235  65.7007904  75.9805222   6.4483566  66.3584366
  58.7023354  67.5844421  42.0199890  59.4751396  67.2530365  42.4773445
  58.0109367  66.9576111  42.2327690  63.2884789  31.7537365   3.0268705
  62.6549492  31.0369282   2.9943841  62.7537308  32.5418663   3.1224110
  36.4160500   3.5640852  70.1920929  36.1423492   2.6751652  69.9659500
  35.6041374   4.0710502  70.1957626  18.7926464  60.6653709  53.9416542
  18.0383167  60.8764420  53.3915024  18.9084454  59.7209511  53.8372650
  44.0585403  54.8134422  47.0572624  44.4916077  55.6391449  47.2738419
  43.1299782  54.9804039  47.2189064  27.6024990  55.7409134  87.2130814
  27.7077885  55.0236092  87.8380737  27.6223145  56.5322952  87.7511826
  58.2145920  34.0488548  53.0566826  58.6165543  34.2673454  53.8974686
  57.6671410  34.8060722  52.8489609  32.5838585  37.0715256  20.8651066
  33.1267929  37.2449646  21.6341133  33.2030449  36.7815170  20.1952305
  14.4758940  54.5283585  43.2272415  15.3119764  54.5840187  43.6899490
  14.6185637  55.0150337  42.4154358   2.7718406  37.7459183  86.3662643
   3.4879696  38.1557655  85.8810730   1.9828900  38.1786041  86.0398102
  48.2597809  63.2303925   2.0573561  48.9841423  63.4413605   1.4682701
  48.6419792  63.2782402   2.9336367  66.4824219  44.2457924  68.4453964
  65.9288025  43.5831490  68.0323105  66.8318253  43.8139114  69.2249069
  55.2215767  19.0795479  45.1079407  56.1710281  18.9676590  45.0604820
  54.8722954  18.1904240  45.0471802  17.9864712  62.7852249  38.9508133
  18.5885525  62.9879303  38.2348251  17.1654816  63.2090340  38.7006226
  46.5297775  25.2924099  69.1289825  46.6475525  24.3557091  68.9710236
  46.0315094  25.6020641  68.3726273  34.6560860  68.2593460   7.6377492
  35.4803162  68.5929794   7.9921002  34.3420830  67.6441116   8.3004084
  56.9906311  41.8655853  21.2825241  57.3048477  41.9710655  20.3845406
  57.7422562  42.0972939  21.8280525  70.9599152   7.2214928  27.7387924
  71.8171387   6.8839512  27.9985485  71.1564789   8.0066614  27.2278080
  65.6569901  55.0734138  43.9826736  65.8055191  55.9980927  44.1805038
  65.2771912  55.0744629  43.1040497  17.4218636  59.3739090  46.8382797
  16.9244900  59.5169449  46.0330505  16.8081245  58.9295120  47.4231453
  81.1193085  29.1953793  18.0615387  80.4963531  29.9212704  18.0967274
  80.6645813  28.4686584  18.4873695  53.8597260   4.1908536   9.2482681
  53.0784416   4.4243135   8.7469416  54.5829697   4.5889235   8.7638235
  73.7690506  36.6430969  32.5816498  74.5502396  36.2728081  32.1707268
  73.3756332  37.1883354  31.9003468  74.5204239   5.4070640  66.1292343
  74.3128357   5.3718233  67.0629883  74.4089050   4.5064011  65.8249283
  32.8026466  48.9441376  72.4028854  33.6971512  48.6092834  72.4658813
  32.8355446  49.5826721  71.6905518  54.0516701  58.7954826  56.2045593
  53.2131653  58.9744606  56.6301346  54.3888359  58.0214996  56.6556702
  43.9071274   4.1399055  86.7772446  44.3343315   4.9939890  86.8425903
  43.0860596   4.2454014  87.2578201  43.1346626  16.5810051  71.5217972
  43.5263062  16.8895283  72.3389053  43.1750412  15.6265688  71.5822449
  15.7987804  27.1877575   3.2461402  15.8124590  27.8947220   2.6009674
  14.8818388  27.1253185   3.5136275  55.6814232  50.6266670  71.2804642
  55.5941696  50.8307991  70.3493652  56.3863335  49.9802475  71.3189163
  62.8137245  30.6742611  20.5080967  61.8699951  30.8342724  20.5104904
  63.1162224  31.0380383  19.6759930   2.1959429  44.2501945  46.5389099
   2.1479855  44.6759377  47.3948784   2.8944252  44.7155838  46.0787315
  35.2544365  39.3276482   3.4954460  35.4931488  38.4175873   3.6716075
  35.4161530  39.4406776   2.5588009  66.2109604  39.4827499  54.2355614
  66.7972717  38.7262115  54.2465172  65.4953690  39.2397118  54.8230095
  19.5256538  39.4844856   0.1132645  20.2297554  40.0944481   0.3333071
  19.2331333  39.1416512   0.9577340   5.2568879  65.5571671  62.1913490
   6.0422974  65.1714935  61.8032494   5.4634757  65.6350708  63.1227341
  85.1557541  44.4786415  36.5632515  85.3670044  44.6632843  37.4784088
  85.9475555  44.7181168  36.0816460  57.3602180  26.0544090  78.2609863
  57.8543472  26.1185875  77.4437027  56.7439270  25.3372021  78.1125717
  66.7449570  68.7622833  15.6743879  67.3162003  68.3366470  15.0350542
  67.2050323  68.6659088  16.5082188  10.1776695  36.4349861  62.1091042
  10.6075373  35.8760910  62.7564697  10.7996473  36.4826393  61.3830872
  46.4311638  42.2414589  20.8443890  47.3335991  42.5456963  20.7480183
  45.9001732  43.0317764  20.7460194  65.6652603  68.7443314  65.2166595
  65.6873093  67.9791946  64.6419296  66.5278244  69.1462936  65.1135254
  85.0331726  21.5427914  54.0950127  84.3910141  21.1739941  53.4885025
  85.6540833  22.0068283  53.5334396  27.2196617  69.8889694  15.6832914
  26.8791752  70.0573654  14.8046894  26.4735355  70.0427246  16.2628479
  49.1957664  45.1957550  71.6734390  48.4797592  44.7053528  72.0772552
  48.8305092  46.0662689  71.5152359   1.8452057   3.9914718  20.6249561
   2.2079439   3.1349707  20.8509159   2.2453425   4.2063131  19.7823601
  60.3995819  15.0248241  32.8651352  59.5056152  14.9555979  32.5300827
  60.8389549  15.6169338  32.2547340  22.7005959  30.0649014  11.7027330
  22.4030247  30.2124596  12.6004591  22.0384579  29.4874496  11.3227892
  37.5287743   6.0575562   8.5768700  38.3539200   6.4533386   8.2962942
  37.7847328   5.2228765   8.9693308  33.8541565  38.7290459  15.5189047
  34.8076134  38.6446228  15.5140514  33.6972237  39.6731720  15.5038271
  74.7086563  50.4523811  46.7533684  74.5680237  50.9650040  47.5494041
  74.6373596  51.0894394  46.0425186  11.0336819  53.2974319  10.4927835
  10.1940088  53.6896019  10.7323313  11.6843834  53.9535484  10.7424526
  47.3032227  43.7758713  72.8405228  47.1254730  42.8514328  72.6671600
  46.5796013  44.0580978  73.3999481  27.8153076  67.5152435   9.9097013
  28.0953827  67.5575333  10.8240318  28.5074692  67.9660873   9.4260836
  78.7213135  40.9083633  52.1647568  78.8074875  40.6327782  51.2521477
  79.1708832  41.7525330  52.2035027  56.4216042  54.4465904  87.8806076
  56.3937798  53.5531006  88.2228470  55.7113152  54.8994293  88.3352051
  63.7540436  20.4688187  42.6507797  64.5037308  20.8183784  43.1324539
  64.1028519  19.7105026  42.1822472  70.8938904  40.0217018  42.5788612
  70.8664627  39.0835419  42.3908882  71.8268356  40.2259293  42.6431198
  59.9318924  44.0611801  70.9687119  60.5266953  43.3248711  71.1111526
  60.1641731  44.3923607  70.1011887  56.5203133  31.2346401  43.5982628
  56.4121208  31.9258728  44.2515030  56.3381081  31.6642570  42.7625198
  50.1836357  36.2913017  76.3061295  49.3392906  36.3913498  75.8664703
  49.9587822  36.0448227  77.2033081  26.6648579  33.2247963  12.3558502
  26.0594215  33.7522850  12.8768435  26.4578781  33.4487534  11.4485283
  75.7736969  32.8679390  77.8525162  75.0112610  33.3775063  77.5781631
  76.3908386  33.5200691  78.1843109  81.7062607  27.5360680  72.0067444
  81.8005219  27.8514900  71.1079407  82.3375168  26.8199253  72.0766983
  58.5869942  20.1053867   1.3375254  58.2889404  20.5254574   2.1443322
  58.9193420  20.8252926   0.8013220  15.8996811  24.4291821   8.5204020
  15.1882715  24.0642509   7.9941392  16.6969357  24.0899410   8.1135445
  70.6682358  69.5171204  34.8595009  70.7975388  70.1398926  35.5748138
  70.6444626  70.0594635  34.0711250  64.5304413  13.4754353  69.7488174
  64.5535583  12.7359314  69.1415024  63.6039162  13.7086420  69.8070831
  76.5678558  17.0802231  56.8886642  76.5489883  16.9888859  57.8413086
  75.8325882  17.6596565  56.6889954  71.1391983  56.7588501  55.1179352
  71.1918869  56.2034302  54.3401413  70.2688599  56.5862083  55.4770203
  82.0257797  63.4366341  48.6321106  82.1094894  64.3418427  48.9318237
  82.6946716  63.3462219  47.9534111  48.3182640  -0.0667767  77.5360413
  47.3776894   0.1089295  77.5620804  48.7235298   0.7582991  77.8029556
  81.8395309   7.0621052  19.4738197  81.4016190   6.4154000  20.0272102
  81.2033691   7.7718539  19.3855591  21.2668686  61.6729088  79.3634567
  20.9291649  62.3355331  78.7608719  21.8384190  61.1270943  78.8234177
  37.9923592  46.4467468  75.4563675  38.6073112  46.9628105  74.9350739
  38.5415726  45.9958992  76.0977173  73.0529633  25.0654850  86.7576981
  73.8143768  24.4948597  86.6534805  72.6070251  25.0267429  85.9116058
  38.6084900  64.6164322  43.6753578  39.3317680  64.5148010  43.0566750
  37.8531570  64.8304672  43.1277313  30.5420208  62.6414185  14.2658510
  30.8139114  63.4641380  14.6725950  31.3585606  62.1616898  14.1267233
  41.2666054  68.6116333  55.8311272  41.8205872  68.3406754  55.0990601
  41.5283813  69.5151978  56.0079613  76.8742065  39.7773628  74.0187378
  76.2833176  40.5054588  73.8264999  77.4279251  40.0996284  74.7299194
  68.3765335  15.6424456  75.0935822  69.3262024  15.5935326  75.2030182
  68.1574707  16.5498886  75.3052216  74.6710815  45.4179382  67.5715332
  75.5154724  45.8460159  67.4301987  74.3655701  45.7621117  68.4108429
   4.8000803  66.4852829  48.6264801   5.0878897  67.3743439  48.4192085
   3.9454741  66.6008987  49.0418282  16.7927418   9.6050005  27.0093861
  17.3074169  10.0281916  26.3221798  16.5585117   8.7524662  26.6425724
  39.1394043  22.0586910  11.1627111  38.8384781  21.9707470  12.0671129
  38.4148598  22.4904652  10.7101221  15.3400269  55.3103523  63.5414162
  15.3964767  55.3640366  62.5873909  15.0783558  56.1892853  63.8157005
  35.1976967   0.4434200  15.5659056  34.2716827   0.6090742  15.3890047
  35.1959763  -0.1388305  16.3256512  10.4495516  23.1609535  75.2506866
  10.0158777  23.7499313  75.8681488  11.0184984  22.6182861  75.7966232
   0.2457968  25.3030491  79.6484756   0.2443630  26.1406879  80.1117172
   1.1602762  25.0208626  79.6666489  70.0138779  35.6905251  12.0096769
  69.7533188  34.9312439  12.5310574  70.8803329  35.4633904  11.6721869
  85.4398804   0.7274437  23.6565914  86.2180710   0.2347325  23.9171505
  85.7183990   1.6430178  23.6762257  27.2565556  67.4556427  39.3843880
  27.3758373  68.1287689  40.0543900  27.0038128  66.6727676  39.8737335
  59.0261765  55.4856262  29.0510597  59.2072754  54.5460510  29.0762634
  59.3208237  55.8092537  29.9023399  49.2205315  43.4269257  75.5658951
  49.8202019  43.7841263  74.9108887  48.7986679  42.6883163  75.1268997
  37.9079285  24.8533287  46.3711548  37.7437706  25.4298801  45.6249161
  38.5335960  25.3346043  46.9125824  19.6674728   8.0018301  11.3775167
  19.6229553   8.4908361  10.5558577  20.0266228   8.6257257  12.0083876
  20.6749039  32.9795341  12.6429701  21.3705502  33.3596115  12.1064539
  19.8749218  33.1293793  12.1391783  34.0232697  46.5531883  27.6259861
  34.4070473  46.9880524  28.3874569  34.6631165  46.6860199  26.9265709
  45.5689011  47.1440277  30.0252132  44.8555298  46.8199844  29.4753685
  45.5598869  48.0922928  29.8950195  79.9174881  10.8661089  84.0921783
  80.1835556   9.9591455  84.2433624  79.0605240  10.9375668  84.5125809
  39.7105141  25.5866985  74.9919205  39.2048607  26.3991413  74.9699173
  39.0510178  24.8957386  75.0541611  22.4309540  42.8874092  17.4300041
  23.3265285  42.7639503  17.1154613  22.3887215  43.8115158  17.6759148
  40.0589714  41.9865799  55.2331772  40.8739395  41.5125427  55.3985443
  39.4915695  41.3454170  54.8051567  69.3598175  64.0470734  42.4931717
  69.7090225  63.9920120  41.6036453  68.4565277  63.7400970  42.4153061
   8.3110476  58.0216217  86.6855927   9.1451883  58.4337044  86.4605865
   8.5443840  57.1256981  86.9287109   6.0805054  69.0660248  72.6469727
   5.2981730  68.9306717  73.1816406   5.9911876  69.9587936  72.3134918
  32.7849388   7.3154531  10.8533363  32.9067116   8.2632303  10.7974663
  32.3963585   7.1743784  11.7166653  79.2834015  50.2854042   5.8234844
  78.5678101  50.0309677   5.2408867  78.8587341  50.7864685   6.5197797
  13.0341806  43.8485947  73.9453506  12.6865664  44.3729515  74.6667633
  13.2111244  42.9924355  74.3351135   1.9712844  23.1298962   6.4153490
   2.0764046  23.5371628   7.2751832   2.7251132  22.5457458   6.3332429
  73.4981461  44.0473824   8.7824173  72.9774551  44.3837051   9.5117998
  73.6734695  44.8156281   8.2390099  29.1952076  62.5980835  28.6169510
  28.6919308  63.0178757  29.3146057  28.6453362  62.6865158  27.8384571
  79.8288040  27.9068794  77.8233109  79.2778854  28.4891109  77.3001175
  80.1883163  27.2848873  77.1907654  82.3526154  37.8813362  48.4322548
  82.8580017  38.5043144  48.9544792  81.6432495  37.6031456  49.0116005
  28.2529469  37.0043564  68.3509293  28.8157768  36.4754906  67.7854614
  27.8299122  37.6236191  67.7561264  59.1676979  22.1960163  84.7906342
  59.4766426  23.0815353  84.9820480  59.1039505  22.1656971  83.8360367
  63.1244545  25.5728703  75.1831970  62.3945770  25.8266907  74.6183167
  63.6935844  25.0497990  74.6186523  29.7559128  51.4216805  76.3804169
  29.0779228  51.0530472  76.9466934  30.1574612  52.1132164  76.9065094
  20.7189083  66.0479813  46.0363235  21.3099651  66.5877304  45.5113907
  20.4078503  66.6344833  46.7258835  58.8719597  54.9840050  38.3467674
  59.8255615  54.9605217  38.4263115  58.6477776  54.1624947  37.9096184
  22.0161839   2.5749192   7.2758694  21.9983215   3.5092714   7.0687490
  22.7135353   2.4869175   7.9256296  41.0587959  48.1828880  79.6014633
  40.7378807  48.8610001  79.0069809  40.8890190  48.5316238  80.4765625
  11.5377598  41.1188774  64.2612152  11.3987370  40.6039085  65.0560150
  11.4546223  40.4858398  63.5480614  18.5386868  36.5837402  66.5390320
  19.1266937  36.5774841  67.2943115  18.5557899  37.4894104  66.2296829
  68.7094040  24.6040134  82.1051559  68.3328323  24.3081684  81.2763596
  69.4783859  24.0480404  82.2308350  25.0108814  42.9225311  17.0497513
  25.4357605  43.5723839  17.6095734  25.7075748  42.6127625  16.4710522
  52.6290436  61.1194458   9.1432905  53.5579491  61.3502007   9.1543808
  52.3924789  61.0338287  10.0668373  17.4570961   4.5465403  15.2988424
  18.2562962   4.5564303  14.7721424  17.7421761   4.8166623  16.1717663
  80.5130615  54.6015892  31.7136364  80.5917053  55.2661095  31.0291977
  81.1967468  53.9639702  31.5080910  84.3656921   9.4084692  36.7998314
  83.5503235   9.9097900  36.7905540  84.3531723   8.9463053  37.6379700
  79.2417068  45.8401985  83.7399063  78.7537384  46.1106720  82.9621124
  79.8805618  45.2065125  83.4134979  74.9302979  21.3955956  54.0877647
  75.3171310  21.2689381  54.9541016  74.3425446  22.1434593  54.1949120
  43.0671387  48.4793854  16.2414494  43.2691689  48.3153305  15.3203077
  42.3432236  49.1052628  16.2200966  44.4768715  46.9246292  71.5234604
  44.0295448  46.5767632  70.7520218  44.8903770  46.1606255  71.9253845
  39.4446945  48.7423439  46.9806175  40.2541237  48.4920959  46.5351601
  38.7570648  48.2702446  46.5110245  81.8569260  45.3558006   2.7866414
  81.0532303  45.8253517   2.5634093  82.4883957  46.0455322   2.9909613
  71.5225601  24.4059677  84.5353928  71.1308670  24.7861328  83.7490768
  71.0328140  23.5962563  84.6794357  36.6786156  43.6439133  78.5198441
  36.3587379  44.3868065  79.0317307  36.0866814  42.9258995  78.7441177
  78.3456879  32.4687881  35.1515312  78.1984100  32.0999947  34.2805939
  77.6109848  33.0675430  35.2854652  42.6698647  51.2157059  66.9536362
  41.8129349  51.2393227  67.3794861  43.2972183  51.2517700  67.6756897
  41.6002846  60.4998131  68.9960556  41.9349823  61.3709145  69.2090988
  42.3341026  59.9113235  69.1733170  62.5232162  43.3618088  51.5818939
  63.2213745  43.9998245  51.7293434  62.4716721  43.2789383  50.6296844
  52.6127548  11.2334318  17.5384274  51.9488182  11.5776119  16.9409695
  52.5689392  11.8086834  18.3022327  40.2951736  57.7457085  58.0673943
  41.0972481  58.2607193  58.1550140  40.4547348  56.9624634  58.5939865
  40.2364731  55.8837662  25.3958168  40.1428947  56.6993256  25.8880978
  41.1804161  55.7273483  25.3686790  18.3585949  23.1835251   7.9031091
  18.5070190  22.7876186   8.7618647  18.7920437  22.5915813   7.2883267
  29.5629730  60.1086197  74.2330399  30.2434616  59.9991112  74.8972473
  29.4812622  59.2446632  73.8291473  63.6213112  45.2067757   9.7210579
  63.5715599  44.2604790   9.5858431  64.4554749  45.3409042  10.1709681
  66.1417542   3.1970258  36.0718880  66.7891846   3.0289061  35.3871918
  66.1476746   4.1482224  36.1787605  22.6951942  33.9299660  55.3191338
  23.6482124  33.8456879  55.2893715  22.4632702  33.7090988  56.2211685
  13.7931147  39.8025169  10.9218493  13.0783358  39.5006218  11.4823704
  14.5876131  39.5905876  11.4118395  70.4052505  59.4807663   8.5420713
  70.3610153  58.5786362   8.8589888  69.7865295  59.5088539   7.8122554
  57.6749496  19.3591957  60.7040367  57.4982338  18.5438442  60.2347755
  57.6849022  19.1068401  61.6273193  22.4041176  39.3968544  19.2437782
  22.7766399  38.7271996  18.6701775  21.5638657  39.6165085  18.8413334
  63.1787834  44.2563782  17.8998547  62.9019241  43.8421898  17.0825253
  63.5516853  45.0952873  17.6289158  86.8236923  45.8147469  31.8367043
  86.1159897  46.0641212  32.4310112  86.5053177  45.0223312  31.4043293
  60.3544312  18.1328869   9.3908529  60.6473312  18.9681396   9.7552614
  60.8875961  18.0143948   8.6047707  64.5072250  64.1296768   5.1044960
  65.1557617  64.5013046   4.5065575  64.0715637  63.4486008   4.5920863
  68.2356110  10.0688009  27.6648350  69.0895233   9.6710386  27.8347111
  68.1809158  10.1202059  26.7105827  31.4744987  62.6658325  74.3770294
  30.7688332  62.0224648  74.4429550  31.8300953  62.7230301  75.2638779
  65.9566040   6.7896719  40.4687386  65.7254562   6.8318734  41.3966522
  65.4972916   7.5306792  40.0735512  74.7679520  25.4040051  55.0216599
  74.7765350  26.1732807  54.4521217  75.6913834  25.2321529  55.2059975
  20.7349968  37.8870888  74.4952698  21.2202263  37.1192741  74.1931992
  21.4019032  38.4557304  74.8801270  26.8953285  50.1656227  69.4542007
  27.2070637  49.3487053  69.8436890  27.3742237  50.8511086  69.9200363
  30.1471863  54.8709488  63.5302315  29.7674141  55.2246780  62.7259407
  30.6419697  55.6008263  63.9026527   0.6107989  40.7341309   0.2339091
   1.4791058  41.0825653   0.4360680   0.5447593  39.9362946   0.7586252
  51.2726746   6.2314024  11.3830376  50.4300079   6.5583577  11.0680084
  51.9198647   6.6547208  10.8189650  79.0691605  26.8476715  48.6807556
  78.3841019  27.3670063  48.2597809  78.5941010  26.1742859  49.1676903
  59.6782684  54.0899353  17.8925419  59.9009819  55.0131607  18.0120716
  59.2692299  54.0522194  17.0279636  53.4060402  63.5795174  52.4920006
  53.0481110  62.7743759  52.8659821  53.7337418  63.3187790  51.6312675
   3.5278080  17.5022259  66.2684326   3.9805777  16.7328815  65.9229736
   2.6751435  17.1715374  66.5509949  56.5763931  63.3974953  80.4368744
  55.7493553  63.3249779  80.9133072  56.9059219  62.4999733  80.3910904
  86.0393677  52.7958565  32.8697891  85.4724121  53.1365662  32.1779022
  86.2838058  53.5674438  33.3808022  29.6271553  39.3290329  25.2464867
  29.3320942  39.8537216  25.9907131  29.3144913  39.8063545  24.4779568
  63.9277840   6.0992060  82.4057159  63.2419930   6.7208753  82.1618881
  64.1084061   5.6139250  81.6006622  33.7201195  56.1754150  80.2054749
  33.7788200  55.2318726  80.0554352  33.1300201  56.2626419  80.9540710
  58.1449356  67.5166931  71.6870499  57.3021927  67.0858536  71.5442276
  58.1014633  67.8349457  72.5887451  17.1980419  22.3562431  84.1337814
  16.8616390  21.6120148  83.6345978  18.1462498  22.2261257  84.1480408
  60.4457512  45.4790649  83.2924042  60.5213928  45.9899788  82.4865036
  61.1506348  45.8069000  83.8508835   0.7941381   9.5765972  19.0528774
   0.7083989  10.2984219  19.6756516   0.6625313   9.9825745  18.1960850
  63.6278687  44.7816353  58.3797569  64.0105057  44.0547523  58.8711472
  63.0810280  44.3607330  57.7164040   9.2625427  40.9060326  17.2892284
   9.2770042  39.9608879  17.4399738  10.1369152  41.2023048  17.5420647
  20.8691654  35.7081261  13.8386412  21.1776562  34.8058968  13.9226027
  20.9791679  35.9134445  12.9102144  27.5444927  43.3568230  78.8403625
  27.8099728  44.2601204  79.0130081  27.5328007  43.2889328  77.8856430
  50.9318314  64.0929031  65.0931549  50.5720253  64.8476105  64.6271210
  51.1379547  64.4265823  65.9663162  72.6177368  38.7905350  25.1554146
  72.9732895  39.6404877  24.8958035  73.3835831  38.2198753  25.2190819
  65.9697723  64.4980774  52.5139999  65.1998672  65.0298004  52.7158661
  66.3181458  64.8776169  51.7072678  59.3903542  11.2121668  20.6583347
  59.4708023  10.4977808  20.0263443  59.4865799  10.7891073  21.5115604
  50.9296341  18.5122070  43.1514091  51.6345596  18.0594120  42.6884995
  50.4477348  18.9714699  42.4636002   9.4622879  50.4342995  44.4788208
  10.2754574  50.2975121  43.9927368   8.8065367  49.9324722  43.9946785
  13.7867441  13.2419739  20.7021065  14.0153875  12.3425131  20.4677486
  14.1790266  13.3716059  21.5655537  61.0974312  40.1435432  34.7644272
  61.3706322  39.2516937  34.9793625  61.7037468  40.4208145  34.0775986
   0.4938884  22.3982258   9.9690084   0.3045126  22.2878094  10.9007683
  -0.2436252  22.9078407   9.6334524  58.3428307  20.7724457  46.5327759
  57.7273140  21.5051212  46.5564308  57.9724693  20.1691990  45.8884506
  21.5057240  46.1870575  21.7495365  21.5696888  45.2765656  21.4611912
  20.8332577  46.5700188  21.1861897  80.2642288  61.1052361  32.6623497
  79.9385986  61.9628868  32.3891640  79.6090469  60.7869759  33.2833786
  82.8742218  11.4769316  45.7377663  82.7676849  12.3153515  45.2883949
  83.0182724  11.7129545  46.6541595  38.3076553   3.0647025  82.5184174
  37.5079613   2.7974360  82.0653305  39.0168495   2.7617197  81.9514236
  33.9026184  27.6055965  47.9615669  33.3654671  26.9137802  48.3476944
  34.7875099  27.4278240  48.2803040  49.5939713  20.0011711  17.9404736
  50.3999176  20.3339386  18.3353786  48.9049835  20.5664711  18.2897034
  58.9322662  55.1026535  23.9563255  58.9408188  54.5551071  23.1712418
  58.1085777  54.8837509  24.3920422  -0.0391241   3.3406556   4.1406384
   0.0526024   4.1691723   4.6111465   0.4630810   3.4656298   3.3354034
  85.7993774   4.2156057  18.3598328  86.7312241   4.1541681  18.5698948
  85.5307617   5.0655556  18.7086315  75.7948608  48.3803596  66.8439484
  75.7609406  48.6041946  65.9139023  76.7293701  48.3478394  67.0485382
  61.1931915   4.9628668  63.2376671  60.5552254   4.3069568  62.9565773
  62.0437012   4.5560622  63.0722122  49.3682747  18.8661385  88.3674164
  49.3603897  19.5297813  89.0571671  49.5990982  19.3485317  87.5735321
  65.9647903  17.7390423  48.5919991  65.3234863  18.0504150  49.2307549
  65.7815552  16.8035717  48.5051193  84.6616211  18.8044052  70.8704910
  84.6187057  19.4506855  70.1657104  83.9333801  18.2088051  70.6939621
  29.2781410   5.6017780   2.4828777  28.8548145   6.2939873   1.9750661
  28.7250977   4.8324695   2.3467157   3.9937019  39.3980904  36.6804237
   3.8424227  39.5742607  37.6090317   3.6957552  40.1909828  36.2345734
  51.8307037  31.5418186  29.7447872  51.6189308  31.0229626  28.9687901
  51.2436867  32.2963104  29.6959457  14.1050196  30.9367332  17.6376743
  15.0124617  31.0837097  17.9044666  14.0750523  31.2204571  16.7239819
  80.7305298  21.1013279  26.8190403  80.4853592  20.6243572  27.6118984
  81.6868134  21.0628929  26.8024673  45.1228752   3.0357239   2.4652250
  44.4482040   2.3617921   2.3823769  45.7427635   2.8417709   1.7621237
  15.6938038  12.1387157  83.9428711  15.4137936  12.8530197  84.5152359
  15.5666590  11.3479309  84.4670181  57.2139969  67.2921829  46.2920723
  57.3640213  66.3469391  46.3074684  56.4323463  67.4194183  46.8297195
  72.2121277   4.7601776  23.7646923  72.7115097   4.4450388  24.5180473
  71.3475266   4.9665399  24.1198158  23.4269981  61.4259071  13.6559925
  24.3306255  61.2151833  13.4208679  23.4422550  61.5161552  14.6088057
  48.7171822   5.4181004  31.3154831  47.9326820   5.2449961  31.8358955
  49.3968620   5.6071486  31.9624195  63.6116562  50.5348053  49.7755356
  63.8089027  49.7902184  50.3437920  62.7480812  50.8323784  50.0617561
  31.6723938  36.2361794  88.3585663  31.4135647  36.2474480  87.4370956
  31.8650570  37.1509094  88.5644302   3.6135209  29.8437862   2.9939849
   3.6404760  28.9246788   2.7280040   4.5206461  30.1406956   2.9218740
  11.7270527  36.8393669  11.3207006  11.5448980  36.7363663  12.2547474
  11.7401886  37.7864113  11.1822481  64.5970306  39.7131042   5.2294674
  63.8905296  39.3328171   4.7074771  64.7466888  39.0773888   5.9292531
  81.2715225   5.0933156  21.1614952  80.3870544   4.7273827  21.1680489
  81.7983627   4.4550452  21.6424084  31.7491665  45.4927788  37.6998024
  31.7995548  45.2395554  38.6215210  30.8193970  45.4238815  37.4829712
  62.5810013  67.9761124  49.5487900  61.6563797  68.1237259  49.3500061
  62.9890556  67.8297424  48.6953850  57.4533234  58.6115417  33.0701790
  57.5408974  58.7896080  32.1337738  56.8557358  59.2884560  33.3878441
  24.6369610  57.8188744  53.9521141  25.2547169  57.1802902  53.5960007
  24.3726082  57.4517517  54.7956581  30.5294495   2.5549138  72.4096756
  29.7384205   2.4169619  72.9307022  30.2154045   2.6084251  71.5070419
  40.9285774  62.2067375  17.5338974  40.2651520  61.7750206  18.0721550
  41.7246208  62.1761131  18.0645638  20.8240356  44.0217590  26.2024059
  19.9280605  44.0724106  25.8693981  20.7313213  43.6660805  27.0862198
   0.3391650  11.5966282  71.2005768   1.2281425  11.9151344  71.3571167
   0.3236334  10.7254324  71.5968170  70.3631363  47.2462387  34.4403419
  70.5566025  46.4573364  33.9339485  69.5541687  47.0383492  34.9078712
  85.0789032  45.7311325   7.7303696  85.0294418  46.6476784   8.0019016
  84.4568253  45.2786598   8.3000336  73.0954742  24.8379612  49.8350372
  72.8174744  24.7535210  50.7470779  74.0421448  24.9706421  49.8845024
   9.9379072  64.6219406  19.0177345   9.6178455  64.9647141  18.1832924
   9.1670313  64.2283554  19.4264812  38.1153717  36.8689690  47.1537552
  38.2201347  35.9473801  47.3902473  38.2925758  36.8965988  46.2135086
  65.4224854  39.7979584  59.1947212  64.5706100  39.9795952  59.5916481
  65.6048203  40.5679512  58.6561165  20.2610817   2.3836250  15.5610895
  20.5678329   3.2872293  15.6361523  19.9002686   2.1806993  16.4241467
  28.1771240  38.9429016   1.0938203  28.6512070  38.9606171   0.2624586
  28.5883255  39.6296616   1.6187067  54.7271271  27.4731731  79.3933334
  54.1458206  27.1663628  78.6975021  55.6015015  27.2055683  79.1103439
  54.2789841  22.4511738  69.7769623  53.3881302  22.2911472  70.0884094
  54.2814255  23.3737526  69.5218658   3.4789994  60.5248489   7.4142914
   2.8737884  60.3835373   6.6862922   4.2859921  60.0871849   7.1432829
   8.2864094  31.9186459  57.1380806   8.4785004  32.4764824  56.3843231
   8.7775154  32.3127022  57.8590279   2.9465044  52.3579369  23.5983467
   3.1505644  51.4725800  23.2971230   2.3122542  52.2306595  24.3038673
   2.6742151  31.8903141  13.7008429   2.4559522  30.9830952  13.9142647
   3.5918221  31.8586006  13.4302444  41.6510544  24.5495472   6.1043129
  41.8246994  25.0560455   5.3108783  42.2592049  24.9042835   6.7528071
  58.9264297  68.9521790  12.7229805  58.5360718  68.8020782  11.8619785
  59.8702431  68.9152603  12.5677900  35.8140678  10.9745445  76.3145676
  36.3143997  11.6932735  75.9281311  35.6459427  11.2561064  77.2138367
   4.7333174  44.5073967  63.0290489   5.3431420  43.7748413  63.1168442
   4.8993068  44.8534470  62.1521645  11.9157801  56.2947578  57.9279747
  11.6309900  57.1692047  57.6625214  12.1022253  56.3772049  58.8632126
  75.2497025   2.8654087  58.3344002  75.0207062   2.1985877  58.9818153
  75.4749527   3.6367905  58.8544655  18.8360100  44.7657738  79.7864151
  18.1654663  44.1260681  79.5468750  18.3425293  45.5390968  80.0596924
  14.3513203  67.7486572   1.9120635  14.1642637  68.5894165   2.3296373
  13.7528582  67.1328125   2.3349173  54.1571274  13.6404362  32.3657150
  54.9251404  13.5070457  32.9212265  53.6059494  14.2466745  32.8605995
  47.1034012  15.5589399  18.7261295  46.9867821  16.2795162  19.3453236
  46.6559792  14.8176680  19.1342468  74.7916183  66.7337494  64.0466537
  74.8188324  66.5922318  64.9929428  74.4697495  65.9059143  63.6898346
  55.8297005  22.9511719  29.4618950  55.1198006  23.2869263  28.9145870
  55.6740417  23.3412971  30.3220139  28.2756004  14.5676298  84.9312973
  27.6784306  15.0510483  84.3603973  28.3700066  13.7130756  84.5105209
  70.9221802  46.3683662  76.8094559  70.0688095  45.9852600  76.6064072
  71.4260178  45.6458969  77.1841812  47.0235519  50.7683830  58.1238441
  46.7384033  49.8685341  58.2825737  46.2509918  51.2045898  57.7645302
  56.1179237   8.4855175  61.6638260  55.6166916   8.7886276  62.4208755
  56.6963844   9.2177954  61.4507942  28.6657505  34.1693840  58.8927422
  28.4516735  35.0905495  59.0405998  29.2118988  34.1735992  58.1066551
  78.6489563   0.5225960  14.4284325  78.5989151   1.3568902  13.9618692
  79.5336609   0.5049854  14.7934332  49.9479103   1.3144170  10.2844086
  50.3749924   2.0677676  10.6922035  50.1561012   1.3958795   9.3536825
  43.5408173  64.4975357  35.1758308  43.9785957  64.7179565  34.3536415
  42.6356773  64.3147736  34.9237289  53.7011032  26.1593571  16.9020061
  53.1092186  26.2473698  16.1549072  53.3623734  25.4079533  17.3887138
  25.7647305  17.2857418  74.6237411  26.1603127  16.8220444  73.8856812
  25.5487442  18.1506691  74.2751999  61.4208450  49.9998741  61.5686455
  61.7191734  49.0958633  61.4686737  62.1936302  50.5300446  61.3738251
  63.5321236  36.5471954  66.8924561  64.3604507  36.2349777  67.2566299
  63.6478233  37.4939117  66.8114090  84.6797638  41.6457329  84.9116592
  83.9789581  42.2863159  85.0331345  84.4360733  40.9137802  85.4783096
  33.3843689  40.6981163  20.5631828  32.6307144  41.2683640  20.7150269
  33.2154236  40.3002090  19.7091560  48.7683487  37.8349724  49.0330963
  49.1040421  37.9667892  49.9197540  47.8322983  37.6745796  49.1527672
  39.0772514  69.0082626  75.9330368  38.2550735  68.7892227  76.3715286
  39.6233063  69.3857727  76.6226349  56.3913002  60.2447472  45.1015320
  55.8716125  59.6032982  44.6170692  57.1851768  59.7712402  45.3500938
  23.0759983  45.9773216  42.6154099  22.2968159  45.6712761  43.0795670
  22.8603477  45.8704033  41.6889687  23.9325695  29.6600456  81.6861877
  23.2191620  30.2292309  81.3975525  24.5120144  30.2362785  82.1846161
  55.7678375  30.1401043  70.3056259  56.2039680  30.9377613  70.6052399
  56.2952805  29.8427715  69.5642548  64.7388077  53.9334145  80.8314056
  63.9193306  53.5175591  81.0992737  65.3473053  53.2051582  80.7064972
   7.3579130  67.7592621  76.7434311   7.4672976  67.8754425  75.7996216
   7.6026936  68.6050644  77.1188354  17.4861469  32.3611298  58.2822075
  18.4003525  32.2081413  58.0433464  17.5308456  32.9470596  59.0377998
  19.2043819  44.3506851  17.0228863  19.4363613  44.2642365  17.9475174
  19.7062187  45.1073303  16.7197762  19.8825359  46.8767586  50.7180824
  19.7276325  46.0246010  50.3105659  19.4979210  46.7982216  51.5910873
  70.2447815  42.5324669  14.5228825  71.0373840  42.9711113  14.2136717
  69.9783630  43.0342560  15.2932472  82.3940201  55.0029793  14.4895391
  82.3496628  54.3356400  15.1743193  83.1306610  55.5587044  14.7440300
  49.0405388  15.5705376  29.6780071  49.4495468  14.7188740  29.8316746
  49.7133942  16.0817337  29.2283649  27.3571854   0.8299714  83.3804550
  27.1176758   1.2077874  82.5342178  28.2784863   0.5892172  83.2831345
  26.6910934  33.4247665   1.8203474  26.9188480  32.9675674   2.6298702
  27.1739960  32.9585266   1.1379576  22.7626476  63.1361427  42.6532707
  22.5542011  62.7779655  43.5161095  23.5054684  63.7193756  42.8091278
  52.2131767  61.3952866  85.0705719  51.4032326  61.8925438  85.1844101
  52.7396469  61.6158524  85.8389511  66.0867310  71.8329697  15.4649258
  66.8200836  71.2348633  15.6087770  65.8029251  71.6527557  14.5687046
  26.2161026  12.3938036   8.3944035  26.7607613  12.8199854   9.0561810
  26.4995766  12.7802191   7.5658159  80.5141754  23.0689869  29.1406555
  80.8168640  23.9492264  28.9175167  80.3273926  22.6587105  28.2962513
  45.7807121  26.5502777  14.9246492  45.2981758  26.3144493  15.7169724
  45.8498688  25.7314835  14.4337072  11.0206242   6.6201401  85.4024887
  10.1036320   6.4180794  85.2166672  11.2298708   7.3458824  84.8144836
  80.0991058  35.6947517  72.8991470  80.3990860  36.4958076  72.4695511
  79.1459579  35.7203560  72.8149872  76.2866669  37.2806015  27.9975796
  76.4681549  37.3240852  27.0587482  77.1078110  36.9795303  28.3865681
  60.2130356  10.5781670  63.7812462  60.6179123   9.7272081  63.9490929
  60.7013741  10.9334440  63.0385895  52.3856087  17.6117668  17.2981644
  51.5031052  17.6012325  17.6687126  52.5818901  16.6918545  17.1207790
  82.5916367  44.2444572  54.9383736  82.1222992  45.0698738  55.0593567
  81.9686050  43.5720520  55.2139320  17.5339546  45.3561478  71.6585999
  17.9246254  44.9358215  70.8924866  18.2811279  45.6848335  72.1585312
  82.1998215  52.3585167  31.0504093  82.2371521  51.5407486  31.5464859
  81.9161301  52.0949020  30.1750488  11.0016422  26.0594749  85.4740143
  10.7686348  26.1948605  84.5555267  10.1617765  25.9564648  85.9215012
  83.4925079  61.1152649  49.8096123  83.4050369  61.8763428  50.3834991
  82.7958069  61.2222786  49.1620140  66.5966415  12.2706699  61.1054802
  66.1628189  13.1103735  60.9540596  67.1753159  12.4310284  61.8509026
   4.1068106  67.6765518   1.0985394   3.5325196  66.9707336   1.3955967
   4.8023891  67.2316284   0.6143464   7.3490248  59.7493134  19.8955727
   7.9848690  59.0357246  19.8433723   7.8491364  60.4913597  20.2354107
  40.2008820  10.0400438   9.0350819  39.6997795   9.5011120   9.6471930
  39.5731850  10.6897755   8.7187328  32.2695503  44.8234291  69.1545868
  32.7070770  44.8223648  68.3032379  32.6808853  45.5423431  69.6343765
  66.4195633  64.6071091  47.0827980  65.6319199  64.5720825  47.6255836
  66.6977234  63.6945114  47.0051765  17.9541969   8.9777279  88.0938492
  18.8994370   8.8837738  88.2118530  17.6160316   9.1250305  88.9771271
  19.9691696  27.9673138  30.2118187  20.1355362  28.8700619  30.4831142
  19.1359291  27.7424965  30.6258202  76.8338089  34.0385666  51.8377342
  76.5239105  33.3167915  52.3847656  77.7232208  33.7863083  51.5896492
  66.5313416  31.6826839  47.3913651  66.6549911  32.6310005  47.3508606
  67.4089050  31.3331108  47.5460091  26.1248302  29.9500122  88.0040970
  25.7553940  30.7555943  87.6424561  26.9499607  29.8325024  87.5333786
   4.2078691  32.3700218  57.6860352   3.6972842  32.5024872  56.8872910
   4.6306849  31.5202942  57.5618629  56.0503922   5.8227239  52.8676071
  56.8988419   6.1594348  52.5795250  55.6936417   6.5159345  53.4229622
  43.2468033  18.7219563  73.8127213  42.9661903  19.3315697  73.1301804
  44.1717339  18.9261379  73.9507141  66.0145416  40.2975197  25.8971233
  66.1508865  40.8485451  26.6678448  65.0653381  40.1838455  25.8488503
  53.2305374   7.3667746  64.0671539  54.0601730   7.7485170  64.3538742
  52.5700340   8.0118093  64.3199310  47.8319244  66.6001053  36.5185318
  47.1628380  67.2070389  36.8350449  48.6582718  66.9734573  36.8250999
  86.4572144  54.7359734  65.1900940  86.7967987  54.7177162  64.2953415
  86.3203583  55.6650352  65.3754272  69.7801819  43.1432419  54.4302368
  69.5645828  42.6834297  53.6188660  69.3378296  42.6413116  55.1147919
  56.1923866   6.1532531  19.3789597  55.9202538   5.6980443  18.5821152
  55.3786507   6.4953413  19.7491474  65.8982239   4.8867908  77.4811478
  66.1726074   4.6930428  76.5848160  65.8059082   5.8392825  77.5027771
  78.6803513  38.0111237  25.7567463  78.4726105  37.6534920  24.8935089
  79.2589722  37.3596497  26.1529846  43.2292595  15.0712891  65.5261917
  43.8189201  14.8712358  64.7992096  42.4949150  14.4680357  65.4119263
  15.4652796  19.0458164  19.3245163  16.3576183  19.3188705  19.5375957
  15.5241537  18.0962963  19.2188034  55.5359764  47.3779221  27.0760937
  56.2047997  47.5526047  26.4139824  54.7074089  47.5644531  26.6345978
  60.1793442  27.0367699  46.4783363  60.0447655  27.0990505  45.5326920
  59.3713531  27.3815594  46.8584747  71.3221130  57.3112068  59.4183464
  71.1152649  56.4939537  58.9649811  70.9047928  57.9909286  58.8891449
  78.3208847  67.0819168  25.4990654  77.7093124  66.7836380  24.8258343
  77.7845078  67.1726456  26.2866573  56.7169724  11.4764175  25.8966846
  57.3134537  12.2223778  25.8335609  55.9266281  11.7622862  25.4385700
  25.9219570  52.4312134  60.8773994  26.0218563  52.0618477  61.7547913
  25.1014442  52.0598831  60.5531998   1.0695130   0.1574188  65.8980408
   1.5497979   0.7456441  65.3153305   1.5576669  -0.6652219  65.8634033
  80.7611160  53.2679405  63.7304497  80.5355453  53.0643158  62.8227692
  81.1911469  52.4762497  64.0537643  19.5584450  32.8325081  55.6831665
  19.6001244  32.7990227  54.7274590  20.2545681  32.2434120  55.9740486
  71.7594757   4.0688229  69.9119492  72.1351929   3.9777122  69.0362930
  72.5157166   4.0641894  70.4987259  55.5036507  10.9563036  69.1485672
  55.7672882  10.5545702  69.9764175  56.0861702  10.5662384  68.4968338
  37.1373024   9.8335400  63.4976082  37.2465363  10.3821249  62.7208481
  36.9712868  10.4538202  64.2074814  64.5230789  70.3988571   7.8309751
  63.8566475  70.8489151   7.3117967  64.3538513  69.4683914   7.6831923
  61.6083336  71.0451584  65.2921143  61.3342438  70.2348633  64.8625412
  62.4819336  70.8521729  65.6324234  32.3837128  49.7599411  58.4191017
  32.9461670  49.3289795  59.0626450  32.8541527  49.6685791  57.5905075
  55.0471077  46.4993134   4.1666827  55.2102661  47.4278183   4.3324928
  55.2811470  46.3755417   3.2468255  66.6822357   4.0392003  64.2096100
  67.1340866   4.3303213  63.4175758  66.9452362   4.6691098  64.8806381
  66.1435318  37.7213326  81.1126175  65.7321396  37.0248222  81.6243439
  65.6145630  38.4977112  81.2960739  35.9958649  13.1366053  19.8073292
  36.2524223  12.3392134  19.3441048  36.8232536  13.5258856  20.0903950
  61.2382889  54.7401009  41.5328255  60.3309441  55.0439949  41.5083160
  61.7040215  55.4159584  42.0253067  50.2426796  23.5517941   1.4331669
  49.7938652  23.3508682   2.2544024  49.8078461  24.3406563   1.1093663
  56.3519287  67.6472321  88.4401016  56.7469482  67.8912735  87.6030655
  56.3332672  66.6903152  88.4261932   4.6014256  12.7421989  78.2154617
   4.9005122  12.9219837  79.1067810   3.6971562  12.4466829  78.3212814
  49.6189995  10.3852701  54.0307350  48.9325943  10.4273510  54.6965523
  49.9025078  11.2929497  53.9213142  41.0091400  64.6664352  75.7165833
  41.3757820  64.3275909  74.8998871  40.9195633  65.6075592  75.5666122
  68.5479202  32.8765411  18.0838757  68.9611740  33.6494331  18.4686985
  68.9235306  32.1393890  18.5652866  80.1991119  43.2982750  53.0108223
  80.3549881  43.8067245  52.2149506  80.9690704  42.7351227  53.0899124
  24.8362732  67.8308716  16.0863552  25.0762863  67.0104141  16.5170193
  24.8545742  68.4832153  16.7866001  20.6795883  48.7761269  25.6925106
  20.1186333  49.0937004  26.4001198  20.9416084  49.5670242  25.2212830
  83.9295197  28.9464397  39.3849030  83.8157272  28.1565189  38.8564072
  83.9801407  28.6267014  40.2857018  55.0275459  33.1815796  62.4938126
  54.4972115  33.2933884  61.7048416  55.8673515  33.5866432  62.2772942
  69.8900452  27.0274811  17.5108833  70.5457230  26.3553905  17.6969166
  69.7249451  27.4419460  18.3577557  66.2498703  35.0598297  83.9857559
  67.0650482  35.1873398  83.5005112  65.5628052  35.1336708  83.3234024
   5.2342901  57.2885551  29.7259541   6.1428685  57.2230301  29.4319763
   4.7179441  57.2360687  28.9216766  66.2252579  64.3039017  60.9351311
  66.4463806  64.3819351  61.8631668  66.6312714  65.0686569  60.5270500
  26.7573109  66.4253082  24.9647522  27.6662025  66.6717529  25.1362553
  26.8188171  65.5875015  24.5059223  56.3670883  39.3283234  76.7089996
  57.0757103  39.2784653  77.3505554  56.6392136  40.0190239  76.1047592
  11.5076084  55.0251312  87.5188217  12.2036276  54.4403687  87.8185577
  11.9261665  55.8837547  87.4571152  61.8274193   8.4839525  78.8330688
  61.8862801   9.1909752  78.1905060  61.6064453   7.7088342  78.3167419
  77.3723984  50.9041824   8.2342701  77.0519028  50.1948967   8.7914276
  76.7410965  51.6124001   8.3612251  44.3560333  11.5718727  77.3231277
  44.3837395  11.8242760  76.4002228  43.9883766  10.6881065  77.3188095
  10.2983084  32.5170135  29.2978477   9.8972263  33.3817101  29.3854237
  10.3178034  32.1705704  30.1899395  18.5684090  57.3745117  50.8126373
  19.4493198  57.5499115  50.4817810  18.5622768  56.4340286  50.9906464
  45.2985306   2.1324823  85.5047607  45.4854774   1.4907882  86.1899719
  44.9966507   2.9075711  85.9784012  16.9236908  11.5925961  81.0079575
  17.2834377  12.4071112  80.6567001  16.2585411  11.8755131  81.6354599
  40.6280327  37.9846115   0.1098112  41.0564423  38.5044975  -0.5702013
  40.0461693  38.6023254   0.5526349  73.0000153  30.7929764  31.8727665
  72.5060654  30.0973396  32.3067474  72.3466492  31.2635918  31.3552094
  80.1131210  36.8504753  43.7116432  80.7678528  37.0599365  44.3777390
  80.0816574  37.6277885  43.1539459  21.4099674   6.7391057  69.9226303
  21.4213734   6.7238374  70.8796387  21.5995064   5.8365207  69.6664124
  34.9301605  40.6196022  22.7689381  35.0596352  39.6734962  22.8348980
  34.4111137  40.7354050  21.9730682   6.5560861   5.2526665  72.4942322
   6.8848162   4.5007586  72.0014801   6.1969194   5.8376951  71.8271713
  66.5510941  45.7972565  48.2682266  66.3058701  46.3955040  48.9740562
  67.4294739  46.0775146  48.0110435   3.4100640  29.5496197  49.6076126
   3.6930621  28.8158531  50.1532593   4.1811643  30.1133499  49.5456085
  44.0841522  61.5837822  19.5035686  44.7022934  62.0154839  20.0932846
  44.3367729  61.8837700  18.6303997  44.0165558  47.0702171   6.9441576
  43.8424988  46.2718124   7.4426370  44.3064537  46.7588234   6.0867062
  59.5539894  17.6874123  12.1975079  60.2076149  17.1803532  12.6790657
  59.9392700  17.8125610  11.3302555   2.2034645  60.7965393  81.0977631
   1.5458552  60.1260605  81.2828064   1.8478937  61.5949440  81.4880905
  62.9472733  44.6466179  89.2498779  63.5212326  44.9285660  88.5376282
  63.1779747  43.7289467  89.3944092  41.8431969  27.9760036  82.7796249
  42.7310066  27.9232750  82.4257202  41.5612640  28.8702145  82.5869293
  53.6432610   5.9862719  41.9148788  53.4690781   5.7946749  42.8363914
  54.2897568   6.6918697  41.9349937  48.6273117   9.5355415  69.6806259
  49.1096039   9.3968277  68.8655243  47.7412033   9.2278347  69.4899521
  68.3642120  47.6044426  42.1081123  67.4494019  47.8802567  42.1654015
  68.7148056  47.7536774  42.9862061  57.5629845  40.9588890   6.3358698
  57.4412155  40.7717972   5.4050632  58.5104370  40.9192009   6.4662027
  56.9996758  24.1917305  51.0684853  56.8357925  23.7087669  50.2584724
  57.8863144  23.9370956  51.3239517  80.5223999   7.1975617  86.8780899
  81.2788010   7.7837763  86.8989105  80.5391159   6.7547631  87.7265472
  78.2556381  66.6147308  78.8537369  77.9688644  65.7023468  78.8929901
  79.0946732  66.6221085  79.3143845  26.3579464  39.3982201  47.8336563
  27.0268993  39.2920341  48.5100136  26.8058033  39.1772842  47.0170517
  57.9505844  59.6794701  68.0065002  57.2500992  60.1601677  68.4475021
  58.6764488  59.6878815  68.6304321  26.8793583  39.6591034  83.8986053
  27.6158829  40.0397110  84.3770447  27.1092987  39.7712440  82.9762268
  42.9527893   1.4884357  24.2271595  42.0517464   1.2689966  23.9901009
  43.1490936   2.2757258  23.7193489  70.5055084  15.2950048  49.5536919
  70.5618515  15.3285313  50.5086441  71.1821289  14.6690302  49.2956734
  33.8071175  51.0303955  28.4659824  34.5344963  50.4519615  28.2367096
  33.2247276  50.4848633  28.9946079  85.3013458  68.0203400  47.8414574
  85.5159836  67.1086807  48.0390472  86.1378708  68.4155579  47.5959816
  17.6712017  42.2238808  82.6823502  17.8790092  41.4854279  83.2548370
  16.9891911  41.8904343  82.0993347  87.0169220   1.4314771  46.4759407
  86.9958038   0.4761549  46.5320244  86.1626282   1.7097241  46.8060760
  63.2429390   8.1943684  49.7556686  62.8576736   8.1642561  48.8799438
  63.7258682   7.3715773  49.8333015  32.7071419  36.2611160  70.8871307
  33.3935928  36.9185104  71.0004654  32.0169449  36.5284348  71.4940948
  49.2481270  49.5856438  55.4172745  50.0549545  50.0971336  55.3569489
  49.5310822  48.6779938  55.3061905  27.4322548  21.6797771   4.9601488
  27.8700581  22.4907951   4.7016788  27.7025394  21.0409679   4.3005261
  35.7303963  35.1125145  46.9588356  36.2748680  35.7130928  46.4498253
  34.8850822  35.5561638  47.0284958  62.4602318  38.7771339  88.8543396
  61.5942879  38.6568031  88.4645996  62.5741425  38.0166054  89.4242935
  57.4190369   9.2113810  23.9350853  57.4017296   9.9603586  24.5308743
  57.1458282   8.4696007  24.4748554  81.4680328  57.0568733  16.4356213
  82.1751709  56.4614639  16.6839771  81.1643295  57.4269638  17.2644920
  24.4590073  50.0905151  34.8303261  25.3141823  50.4648399  35.0419617
  24.5136337  49.8803215  33.8980865  59.5744057  28.5586491  74.6271515
  58.7080574  28.5183430  74.2221222  59.3976173  28.6046638  75.5667572
  32.1868324  31.3941479  64.5924683  31.8174915  31.9807720  63.9323959
  31.6114998  31.4944439  65.3508606  45.7806664  59.9908409  43.8165321
  45.5743599  59.4732399  44.5948372  46.3003807  60.7235794  44.1470261
  16.0967388  44.8220291   1.6662689  15.3903599  44.9952660   2.2885642
  16.6958313  44.2440681   2.1387913  58.6716270  22.5484905  78.0793381
  58.2288589  22.4959373  77.2323303  57.9683914  22.7136154  78.7073746
  41.5215759  42.6693153  22.6154728  40.5830040  42.6646614  22.4276104
  41.7857933  41.7525291  22.5385151  -0.3786407  58.1363602  16.4019222
   0.1410278  58.8316422  15.9984884   0.2509966  57.6387100  16.9235878
  83.5130844  64.8707733  12.9892836  82.9798431  65.5118027  12.5192146
  83.5954208  65.2295532  13.8728724  70.8230286  59.9458542   0.1219843
  71.0380325  59.4457703   0.9093341  69.8958969  59.7639732  -0.0315406
  28.3194942   6.1558352  71.2711945  27.4736748   6.5252943  71.5248108
  28.1057167   5.2983637  70.9033966  53.2172585  46.7228546  31.0843887
  53.5853195  47.5292473  30.7231464  52.3379364  46.6720200  30.7096386
   7.3138251  55.2807312  84.9131393   6.6256437  54.9591293  84.3307190
   6.8453116  55.7652397  85.5928268  57.8947067  61.4774780  10.1557188
  57.9385071  61.0142593  10.9922247  58.7325020  61.2884560   9.7331085
  45.8788872  23.9605827  84.8431625  46.8159294  23.7829132  84.9245377
  45.4557724  23.1531410  85.1351242  37.0058670  47.9323158  34.3006096
  37.0628204  47.5422554  33.4283485  37.8946762  47.8682976  34.6501045
  52.1157722  55.6666183  83.4970856  52.7819405  55.1198425  83.9136047
  51.7424049  55.1102676  82.8134918  59.4352493  64.0935059  68.3335037
  58.7231598  63.7755966  67.7784424  60.1870842  64.1587143  67.7446747
  58.5582275  39.3763123  61.2403564  58.3613319  39.3731232  60.3036308
  57.9110260  38.7840004  61.6231537  47.0592537  61.4281540  11.4939041
  47.1666222  62.0861664  10.8070812  46.6051559  60.7040443  11.0629807
   1.8688203   3.1061659   7.7550077   1.5447001   2.4491818   8.3710842
   1.3626832   3.8933401   7.9560399   5.7992849  45.3630562  60.1199722
   5.1181931  45.6104317  59.4945526   5.9468188  46.1538849  60.6386757
  51.0586777  41.7167587  87.1900101  50.6909409  41.0218964  87.7360611
  50.5554886  41.6739998  86.3768692  47.8817177  44.4020309  23.5071049
  48.5514297  44.5068932  24.1829147  48.3157005  44.6681480  22.6965065
  84.7030563  44.0207062  29.3911457  84.3797073  44.1151733  30.2871094
  85.6537628  44.0991364  29.4701023  25.5902824  62.0970573  73.9570084
  24.6759567  62.3271790  73.7918243  26.0769615  62.5318375  73.2567673
   9.6091576  48.1469154  70.2542648   9.0601397  47.9075584  69.5075912
   9.4406614  47.4644699  70.9039688  13.7842798  15.5847149  11.2575254
  13.7654638  14.6555138  11.0284767  14.4013329  15.6390657  11.9872675
  51.9971275  58.7911949  52.9022980  52.2815857  59.5948067  53.3376389
  52.4613991  58.0921364  53.3627357  39.3513641  71.5585098  14.3250580
  40.2904472  71.7325745  14.3887119  39.1772346  70.9259644  15.0220490
  49.8177414  39.8571205  57.0184631  50.6917572  40.2438698  56.9659767
  49.3161583  40.4707031  57.5552673  48.9591599  11.6198339  45.5684280
  48.2493286  12.2368488  45.3904839  49.5419769  12.0905790  46.1642113
  71.6061172  32.7218781   0.4727841  71.8535538  31.8050518   0.3526169
  71.9899826  32.9651184   1.3152288  85.1520386  48.1210976  42.8083038
  84.4099960  48.4918785  43.2859306  85.4740372  48.8428383  42.2682686
  48.8292885  19.3295345   3.0539837  48.9869576  18.4028645   3.2346895
  47.9060593  19.3712463   2.8047071   9.9768505  68.7703400  47.3607597
  10.1844330  68.7807846  46.4263992   9.3816385  68.0280685  47.4655914
  61.2819901  25.0475006  50.4718399  61.0801582  24.9312611  49.5434113
  62.2119560  25.2735958  50.4883041  24.0664349  37.7943573  78.8504486
  23.4176655  38.2106323  79.4179382  23.8053379  36.8738594  78.8231812
   7.6488228  55.7961960  46.5381279   7.4854255  54.8555908  46.6073990
   8.4608021  55.9347839  47.0256882  66.7431564  36.3603668  72.9037170
  66.7058029  35.8243790  73.6959000  66.7230835  37.2623062  73.2236176
  25.2319450  62.0419235   2.1092439  26.0971832  62.4019051   2.3042028
  24.7096786  62.8009300   1.8496673  55.7492561  28.1993694  49.5499916
  54.9257011  27.7588806  49.3403244  55.4830437  29.0242577  49.9560966
  69.9440308  42.7787247  34.7304344  70.6635666  42.6545296  35.3493690
  69.3301392  42.0725098  34.9319916  60.3663673  71.2388535  72.7292404
  59.5072021  71.6242294  72.5573120  60.3979645  70.4640427  72.1680832
   5.4769492  57.2038040  39.6729889   6.4035196  57.4327774  39.7455864
   5.4718051  56.3754044  39.1934509  80.1983566  69.2045822  20.2760792
  80.7234116  69.2401047  21.0756340  80.7809525  68.8151093  19.6240654
  80.5174942  39.0834007  53.5676689  79.8650818  39.7580414  53.3794098
  80.0251541  38.2626991  53.5506096   3.6329236   5.2101011  68.5320892
   3.5533097   4.3150182  68.8618164   4.5583901   5.4260769  68.6465302
  34.6207657  45.5380020  17.4859524  34.2000656  46.3744812  17.2870770
  34.4956017  45.0130196  16.6954079  63.9114075  31.1131058  52.6478806
  63.5770378  30.2278519  52.5038147  64.8585587  31.0326443  52.5353851
  20.6000233  44.6185379  81.8713226  20.0696392  44.6411781  81.0748215
  20.6063347  45.5243378  82.1807022   4.6498413  45.9142952  10.6923714
   5.3096695  45.2665291  10.4448652   5.1558070  46.6627769  11.0086107
   9.6415253  63.0333366  26.5438957  10.2443752  63.7664833  26.6675873
   9.2170525  62.9260521  27.3950977  10.5695877  60.6727562  24.5301361
  11.0226755  61.3485603  25.0343475  10.2660313  61.1245041  23.7427311
   0.8534479  53.1914787   0.6264012   1.2094482  52.5872879   1.2778976
  -0.0265291  53.3945198   0.9436505   8.9413509  46.5886307  46.1819916
   9.5946980  47.2861862  46.1292229   9.4513769  45.7794685  46.1450310
  80.0143890  13.9556732   4.3675456  79.3005142  14.5906734   4.4257669
  79.7670059  13.3830938   3.6414695   0.2758785  24.5831909  68.2686615
   0.2334565  24.7321396  69.2132492   0.1885419  25.4555454  67.8844681
  71.7619476  21.5220165  38.9703674  70.9024429  21.7561436  39.3206062
  72.3803482  21.8059845  39.6435471  56.2128448   2.5437837  83.9698257
  56.9450264   2.0605719  83.5868835  56.4505844   2.6483474  84.8911209
  16.3601627   2.7675998  51.1224327  16.7176914   3.1855557  51.9058342
  15.7237110   2.1358998  51.4572678  24.6685982  44.8801651  32.1887474
  24.7730541  44.7395782  31.2477093  24.3030643  45.7619438  32.2600632
  63.4924126   1.4371380  24.0685158  62.9440956   0.6530075  24.0953903
  63.4505463   1.7275621  23.1574001  64.8868484  71.4800034  81.7518997
  64.9677505  71.8864594  82.6147308  65.6360855  70.8869858  81.6953049
  39.1317101  12.9763861   4.3719234  38.4984970  13.4538784   4.9079022
  38.7952881  13.0523853   3.4790204  22.6201801  55.4303703  18.6442337
  22.9385796  54.9200134  19.3888054  21.6689301  55.3277016  18.6727333
  62.2928581  30.2821045  82.7541962  61.3956528  30.2118912  83.0802765
  62.6669350  31.0179234  83.2388306  81.8297195  43.5135345  25.5963535
  81.3295670  43.8245392  26.3509064  81.8125000  44.2452621  24.9795017
  58.8122864  56.5967979  11.0676813  59.5062904  55.9600601  10.8969364
  58.4588165  56.3429756  11.9202452  43.6114578  51.7468071  62.7172508
  42.7092018  51.5354424  62.9570160  43.7192154  51.3773117  61.8408432
  59.0635529  35.7173500  50.1287346  59.5613747  34.9962692  50.5140190
  58.5543900  36.0729599  50.8571091   3.8637252  23.5485115  68.5771332
   3.4540327  24.4070396  68.4707642   3.1408036  22.9264164  68.4958191
  46.4597740   5.9525304  49.0283165  46.6246452   6.6968789  48.4495316
  45.7834930   5.4452462  48.5793877  52.2631149  65.9653625  42.1242447
  52.8839264  66.4676437  41.5964775  52.2363968  65.1040573  41.7075119
  52.3867378  13.5676403  23.8355389  51.8737297  14.1891356  23.3190136
  51.7350121  12.9856863  24.2264557  78.4593811  25.7342396  74.3944397
  79.2161331  25.6317139  74.9715500  78.6568756  26.5148659  73.8768997
  57.4992332  14.4773712   4.3716378  57.6314430  14.2390795   5.2892265
  58.2916565  14.9580803   4.1324453  83.5679932  37.0830574  33.4944992
  84.0904312  37.7098274  33.9949455  83.7852325  37.2660561  32.5804138
  73.0500412   3.7812414  82.4838257  73.0685883   2.9260027  82.0543442
  73.9153824   4.1534324  82.3138504   5.0035129  52.7697182  46.4336510
   4.8248897  52.3386421  47.2694130   5.7319412  52.2741623  46.0594177
  27.4997616  44.5841255  58.8843155  27.5872803  45.3238716  59.4854393
  27.1883373  43.8647156  59.4335861  58.3107185  16.1215401  79.5388870
  57.7122650  16.3659039  80.2448425  58.4971848  15.1953783  79.6927948
  14.6632433  62.2016678  54.7370796  14.1630411  61.7278366  54.0726166
  14.0103941  62.7288170  55.1976585  10.7005463   4.3571172  77.1473007
  11.5682602   4.0434361  77.4020767  10.8703117   5.1675143  76.6670227
  31.5750713   1.5954015  84.6130676  31.3812447   1.1114919  83.8102646
  31.4090557   2.5106030  84.3870697  78.8947067  20.7700844  79.5571136
  78.1882095  20.1274643  79.6213531  79.5580673  20.3433361  79.0148315
  24.3476028  16.5554695  82.0306168  24.6513405  17.0661564  81.2801666
  24.3046055  17.1871052  82.7485428  56.8651848  33.0144691  41.3621216
  57.7013931  32.8291359  40.9347610  56.8692932  33.9623146  41.4955635
  73.1850739  70.0799332  36.3855133  73.4076462  70.5658035  35.5913925
  72.7991943  70.7351303  36.9669304  -0.1113160  68.9594879  69.6892929
  -0.1973740  68.2742233  69.0265427   0.7581519  69.3304291  69.5387650
  74.3685684   4.6125269  26.0896091  75.2090149   4.4398322  26.5139503
  73.9101791   3.7726183  26.1153927   6.8831558  31.0211620  62.3082466
   7.3252807  31.7768936  61.9214287   7.5944839  30.4489632  62.5960541
  60.8728561  25.3671322  11.8968058  60.7571983  24.4653416  11.5974274
  61.5694351  25.7165413  11.3409977  41.2307549  58.4487762  83.5638351
  40.6299858  57.7905922  83.9132690  42.0656586  57.9887924  83.4767609
  72.3095093  36.6291237  47.4558640  72.1696091  35.7709618  47.0555878
  73.2569046  36.7600861  47.4167175  61.1757469  33.4516487  50.4555473
  61.1916237  34.1028023  49.7541351  61.9441681  33.6552048  50.9887695
  85.2194977  35.8161697  86.2476044  86.0282593  35.5487671  85.8109818
  84.5244217  35.5634613  85.6399460  61.4281998  36.1972885  70.6712646
  61.3116379  35.2843781  70.4081192  62.2954445  36.2211189  71.0756836
  23.3001614  14.0364962  83.1704559  22.8353271  13.7124319  82.3990021
  23.6798019  14.8689604  82.8891983  35.5479622  43.5439987  13.2426195
  36.4886436  43.6875954  13.3462200  35.4825363  42.7046700  12.7871246
  53.4058685  58.2699127  40.6244392  53.9711685  58.1794167  39.8573151
  53.1256638  57.3762703  40.8222313  59.5421906  34.7125664  28.3848038
  58.5880737  34.7879257  28.3702698  59.8536072  35.6174278  28.4067688
  63.3085747  10.6715164  17.2410851  62.5190048  11.2079611  17.3120785
  63.6738510  10.8950729  16.3850327  24.6722336   1.0024030  84.4488907
  25.5929680   0.8681473  84.2242661  24.1906471   0.6862718  83.6844559
  39.3597450  31.2525749  28.2458248  39.1000137  32.1704140  28.1661530
  38.5788994  30.7599030  27.9932690  40.8139992  24.0111637  10.4457197
  40.2362556  24.0561752   9.6838675  40.4056892  23.3614521  11.0178976
  83.0914154  27.6374626  68.1569366  82.3886566  27.9754257  68.7120514
  82.6393356  27.1488304  67.4691162  54.7672043  59.7841530  65.4693375
  55.0701561  60.6280022  65.1341171  54.2114220  59.4351883  64.7725143
  74.8809052  69.2620392  55.4601288  75.4627151  69.6108322  54.7847977
  75.4396286  69.1660614  56.2313919  81.7085342  24.9677353   2.0247371
  81.4301147  25.3784618   2.8432825  82.5558701  25.3689041   1.8315725
  34.1996803   6.1723032  72.1148911  34.9276199   6.7775440  72.2563858
  34.5878029   5.3031449  72.2156754  56.4260635  50.9166451  64.8000412
  56.6775856  51.6799126  65.3200302  56.8236542  50.1747475  65.2558289
  59.8979836  55.6701813  59.1644020  60.5684853  55.9367294  59.7933769
  59.7168159  54.7554970  59.3806572  20.3112640  66.8324814  68.4275208
  20.1928940  66.6202240  67.5016937  20.5140305  65.9936142  68.8415527
   0.8146984  69.4885406  62.6323318   0.0350216  69.1542282  63.0756950
   1.0917264  70.2342453  63.1646957  43.3908730  70.6678162  70.9111557
  43.8929939  71.1702728  71.5527420  43.6730919  69.7625580  71.0419006
  77.9258957  71.3312607  33.3280830  77.7751465  70.5769196  33.8977089
  78.4134674  71.9491119  33.8728409  75.0825272  10.4879732  20.0440254
  74.1843567  10.6484385  20.3334675  75.0449753  10.5682192  19.0909348
  11.4284058   0.8337249  88.1398773  12.1900883   1.4134411  88.1410065
  11.7232485   0.0499658  88.6035843   4.1199765  12.6143131  53.1562271
   4.3759065  12.8195858  52.2570076   3.1677485  12.5240412  53.1195564
  11.5313787  41.3442116   9.0283737  12.0023079  40.8226738   9.6783400
  12.2094564  41.6376915   8.4198418  11.2102814  51.2008095  86.2805252
  11.3879347  52.0233154  85.8242874  11.7490072  50.5534134  85.8256836
  58.8271103  42.5070076  12.6450014  58.2901878  42.5778351  11.8557434
  58.7528038  41.5884018  12.9035940  50.7887726  66.9590988  49.8591118
  50.7949371  66.0495224  49.5610123  51.6649666  67.2846680  49.6529083
  48.6416626  59.8724937  66.2663574  48.1234093  60.3309517  65.6049500
  48.5220451  58.9446945  66.0635986  25.8733673  64.7829285  83.7477646
  25.0316048  64.6990509  83.2998505  25.7059059  64.4629745  84.6342316
  80.2257233  50.4549904  23.4679470  80.5055161  49.8390732  22.7907524
  81.0415192  50.8135986  23.8173885  50.3685226  42.9453926  14.5372858
  50.8989716  43.4507408  15.1533079  49.4987335  42.9186630  14.9360104
  41.4470367  52.7135963  53.9707451  42.0808945  52.5475540  53.2729721
  40.6603661  52.2420120  53.6969109  42.5048027  56.8819809  13.1585779
  43.1136703  57.4486046  13.6323404  42.4433937  56.0930557  13.6971445
  -0.2882713  69.9013062  81.1631699  -0.1395735  70.6886139  80.6394653
   0.5047134  69.3792496  81.0412598  25.2692204  57.8150711  39.8857384
  25.6559143  56.9545288  39.7239876  24.6007023  57.9086418  39.2070923
  85.8651199  22.5695686   1.5838994  85.3900070  21.8729973   1.1308149
  86.6964722  22.6371040   1.1142967  51.9660187   8.6292562  81.3392029
  51.2391281   9.1817665  81.6265945  51.5463791   7.8384891  81.0003433
  63.6395721  57.9767380  39.6850471  62.9194374  57.7455635  40.2717285
  63.3577919  57.6642952  38.8252754  45.3057823  33.5107079  17.1890774
  45.2715759  33.9061966  18.0600834  45.6880608  32.6451874  17.3338757
  38.2147331  20.1349373  13.3674126  37.3154221  20.0347118  13.0552807
  38.4237251  19.2922115  13.7703590  84.4583130  23.7835045  85.5469208
  85.3875275  23.6144466  85.7024994  84.4322891  24.6737099  85.1960831
   2.8927004  12.4237490  65.9290237   3.7405696  12.5326366  66.3597183
   2.9422865  12.9870195  65.1566925  43.6617432  34.6221237  44.8095360
  43.7794266  34.2580452  45.6869354  42.9171562  35.2175102  44.8951645
  16.3663960  11.3756151   3.3336349  17.1101017  11.9357090   3.5559599
  15.6844807  11.9844275   3.0497823  12.3168383  54.9851685  55.3930817
  11.9312534  55.5879707  56.0288391  12.3161688  54.1368332  55.8364296
  79.9438629  50.3373718  48.5894966  80.6134949  50.9511795  48.8912621
  79.6888275  49.8553543  49.3761673  17.7556686  65.4840698  52.4653244
  17.1409874  64.7594757  52.5809021  17.3427773  66.2222214  52.9135323
  30.7078342  50.3693428  64.3469772  31.2251072  50.8907013  64.9608536
  30.2473412  51.0160789  63.8122749   0.9351313  26.7917061  11.0258551
   0.4409787  27.3541927  11.6222229   0.6784340  25.9019184  11.2679625
  73.3100433  52.5173836  10.0614491  73.5998688  52.5275269   9.1492376
  74.0540543  52.8652763  10.5530281   8.8060007  68.1360703   9.6520319
   7.8621593  67.9774094   9.6371288   9.1909761  67.2753830   9.8171072
  86.7037735  11.1378355  57.9716797  86.2386780  11.5374050  58.7067070
  86.6270142  10.1958389  58.1232834  56.7469635  21.9836483  68.9399109
  55.9288826  21.9298115  69.4339523  56.5080566  21.7194176  68.0514603
  59.4165192  59.0352097  43.1772766  59.6071777  59.8105049  43.7052917
  59.5055771  58.3025169  43.7867546   2.7035038  57.6082268  58.8656693
   2.0913420  56.8724518  58.8768845   2.2765439  58.2666931  58.3176193
  60.2079201  64.0185089  47.3183479  60.2382507  64.9704895  47.2232399
  60.3550644  63.6845932  46.4334297   1.5060281   8.2745867  46.6310081
   1.8471048   8.0906639  45.7557526   1.5135653   7.4261818  47.0741615
  38.6747932  59.7601166  24.2993317  37.9326973  59.1576309  24.2489471
  38.2766914  60.6305847  24.3042679  64.8243103  53.6577911  87.5891571
  65.4474945  53.9237518  88.2652817  64.0034790  53.5184631  88.0614471
  66.9298859  55.2279968   6.4230871  67.6447220  54.8570061   5.9057841
  67.2185287  55.1360283   7.3310857  50.0480576  39.1725197  18.1185932
  49.4476471  39.0306892  17.3867283  50.4879456  39.9969711  17.9112015
  58.3499756  12.1766806  47.5094490  57.9777184  12.7653065  46.8528099
  59.0008888  11.6640892  47.0300827  85.0350189  33.2099762  58.8248138
  84.1364059  32.9068985  58.6949539  85.5649796  32.4141083  58.7804565
  84.5231857   9.1061668  78.3921661  84.4285355   8.2884617  78.8806686
  85.1854477   8.9133892  77.7284775  76.8583603  48.0096092  20.7956104
  77.5412750  47.7497025  21.4139233  77.2533569  48.7170181  20.2859230
  13.3176470  43.5777740  82.4957199  12.9473677  42.7031784  82.3765182
  13.9910851  43.4634018  83.1662598  40.7866592  39.1337776  63.7889519
  39.8640823  39.0049324  63.5687523  41.0983658  39.7741585  63.1494293
  65.0530701  35.0141068  46.1095428  65.8241806  34.4494934  46.1627884
  65.2503281  35.7448158  46.6955376  81.7271423  58.9112816  87.7294006
  80.9200439  58.6481590  88.1716537  82.1486816  58.0861053  87.4893570
  82.9685669  63.5606308  25.8099518  82.0567551  63.5534401  26.1011314
  82.9147949  63.6062698  24.8553524  38.9385452  33.1127739  80.5461273
  38.8346786  32.2058907  80.2580109  38.6613503  33.1062584  81.4622879
  78.9941788  53.2986145  24.3922253  78.4364700  53.5216026  23.6469269
  79.8678360  53.5922661  24.1339340  62.1801643  56.1399078  85.5584259
  62.3334885  55.7448692  84.7001343  63.0515900  56.2126732  85.9477234
   2.5427084  42.0421982  10.7173328   2.6982567  41.6245384   9.8702211
   2.4575000  41.3131866  11.3317547  42.8587685  66.4013977  61.4759789
  43.5242386  66.8902740  60.9918518  42.4376602  65.8514404  60.8153381
  35.6763763  38.9435577  66.8456802  36.2014008  39.7360001  66.9580002
  34.7923698  39.2650566  66.6684723   3.1222878   8.4740047  39.0436134
   2.6759615   8.8725300  38.2964821   2.5280206   8.6149311  39.7806473
  14.9602613  46.0870628  63.9036827  15.4279213  46.3326607  63.1054268
  14.0638485  45.9179916  63.6136971  84.5927811  63.6428909  58.0609550
  85.2724457  63.8823166  58.6910133  83.9673920  63.1254959  58.5683250
  47.5934486  34.7210579   3.9462306  48.2329597  35.4116821   4.1202908
  47.8082428  34.4120140   3.0661240  70.0888214   8.5328293  44.9408760
  69.1485901   8.3534184  44.9377556  70.4960175   7.6792593  44.7930984
  47.2119255  69.1427307  28.1390343  47.4295502  68.5675430  27.4055290
  47.7577057  68.8285370  28.8598957  62.7928772   0.0192940   6.0257430
  62.5256844   0.9272964   6.1684713  62.5524368  -0.1610974   5.1169639
  61.2851028   6.6964102  76.9867020  60.7871399   7.1658483  76.3174515
  61.5472298   5.8798852  76.5614853  57.3718300  58.7700348  19.9749794
  56.9421654  57.9984970  19.6057205  58.0697517  58.9761200  19.3531590
  15.4893064  26.1757793  69.6777649  15.1988478  25.7451572  68.8737564
  16.2996998  25.7235928  69.9123306  53.6682510  37.3406982   0.9267824
  54.3391075  36.6712112   0.7927294  52.9928818  37.1358719   0.2801355
  77.3991928  26.5561504  33.1015739  76.5389328  26.2537022  32.8105354
  77.9770737  26.3863506  32.3576317  28.8378391  69.6041031  26.7313519
  29.3999748  68.9644775  27.1685200  28.4529057  70.1122513  27.4453812
   2.3825657  38.3854065  42.4918060   2.5170200  38.1656799  41.5699196
   2.6348662  39.3063965  42.5577736  41.5220795  58.1226463  32.6628609
  40.6115150  58.3382874  32.8643646  41.5220490  57.9367790  31.7238789
  41.4964294  53.5061989  64.0750351  42.2634125  53.4772873  64.6469879
  40.7791252  53.7737198  64.6496201   1.8053123  40.7254715  54.0475883
   1.2843754  40.8135223  53.2493973   2.5071642  40.1195488  53.8099098
  15.9480391  40.7613411  77.7328796  16.5759277  40.5703659  77.0360947
  15.1540823  40.2930946  77.4748001  53.4271889  32.9714203  69.9118195
  52.5517235  33.3263435  69.7574692  53.2715797  32.0994911  70.2748032
  76.8929367  25.4771900   6.1024714  76.0179062  25.1034184   5.9982929
  77.0647049  25.4263630   7.0427613  81.2448502  31.7277184  15.2227564
  81.2063446  31.5542183  16.1633129  80.4449997  31.3344707  14.8737173
   7.6313252  39.0508919   2.1408515   7.4707050  39.9934731   2.0964251
   7.2846303  38.7887840   2.9936900  37.8990555  33.4178886  73.7165298
  37.1548920  34.0124626  73.8110428  38.1514359  33.2053452  74.6150589
  82.1852341  66.1183701  48.9231758  81.2388229  66.2606888  48.9065132
  82.5265350  66.8391190  49.4525757  10.7864761  10.1152458  13.1987410
   9.8982792  10.2441759  13.5314808  11.1803074  10.9873323  13.2230854
  39.8842888  19.9082699  87.2776108  39.1944466  20.5395660  87.0731125
  40.4500618  19.9132519  86.5055313  48.7367554  39.3594131   2.8559928
  48.7416573  38.5613251   3.3844438  48.8450775  40.0676422   3.4907472
  63.6802368  60.3243561  42.2113342  64.5456467  59.9390106  42.0741692
  63.7498932  61.2060356  41.8452415  23.5976658  17.9520454  -0.2501650
  23.6542511  17.4746399   0.5775516  22.7317924  18.3597145  -0.2328184
  86.0023956  13.9976530  35.9083977  86.0792618  14.8883343  36.2504654
  85.2190704  14.0189705  35.3586922  73.3917007  55.3256340  28.2052422
  73.5826340  55.8614311  27.4353733  74.2519836  55.0770874  28.5434189
  46.1078835  62.7349129  52.1526680  46.2841263  61.8218765  51.9256516
  46.8451195  63.2203636  51.7824631  24.7291527  43.5229683  25.6181183
  24.7244377  42.6711159  25.1815891  24.1183090  44.0561714  25.1093979
  65.6454926  25.7802486   8.5872164  65.9791489  25.5250187   7.7271223
  66.4266815  26.0201397   9.0856323  56.2733498  27.8098030  75.7994919
  55.6682281  27.0742397  75.8943939  56.8554039  27.5504894  75.0852051
   8.0964632  54.4627686   4.8372669   7.8512955  53.5679054   5.0725174
   7.2690420  54.9439850   4.8309031  26.7073975  65.5176392   8.4750795
  26.9883442  66.1963120   9.0888414  26.6710606  64.7189255   9.0013609
  42.5859489  56.0515213  60.9259911  42.5417480  55.6695747  60.0494080
  42.2964630  55.3490601  61.5082054  86.3733673  36.0851746  42.0787125
  86.3278351  35.1291656  42.0928345  86.4552765  36.3346825  42.9991875
  80.5801468  69.8770599  61.0066452  81.0192032  69.2210770  61.5480766
  80.7528305  69.5995712  60.1069717  25.2145615  53.6180115  10.0243540
  25.4228897  53.3129311   9.1413155  26.0477180  53.9385681  10.3697929
  85.1891708  14.0210505  47.6529312  84.2353897  14.0827789  47.6006851
  85.3660889  13.8180838  48.5714836  78.3877335  17.2200756  65.7009583
  78.0932617  17.3227520  64.7959900  79.1406555  16.6319141  65.6425705
  15.6237164  62.6930084  57.4665070  14.8948593  62.3746643  57.9990997
  15.3870611  62.4551926  56.5700302  81.8324966  34.2178345  39.3429985
  81.4492645  34.0295029  40.1996727  81.1394196  34.6738396  38.8655777
  83.0971298  49.9864769  10.3116903  83.6301346  49.2113762  10.4887524
  82.5098801  49.7170982   9.6054306   8.4813061  30.7674885  87.3763580
   8.6013594  30.9806480  88.3017654   7.9856939  31.5061226  87.0227737
  46.3585472   9.0513811  56.1604576  45.5377312   9.4841604  56.3953896
  47.0328522   9.7099209  56.3273964  50.5901871  67.6615448   9.3232651
  50.1912537  67.4537888  10.1682034  50.1590309  67.0729752   8.7036457
  24.1313267  23.5609760  81.7077560  23.7272301  24.2670078  82.2121964
  24.7607460  23.1656017  82.3108673  83.3421478  69.5782089  58.0713234
  83.8068314  69.2768021  58.8520012  84.0243454  69.9600372  57.5190125
  51.0276642  51.2678566  23.1921654  50.6600075  52.0667419  22.8142109
  51.3774948  50.7870102  22.4420776  22.4294968  56.3953705  76.2881470
  23.2936440  56.2058372  75.9226913  22.4371910  55.9785881  77.1498108
  34.1510429  61.6155205  17.9715080  34.3822708  62.3024635  18.5967083
  34.9231377  61.5310326  17.4120808  66.0204544  68.7748184  40.4042244
  65.8727798  68.4078445  41.2758636  65.2000275  69.2184525  40.1889839
  73.6040726  10.3850822  68.2572784  74.5074158  10.5618868  68.5198441
  73.5590820  10.6725168  67.3453598  83.8832245  11.1273174  14.1799898
  83.2458038  11.1546240  14.8935595  83.4734421  10.5755405  13.5137663
  31.2879276  24.6825523   0.4874400  30.8429737  25.4518166   0.8430786
  31.2918320  24.8244171  -0.4591809   3.5212834  23.5464725  32.4243698
   3.0590029  23.7186604  33.2446632   2.8469651  23.6213493  31.7491512
  31.5862236  43.2112999  48.2477913  30.9681778  42.5344734  48.5237541
  32.1641579  42.7688255  47.6261482   2.5002370  46.6478462  76.1679764
   3.3386796  47.0953255  76.2820282   2.6960690  45.7259445  76.3352509
   8.1708250  47.8390465  29.2731075   8.9975557  48.2789459  29.0750237
   7.9463124  47.3763084  28.4658298  64.6989136  11.3972883  58.3319969
  65.2737579  12.1095181  58.0518036  63.8624306  11.5826168  57.9051628
  25.9303608   5.1600227   0.3146540  25.4986038   5.9549322   0.0017032
  25.8629436   5.2103791   1.2681482  14.5643682  52.3377953  56.4730148
  14.9179783  51.5134773  56.8072205  14.8321285  52.3582840  55.5542564
   2.5460784  32.3961945   9.6100111   3.2605586  32.8921394  10.0097475
   2.5137391  32.7091599   8.7059984  79.2297211   6.2690463  11.1877480
  78.3457413   6.1589799  11.5380316  79.8046112   6.1298332  11.9403086
  40.7082596  51.1712532  19.1608219  41.4383736  51.2668419  18.5492401
  39.9478912  51.0087585  18.6025524  29.6676979  37.7985840  71.7888565
  29.1849880  38.5641899  72.1004181  30.2704163  37.5888214  72.5022736
  80.0964203  11.7156057  46.6478577  79.6292648  11.2669411  47.3526230
  80.8311462  12.1469336  47.0841599  12.3814363   4.4904962  70.7411194
  11.4388943   4.5477300  70.8978729  12.6851215   5.3976712  70.7733688
  73.0298386   5.8833909   1.0232115  72.3597641   6.3607626   0.5339756
  72.8230133   4.9606695   0.8747412  42.5843544  31.4480858  86.9147339
  43.4782410  31.4989796  87.2532730  42.0344391  31.4001980  87.6967392
  20.6463890  33.9319191  61.7850342  21.5229454  33.5821648  61.6251755
  20.7988815  34.7704544  62.2207336  73.1002350  67.0212021  16.2196236
  73.6664124  66.7382355  15.5015688  72.2136002  66.8242264  15.9174299
  52.6853371  59.0986061  13.4691486  52.2927628  59.6744461  14.1252909
  53.4611893  58.7391777  13.8993778  49.8321190  40.7457619  66.4985733
  49.1168594  40.5432472  65.8955612  50.3524933  41.4054146  66.0399857
  78.9929047  17.3342667  70.0224457  78.5010376  16.9619579  70.7543488
  79.5934906  16.6373100  69.7582932  71.0958405  70.4553299  71.5172119
  71.8884430  70.5234222  70.9848862  70.4697189  71.0401917  71.0904312
  76.2541885  70.2699509  80.4596329  75.4912643  70.7614899  80.7638779
  76.8423691  70.9363327  80.1043777  75.2111359  67.8238373  61.5460930
  76.1449203  68.0130310  61.4540100  75.1463699  67.3293762  62.3631287
  29.6872654  29.1099834  88.9774246  29.0329781  29.0037079  89.6679688
  29.1747646  29.2091637  88.1750946  80.1134338  64.6148605  26.6679058
  80.4406815  65.4730377  26.3983364  80.4374924  64.5049362  27.5618477
  43.3222504   0.9626711   2.2392066  42.5024719   1.2025639   2.6712286
  43.4757385   0.0555694   2.5034792   3.4412253  55.7469482  80.3100281
   3.4367177  54.8177528  80.5398254   3.4063518  56.2019463  81.1514511
  43.9965439  59.6551590  85.7124634  43.1307907  59.7684822  85.3202133
  44.6063652  59.9501114  85.0361862  34.2906380   4.3280478  20.4772472
  33.6767044   3.6313832  20.7095699  34.7862434   3.9741154  19.7387753
  37.9352760  67.9307938   0.8386337  37.0751305  68.3379669   0.9415329
  38.3088379  67.9341583   1.7199243  30.3509121   0.5116886  79.4309464
  30.2085323   1.3935853  79.7747726  31.2237606   0.5452632  79.0394897
  75.9003525  68.3635178  41.1060066  76.2139740  67.4859467  41.3245125
  75.5625534  68.2819672  40.2141151  46.1854591  66.4067917   5.5387254
  46.3118439  65.5050659   5.2435207  45.2872581  66.4270325   5.8689613
  14.9312525  13.6463900  78.6061325  14.9769115  12.7250099  78.3507843
  15.7500973  14.0245991  78.2856903   1.3799484   9.9697218  54.1674080
   1.8090329  10.3800230  54.9182549   1.0620795  10.7042322  53.6423492
  14.3367977  34.1941795  60.2041206  14.0019388  33.5414352  60.8189583
  13.7205830  34.1719093  59.4719887  76.9778442  30.0531902  72.8926239
  77.7875366  29.5485458  72.9699097  76.4161758  29.7129574  73.5890427
   4.8226395  70.0070953  78.6595612   4.2540474  70.6925507  79.0103912
   4.6152020  69.2328033  79.1827011  14.6958399  55.1501083   4.7127328
  14.9761801  55.8442268   5.3092566  15.0650902  55.3988914   3.8653879
  51.3455009  11.0403099   0.6546972  51.7265816  10.1737518   0.5129770
  50.5628777  11.0508194   0.1036762  69.4482498  59.1926384  57.8804436
  70.0138092  59.4040718  57.1376953  68.6246948  58.9112740  57.4819221
  59.1965752  60.4029465  58.8569145  58.9479713  60.2167168  59.7623138
  58.4732094  60.9269791  58.5128670  50.6646004  66.3784790  59.1615486
  51.3809967  66.8968735  59.5279808  49.9616623  67.0113831  59.0147896
  42.3688278   5.1400123  82.1554642  41.8052940   4.7311783  82.8123627
  43.1179581   4.5488133  82.0811691  83.3880005  14.7600918  64.6977463
  83.9044724  14.7143345  65.5023575  82.6704254  14.1423855  64.8382950
  61.4424629  12.7158470  17.3640594  61.4250679  13.5839252  16.9611092
  60.5334358  12.4179068  17.3304081  79.7160187  64.7768784  38.8255234
  80.5259781  65.2049789  39.1028748  79.6616821  64.9527206  37.8861847
  46.5921173  60.4720993  71.0457230  46.3168144  61.0889816  70.3675690
  45.8279839  60.3860855  71.6157532  82.2182617  10.1700487  60.7338448
  82.3017807   9.9378138  61.6586800  82.2861023  11.1247339  60.7195549
  59.6669312  14.3392143  62.3091431  58.8528404  14.5395241  62.7710571
  59.3858833  14.0667648  61.4356346  64.6936722  17.5634060  74.3405457
  64.0855026  18.2554913  74.6001129  65.4356537  18.0289326  73.9545593
  28.2160378   5.7778397  87.9885178  27.9981194   6.5876632  87.5270767
  27.5563087   5.7105255  88.6787796  36.3766670  39.2890930  19.6361561
  35.7140160  39.8774757  19.2743187  36.6245346  39.6907196  20.4689159
  74.6287918  60.2328491  57.8072624  74.0121002  60.4140358  57.0979652
  75.3162613  59.7070274  57.3984528  76.2042847  63.5454369  78.3015671
  76.1047821  62.6873016  78.7137985  75.5397644  63.5587654  77.6127548
  23.7723236  11.9772148  85.4043045  24.6194382  12.2728262  85.7378387
  23.6773968  12.4232426  84.5627136   7.3442445  37.6660233  70.5899887
   7.0672326  37.4611855  71.4830399   6.6745310  38.2668762  70.2633591
  44.4696960  54.7435722  36.2410431  44.8403130  53.9657478  35.8240738
  43.8374443  55.0780563  35.6049500  22.0401154  60.2185516  47.5854759
  22.8096485  59.6497841  47.6090431  22.1749744  60.8339539  48.3061180
  56.1528397  27.1079597  67.7544327  56.2637672  26.2807941  67.2856903
  55.6638489  26.8726997  68.5429611   8.2624016  62.9343147  69.3782272
   8.0059166  62.8176041  70.2930069   9.1900225  62.6990929  69.3576813
   5.2828217   6.6417799  10.6959047   5.0206370   7.5619850  10.7226133
   5.2470107   6.4093666   9.7680397  16.5652199  53.5377655  31.0280037
  15.7035904  53.2107086  30.7694302  16.9321957  52.8413773  31.5726147
  26.1448555  26.9116554   6.0582609  26.8436337  26.7213688   6.6841445
  26.3825989  26.4147434   5.2754526  11.3349934  21.8021927  25.1739426
  12.1309357  21.4240799  24.8001270  11.5129013  22.7417889  25.2156506
  29.1016445  28.1550083  56.9834557  28.3019009  28.4251518  56.5321617
  29.7265968  28.8576202  56.8045578  79.1647034  61.9762039  42.1517410
  79.7037201  62.7510414  42.3108521  79.2057419  61.8463287  41.2042809
  55.6534081  36.5024681  45.7888680  55.1216736  35.7635231  45.4931488
  55.2639542  36.7583656  46.6249733  19.3861103  57.9289894  21.5697346
  18.4812031  58.2314186  21.6466217  19.8642120  58.6869774  21.2334213
  49.4367752   8.6932793  18.6008854  49.4478798   8.6683969  17.6440735
  49.2405930   7.7934113  18.8616199  59.8750496  24.6523342  54.7879257
  59.8816338  25.2782974  54.0637970  59.4991455  25.1387806  55.5216141
  74.0948105   2.9676425  22.1683064  73.2256317   3.1683304  22.5154190
  73.9246216   2.5383060  21.3298931  80.7853012  53.7668571  53.1742630
  81.3628540  53.4162025  52.4962540  80.9281158  53.1960602  53.9292641
   6.5824766  48.7962341  20.4108334   6.5208926  49.3667221  21.1769810
   5.6966252  48.4520416  20.2966805  18.4062920  47.6003799  17.9301720
  18.6127911  48.0082664  17.0892105  17.6672859  48.1069641  18.2670326
   5.5299134   5.0028558  83.7595062   4.7254920   4.5403156  83.9944382
   6.0897593   4.9167852  84.5311203  21.4838352  39.1479149  23.4595509
  21.0292988  38.3069115  23.5079403  21.5646095  39.4292984  24.3708858
  32.6887665  44.0215340  66.5906219  31.9952927  44.6386108  66.3570786
  32.6780052  43.3718796  65.8877258  67.3011475  65.6301041  24.0803013
  66.5806808  65.9815063  23.5571518  67.0058975  65.7211075  24.9862690
  45.2121964  23.4036674  88.9794006  45.4421692  22.9130402  88.1903305
  44.2632980  23.5162849  88.9233704  80.4922333  15.2739353  10.5898609
  81.0044861  14.4764729  10.4561300  80.7946320  15.6144838  11.4317713
   2.4511187  23.7293339  79.2435150   3.0551648  23.2444553  78.6811523
   1.6571084  23.1949749  79.2590561  80.6857300  44.3636055  72.7151489
  80.8387985  43.4191818  72.6857224  79.8459778  44.4562340  73.1651077
  67.8817139  42.1932487  27.4068813  68.6168442  42.4995918  26.8758774
  67.7100906  42.9117775  28.0155582  71.8454437  21.1103821  66.8088074
  71.9122696  21.2555828  65.8650513  71.5573502  21.9525604  67.1609039
   3.6530557  65.9807358   5.9318829   4.0717244  66.8160858   5.7241669
   2.8231480  66.0037689   5.4554853  72.3995743  35.6485291  86.1496201
  72.5847321  34.8110504  86.5745697  71.9833832  35.4099693  85.3213120
  86.6710434  38.0149651  82.4109955  86.5177002  38.9573288  82.3426514
  85.8299789  37.6183548  82.1839676  46.4449158  52.7025414  35.5192604
  46.7877350  51.8996544  35.9117851  46.6805649  52.6363029  34.5938911
  40.6897736  25.4651852  52.4383240  40.0202103  26.0744820  52.7492561
  41.0631752  25.0918293  53.2367058   4.7653074  11.1139650   3.9878192
   4.9729042  11.2508163   3.0634778   3.9590478  11.6104031   4.1282678
  37.0066147  69.8550568  34.2261353  37.3471947  69.8028793  33.3330994
  36.0578728  69.7775421  34.1255608  69.0344391  62.3276024  32.5408707
  68.6117706  62.8432465  33.2276688  69.0497971  61.4351387  32.8865700
  73.5356674  27.5211849  12.9383135  72.7582474  27.7138309  13.4624681
  73.8355865  28.3767700  12.6313076  70.2129440   3.1474338  72.0331879
  71.0106430   2.9318879  72.5163498  70.5206528   3.6300476  71.2659607
  43.2736168   8.6162834  45.1479721  43.7366867   7.7982745  45.3286934
  43.7146988   8.9762449  44.3784904  58.3703728   1.2518419  71.5761185
  58.9028053   1.9713304  71.9153595  57.5179939   1.6486310  71.3965683
  68.8525772  68.9814682  76.8693390  69.3037949  68.1401367  76.8000259
  69.5569534  69.6281509  76.9127579  68.7783813  55.2728958  62.9400673
  68.5140305  54.5108223  62.4247093  69.2132797  55.8483810  62.3108559
  77.6033401  65.0067139  16.4103909  77.4790878  65.7426147  17.0097580
  77.7767944  64.2588425  16.9820805  50.0629425  40.4130363  14.4887209
  49.1212502  40.5792351  14.5314646  50.4484558  41.2676086  14.2955379
   8.6084576  42.4684296  59.6602440   9.1458158  43.2599716  59.6295624
   7.8081126  42.7039375  59.1909714  15.9049692  36.8642960  66.9140625
  16.0675182  37.2954292  67.7530746  16.7732296  36.6044235  66.6061325
  30.5762272  65.6752167  52.6902695  30.6593189  65.7486954  53.6410217
  30.0136681  66.4086533  52.4416122  37.1265602  36.0378990  30.0386963
  36.7446365  36.7740059  30.5167274  37.6786423  35.5945892  30.6828327
  65.4199524   1.0705224  26.6866550  64.5134430   1.0162534  26.3841152
  65.3917084   1.6867955  27.4185295  12.7627029  59.9980011  19.1244965
  12.1489811  59.2668915  19.1956100  12.3000984  60.6485252  18.5962486
  78.7537537  42.6641159   4.6409926  79.2433014  43.4825783   4.7227693
  77.8930817  42.9310570   4.3181672  41.9549561  21.6184959   6.0034361
  41.1811714  21.8910751   5.5102901  42.5257721  22.3868465   5.9973702
  59.5482635  54.3728256  21.4489479  59.0744362  55.1955643  21.3272133
  60.4451981  54.5708809  21.1796684  28.7605534  19.1390018   6.6621947
  29.0389004  20.0285130   6.4441905  28.9930916  18.6198292   5.8923783
  64.8897476  51.4888496   2.0441108  65.7652435  51.1279297   1.9045676
  64.9901581  52.0787926   2.7911825  34.7596664  56.5417824  51.2819748
  33.8831444  56.5219688  50.8978577  35.3221626  56.1470757  50.6156158
  14.1622648  40.9047813  63.5807304  13.7436771  40.8005447  62.7262421
  13.4722929  41.2548218  64.1443329  37.1555023  61.9613342  24.5511684
  36.6461067  61.5451279  25.2465267  37.0191307  62.8995361  24.6831245
  31.8734875  60.0105209  30.6667347  31.9130440  60.0993423  29.7144852
  31.4666767  60.8234940  30.9664192  73.8157730  40.1154327  88.3846970
  73.3720093  40.5120239  87.6350174  73.1883774  40.1938019  89.1033478
  53.2979279  27.3981133  48.9635429  52.7334671  28.1416016  48.7517853
  53.4062119  26.9353237  48.1326790  81.2655258  14.8049345  19.0460510
  81.5486145  13.9645052  19.4062901  80.5759583  15.1003008  19.6406078
  39.5711288  68.8394470  39.3279839  40.5262604  68.8051758  39.2751999
  39.2946014  67.9255219  39.2608643  75.6811218   2.4214878  37.4361687
  75.7095032   1.6196464  36.9141769  75.2150269   3.0498950  36.8847198
  20.6080475  52.8309784   0.8603525  20.2816982  53.2207985   1.6713800
  21.5474663  53.0144806   0.8674845  34.5386696  11.5664129  81.3012161
  34.0179634  12.3695412  81.2922897  34.3710823  11.1818638  82.1616058
  21.1073875  53.3959045  31.2116871  21.8998241  53.8142319  30.8751221
  20.5582771  53.2659721  30.4384956  43.8993416  54.8858109   2.3487501
  43.2506790  55.5862694   2.2792752  44.6582336  55.3018494   2.7576866
  44.6590004  60.0955086  32.6266785  45.5090485  59.8498535  32.2615623
  44.7033730  61.0473595  32.7174759  71.6607971  43.0810966  45.2227745
  72.5526047  43.1130180  45.5690346  71.5019608  42.1521263  45.0554008
  11.0343285  30.8199577  71.2776947  10.9911585  31.4281330  70.5398026
  11.8651428  30.3593483  71.1601486   4.8462334  34.5863228  21.2330761
   4.8972945  33.9150200  21.9134998   5.7582564  34.7646294  21.0036125
  49.4877625  47.7641449  68.8181534  48.6897736  47.7480850  69.3465347
  49.3963280  47.0196266  68.2235489  11.8812933  54.5644722  64.6572723
  12.6834583  54.0654831  64.8114624  11.2245216  54.1382599  65.2079315
  49.8877258   6.8832016  88.2262802  49.6454697   6.0935917  87.7424850
  49.1032410   7.1076050  88.7267380  79.3537216  48.5736961  87.7533875
  78.7477188  48.4202766  88.4782639  79.2318802  47.8202019  87.1757736
  84.8497772   3.3892076  37.5912628  84.4785080   4.2114911  37.9110146
  84.2107544   3.0695553  36.9543152  20.0992203   4.1262321  75.9779510
  19.5198364   3.3986571  76.2041855  20.4489765   3.8952363  75.1174011
  77.6950531  34.6944771  78.7555389  78.1404266  34.6562309  79.6019516
  78.3820267  34.5104446  78.1148911  59.2324562  58.5052986   1.8053085
  58.8485260  59.1087074   2.4414887  58.6451759  57.7494354   1.8074490
  48.0400772  54.0339241  16.3920803  47.2512817  53.4917030  16.3981113
  47.9748688  54.5426140  15.5838652  49.0762787   6.0776200  60.2421837
  49.8812943   6.0408359  60.7587395  49.1790276   6.8552675  59.6936073
  65.6700058  24.4410820  20.9798698  65.2028046  25.2759037  20.9478664
  65.6554489  24.1937542  21.9044495   1.6013478  30.1162491  10.7773476
   1.9411300  31.0004520  10.6396265   2.3811085  29.5618515  10.8064575
  65.7039795  38.3630447  22.8650036  65.2127075  38.6691513  23.6273518
  66.0112839  37.4909477  23.1124840  67.9422150  61.2420082   3.0712116
  67.8070526  60.4224396   3.5468950  68.3427734  60.9754105   2.2437396
  18.4582977  16.5629787  57.1038170  18.3321247  16.9585857  56.2413750
  18.8235779  17.2673054  57.6392822  32.2198296  49.6430168  12.1564484
  31.4317093  49.8765526  12.6469126  32.4680519  50.4491920  11.7040100
  10.1054258  25.8726692  82.8289490  10.5263681  26.1775551  82.0251541
  10.4582596  24.9934025  82.9654312  41.5794754  65.9725800  29.8116589
  41.2727890  65.0822449  29.9833641  40.8257942  66.5280838  30.0107021
  45.0340729  37.2719879  38.9346008  45.3863297  37.2496071  38.0448570
  44.5455360  36.4532318  39.0194550  57.8318596  61.3442726  20.8552532
  57.5088043  60.4513741  20.7344379  58.6973648  61.3432045  20.4464359
   9.6461678  68.7926559  55.8666458  10.3948441  68.2020950  55.9500542
   8.9452219  68.2427979  55.5165558   3.3827152  68.2574081  68.2832565
   3.2535386  69.0522919  68.8006592   4.3228216  68.2383270  68.1041794
  74.5553284  66.8501816  66.8367844  74.9970474  67.6111908  67.2135849
  74.2312012  66.3622284  67.5938034  56.2633476  35.6417351  34.3103333
  57.1091347  35.4967232  34.7344170  56.2651901  35.0449104  33.5619774
  71.1890030  34.0705147  46.3136902  70.7778549  34.7760506  45.8142853
  71.8516388  33.7132530  45.7224998  11.0755711  16.1661949   9.8715630
  10.5713825  15.4756641   9.4412231  11.8096323  15.7075386  10.2802439
  12.3348846   7.4734240  11.3996038  12.5299854   6.5592923  11.6058350
  12.8380280   7.9761262  12.0402040  10.8837681  64.2419662  87.2072601
  10.0753908  63.7793808  87.4281082  11.0999146  63.9388428  86.3254242
  18.9129848  56.2647095  73.7967834  19.6077576  56.7397614  73.3408813
  19.0467529  55.3496017  73.5499649  54.1240616  68.6681061   5.5603304
  53.5853043  68.8339539   4.7867255  54.7438126  67.9943771   5.2806339
  40.0065460  10.3288183   4.4262114  40.6511002  10.6291485   3.7854438
  39.5315132  11.1209431   4.6774325  39.0474396  53.3734283  57.7722359
  39.6803322  52.6554832  57.7569885  39.3960915  54.0132904  57.1515503
  70.4745865  57.4789162  73.3226624  70.6923752  58.3798752  73.0837631
  70.4779053  57.0033760  72.4919510   0.7660837  56.3804893  44.6444473
   0.4043990  55.7637901  44.0079727   0.3924687  56.1068039  45.4821472
   0.6138893  40.9449997  13.1806326   0.1744087  41.7733421  13.3728218
   0.3439784  40.7323074  12.2872448  14.4689159  65.1447678  27.4497681
  14.8754473  65.5817184  26.7014084  14.8693838  64.2755203  27.4661369
  70.1271896   5.8195968  59.3667336  69.2301254   5.4937944  59.4399567
  70.5095673   5.6645451  60.2304344  55.0331268  11.2445364  10.4351206
  55.8066025  11.2141590   9.8720522  54.3389740  11.5843563   9.8704052
  31.8076572  12.3305922  68.5448303  30.8643150  12.4358044  68.6683960
  32.0359192  11.5701990  69.0795593  74.1368179  43.9166222   4.7417684
  73.8384018  44.7830467   4.4652138  74.4719543  43.5120468   3.9416206
  27.6470127  46.6527977  13.1180620  28.3701649  47.2736588  13.0296774
  26.9831543  47.1279182  13.6178465  55.0089340  18.7579021  41.6254692
  55.5605316  18.2288017  42.2016830  55.6282845  19.2570057  41.0929947
  85.0176315  16.3372307  74.9156952  84.1408463  15.9550982  74.8776093
  85.0281906  16.8312569  75.7354889  41.4220657  27.6884861   7.6148887
  40.7419586  27.4787178   8.2549553  42.2189140  27.7876053   8.1358852
  15.6326828  42.1043739  48.4851036  14.7473688  41.9293175  48.8041725
  15.5124207  42.7456474  47.7847214  75.6709061  26.9224510   9.5519533
  76.5421677  27.0438843   9.9293108  75.6493225  26.0019131   9.2904673
  83.3391876  66.0377655  59.3396378  83.1045303  65.8865967  60.2552338
  84.1631699  66.5231552  59.3805580  34.1058197   4.9270945  63.4592400
  34.7451859   5.6192451  63.2907944  34.3188896   4.2442536  62.8231888
  41.5148125  37.2437439  22.5743217  41.3433304  36.7066269  23.3478394
  40.6646423  37.3176231  22.1407566   1.9207076  16.3037052  20.2518139
   2.7026682  16.8464546  20.3527679   1.4366730  16.7121639  19.5341072
  76.4439240  48.6493187  45.4469719  76.7506943  48.1216965  46.1843567
  75.9755096  49.3787498  45.8528671  54.7217903  53.6672859  11.3499403
  55.5898781  53.7632256  10.9582062  54.1643372  54.2591743  10.8448219
  53.8294067   1.5570792   9.2590933  53.3746223   1.3356384  10.0717230
  53.7764473   2.5114136   9.2073889  53.3095016   3.2631612  32.2629280
  52.4708595   2.8122263  32.3607674  53.4680977   3.2718134  31.3190002
  45.0986633  35.7994232   4.9549336  44.9603729  36.3369446   4.1750751
  45.9802933  35.4427071   4.8467064  58.8940468  66.3899612  39.2491531
  58.4194870  65.7593002  39.7907143  58.7042160  67.2390366  39.6482506
  24.0050488  14.8635187  10.4548292  23.7011204  15.7624311  10.3290691
  23.2219276  14.3806610  10.7190294  44.1158104  46.4897385  68.4854050
  43.5693054  47.2288933  68.7522659  43.6271210  45.7164726  68.7673187
  40.2232933  40.4120522  49.9809875  39.6704369  40.8824425  50.6049385
  39.6104126  39.8867722  49.4665070  32.7417603  66.8505936  84.2270279
  33.1070023  65.9847412  84.0449982  31.8845825  66.6724319  84.6139908
  74.6340790  57.4894638  51.2761421  75.0938034  57.3293343  50.4519806
  74.4321060  58.4249725  51.2598915  73.6490097  58.3726730  28.1804600
  74.4789124  58.6878700  28.5384464  73.1435318  58.1046486  28.9478493
  32.8575439   2.3469155  73.8930206  31.9061165   2.3487654  73.7880783
  33.0268173   3.0174570  74.5548019  11.8804159  66.7253494  19.6978779
  11.2469778  66.0636139  19.4202213  11.9866467  67.2910233  18.9330540
  18.1799316  41.8258896  35.9141922  19.1205292  41.6529617  35.9542542
  17.7937527  40.9903069  35.6517029  42.7548218  62.1963501  73.9667282
  42.0449181  62.1880188  73.3246994  43.0974350  63.0895119  73.9333954
  56.2925491  13.1001215  66.8649063  56.7256241  12.3619814  67.2936630
  56.9974556  13.7244720  66.6930695  49.7559204  57.1072311  58.9250679
  50.5475311  57.0712395  58.3881416  49.2898903  56.2968597  58.7192917
   5.5888648  62.0003395  70.1934280   6.3973575  61.9744034  69.6816711
   5.8532882  62.3579369  71.0410385  75.3293304  18.3562355  18.8808002
  76.0944290  18.4881992  19.4406548  74.8831329  19.2030773  18.8814678
   3.8003469  32.8622055  49.6865005   4.3773546  33.6258774  49.6764755
   2.9401681  33.2088127  49.4494591   7.0579710  52.7929001  18.8567829
   7.0745363  53.7392502  18.9995213   6.1950097  52.5189018  19.1673565
  25.7428570  33.4684410   9.7814455  24.9593849  32.9592094   9.9890213
  25.9829578  33.1891098   8.8979530  57.1068459  10.5682163  28.3139763
  57.1515274  10.9587164  27.4411964  56.5142555   9.8233128  28.2130318
  49.1359482  60.3407631  46.3106918  49.2273941  59.3993187  46.4575043
  49.3849945  60.4656677  45.3949394   2.7897601  14.4210701  16.6231728
   1.9618862  14.7300549  16.9911194   2.5319028  13.8086634  15.9341888
  65.2117310  27.2994843  62.0979424  65.2258759  27.5994530  61.1890678
  64.3954163  26.8055172  62.1744537  27.9627228  59.5447388  50.5945053
  28.3644848  58.7117119  50.8412514  27.6238995  59.8999443  51.4162445
  57.0097885  51.3148499  88.1979446  56.3791504  50.9838791  88.8374634
  57.8498001  50.9534187  88.4807510  27.2046623  43.8271141   1.5619636
  27.5726357  44.2650146   2.3294735  26.6811619  44.5016823   1.1293706
  86.0763016  28.4841728  57.4532089  85.2536392  28.6983891  57.0132408
  86.2487564  29.2371597  58.0184517   3.8031058  35.2922363  13.1260099
   3.2654786  36.0724640  12.9902496   4.2031560  35.4236298  13.9856186
  80.0733414  10.2462177  63.4365807  79.5497818  10.3600349  64.2297821
  79.8027649  10.9653645  62.8657532  50.0102730  46.6726303  30.0726414
  49.6929436  46.7521286  30.9722023  49.2524719  46.3606491  29.5780315
  67.3751450  12.3437300   6.2010894  67.6574097  12.9165382   5.4880338
  68.1571121  12.2308626   6.7414837  83.7144318  12.0403290  40.9742584
  84.0088425  12.3924866  40.1342964  84.5055084  12.0115128  41.5123978
  14.5650482  56.2260132  34.1467514  15.2229719  56.8083992  33.7670212
  15.0265970  55.3981819  34.2805481  26.8428288  55.1231232  74.2095413
  26.5601616  54.8209381  75.0726852  26.7735939  54.3493309  73.6503601
  48.1480598  57.3294907  77.3706818  48.0179405  58.1592789  76.9116058
  47.2990341  57.1413651  77.7706833  84.0179977  44.9520302  64.6634216
  84.0442429  45.1554527  63.7284546  84.8927917  45.1749077  64.9816818
  82.1190033  28.0787106  27.1956291  81.8522263  28.4316521  28.0444489
  83.0752182  28.1201286  27.2088451  61.3613014  19.9211674  16.4824390
  61.6890182  20.5739651  15.8638220  62.1072121  19.3413792  16.6363716
  47.7240028   5.3168845   1.4557871  47.3793907   4.7499700   0.7657992
  48.5372963   4.8931241   1.7300327  37.2703781  26.9728470  71.3201294
  37.1594467  26.0221405  71.3110428  38.0983543  27.1217499  70.8635025
  43.4858780  66.3059616  23.5214272  43.0671349  66.2667236  24.3812809
  44.0243645  67.0966949  23.5531216  62.6759262   9.5766258  70.1319580
  61.7362518   9.7369604  70.0451736  63.0832710  10.2202988  69.5523148
  27.0360126  62.7058182  26.7600536  27.3249016  61.8545914  26.4311333
  26.8872967  63.2290230  25.9724178  74.0815048  65.7168198  30.8501949
  74.1150360  66.4791641  30.2723217  74.2199783  66.0747147  31.7271042
  71.3411407  23.4446144  88.3417969  71.8443069  23.1992741  89.1182404
  71.9605637  23.9327946  87.7993698  67.3891144  51.9891510  74.9369659
  66.6650009  52.4034843  74.4676971  68.0725937  51.8812180  74.2755661
  67.3158035  48.7565460  70.1923447  67.7726135  48.2670441  70.8764114
  66.6898041  48.1309929  69.8276062  63.4693222  40.3905640  16.6465359
  63.6477776  39.8195114  15.8993511  64.0675888  40.0861473  17.3289146
  66.3334198  57.5010262  21.3061352  66.8816376  58.0730019  21.8432865
  65.4762955  57.5220566  21.7317219  71.3951416   4.4105406  61.3101234
  70.7883835   4.0157084  61.9363670  72.2304382   4.4467435  61.7761726
  16.9846611  13.0961990  10.5242271  17.5797157  13.7830191  10.8249264
  16.1244602  13.5156679  10.5059586  13.1022730  57.2023163  60.5099640
  13.9491205  57.6344109  60.3987236  12.6547594  57.7209244  61.1785507
  85.8468018  56.8495407   4.4040556  85.4824448  57.7228241   4.5484633
  85.1415024  56.2517586   4.6519480  77.1364059  37.3956299  51.0558128
  76.9934387  36.8766556  51.8473015  77.3582230  36.7512169  50.3836823
  69.8242722  27.5036411  82.5607376  70.7399063  27.7822514  82.5455856
  69.6657867  27.1539364  81.6839142  51.4326286  24.0882549  47.7350769
  50.8984528  24.8825130  47.7413750  51.1382942  23.5955772  48.5011482
  36.1268845  17.4945412  77.6885376  35.7386818  17.1471863  76.8854980
  36.2080536  18.4347076  77.5281219  27.4406586   4.9257717  79.5722656
  26.5413876   5.0873117  79.8576508  27.6501064   5.6698580  79.0077362
  26.1669178  66.4737320  13.8232508  25.6590958  67.0380478  14.4062576
  25.6389923  66.4150620  13.0269566  65.7719269  10.3710270  12.6479263
  66.1600647  10.8423204  11.9107237  65.9349823  10.9340239  13.4046831
  55.8245506  49.9325752  39.1012115  55.8614082  50.0560799  38.1527290
  56.7284393  49.7439499  39.3534851  81.8836288  46.0947762  11.3145475
  81.6541901  46.0687027  12.2434778  81.0663986  46.3246193  10.8723507
  85.1152725  50.3913383  79.0072327  85.4827194  50.5012474  79.8842392
  84.4567947  49.7039337  79.1078568  22.8394375  71.1059036  67.7638702
  22.6883774  70.3610916  67.1819153  23.6667614  71.4813614  67.4625397
  62.7512436  19.2026939  86.3535309  62.2798653  18.4800682  85.9389877
  62.5751381  19.9572449  85.7915115  69.5487442  58.8801842  28.7352257
  69.9790802  58.0792046  29.0343418  70.0271149  59.5859146  29.1703548
  47.5920906  16.7608223  31.7914791  47.7913208  16.2664623  32.5865555
  47.9652939  16.2360134  31.0832958  74.8922729  43.4721603  51.6314354
  74.0491104  43.1752472  51.9737129  75.0295105  42.9462700  50.8435059
  32.5320663  41.0094566  69.5733566  31.9980354  40.5506821  70.2218628
  32.0111809  41.7756920  69.3329544  64.7983246  11.3173256  88.0806808
  64.4656219  11.2594204  87.1850357  64.1187210  10.9071798  88.6156158
  74.1464462  61.5321693  29.6359177  74.5960693  61.9506760  28.9018059
  74.7527618  60.8535423  29.9326935  76.0967178  46.2672043   7.4172373
  75.2876663  46.7632675   7.2923951  76.5859909  46.3986359   6.6051002
  57.9480324  22.4619255  62.6258163  57.1263428  22.1816025  62.2227287
  57.7463379  23.3135548  63.0134735  48.0278664  63.7714272  77.2565765
  47.9060364  64.0968323  76.3646698  47.6512756  64.4526901  77.8136215
  47.2525330  64.9925842  34.5731659  47.5242348  65.7089081  35.1470070
  46.6063728  65.3869324  33.9873352  34.5898361  63.7731819  14.0240011
  35.5423088  63.6962662  13.9682283  34.2806740  62.8704605  14.0998201
  74.7715836  59.9406319  68.7856979  74.6049118  59.9324379  69.7282410
  74.3463593  59.1471672  68.4603729  18.1402588  56.3294754  62.3382721
  17.7760410  55.9535027  61.5368843  18.6896820  57.0524368  62.0354691
  30.9271011   2.8412488  75.9363785  31.8058548   3.0035222  76.2794342
  30.4132099   3.5942051  76.2282715  56.1353912  16.8835869  15.5686369
  55.4888458  16.1909847  15.7046871  55.6715393  17.5473557  15.0582619
   1.6523829  17.1941338  77.7701797   1.4141392  16.5496540  77.1037598
   1.9120082  16.6702271  78.5280380   2.1965590  55.3003120  25.8119507
   1.6807045  54.7476883  25.2248096   3.0819197  54.9396591  25.7640018
   5.4863772  60.7114677  73.1508102   4.8158112  60.4879684  72.5053482
   5.0220666  61.2279205  73.8095398  33.6031303  62.1146812  28.3083000
  33.8364410  62.0751877  29.2357903  32.7977829  61.6016159  28.2418556
  28.5815868  40.6314087   5.5741892  28.1061420  41.1934433   4.9623857
  28.2425518  39.7524147   5.4049020  78.6756210  31.0379791  23.3610077
  78.1624374  30.4394226  23.9037781  78.5698624  31.8919201  23.7803326
  70.2659302  33.4551392  85.0388947  70.4457550  32.6884613  84.4947433
  69.6013489  33.9432869  84.5528183   5.4615889   5.2644076  21.1351528
   6.0904779   5.9533863  21.3497181   5.9650884   4.6315298  20.6231117
  86.9795151  52.1381187  59.4192772  86.4395905  51.4212151  59.0864601
  86.3595505  52.8487816  59.5830841  52.8992691  12.3580856   8.8118525
  53.1596794  13.1804752   8.3970098  52.4265633  11.8839254   8.1277828
  63.2420273   5.0068445  15.2231398  63.7874527   5.4874969  15.8458090
  63.3048363   5.5101848  14.4113913   6.3630781   2.7384274  61.0219460
   7.0322547   2.6384292  61.6990242   5.8322945   1.9448473  61.0907288
  64.6446304  19.8887291  77.9387894  64.7209778  20.0126095  76.9927139
  64.3474121  18.9843464  78.0387115  18.3028431   6.3347330  85.3112259
  18.2880516   5.9026575  86.1652298  19.2330494   6.4222832  85.1031799
  16.9002056  20.1572971  70.5114746  17.2063389  19.7916565  69.6815186
  15.9891939  19.8711224  70.5777512  65.7450790  40.9882317   0.7958791
  66.0918350  40.9462013   1.6870730  64.8139191  41.1784325   0.9099022
  39.3795776  69.7619629   7.1527190  39.3816109  70.1275635   6.2680936
  38.6431274  69.1505280   7.1574922  56.4801483  29.5264568  36.2838402
  56.2777100  30.2011452  36.9319458  55.9000359  28.7984447  36.5067673
  34.0104866  44.7062263  23.6077766  34.1176643  44.2875137  22.7537117
  34.9034805  44.8157539  23.9345760  27.4555721  33.8488808  86.9581451
  27.8603687  33.3616829  87.6757889  26.5952282  34.0998726  87.2943649
  22.6899776  28.6523724  75.8607101  21.8317928  28.6034431  76.2818527
  23.3151951  28.5722351  76.5810699  38.7076874  59.2440567   9.3168240
  39.4098892  59.2018204   9.9659443  39.0639076  59.7870445   8.6136141
   0.4534101  17.9071007  88.5195389   0.6288659  18.7720757  88.8900299
   1.1829059  17.3652477  88.8203049  40.9370995  58.0150642  29.9669018
  41.7155418  57.8482285  29.4354668  40.5413742  58.7932281  29.5743542
  41.6703339   4.6542063  17.0509262  41.1044540   5.0182996  17.7316971
  42.0745277   5.4189997  16.6411095  60.4552574  47.3878746   4.0655932
  60.5983200  46.6602669   3.4603257  59.5536308  47.2752686   4.3666267
  76.6465454  51.0253601  43.1714706  76.9187241  51.6534004  42.5023575
  77.4623795  50.6204567  43.4659195  10.4918337  56.7747231  39.3948784
  10.7475691  56.4760628  40.2675934  10.4351921  55.9733162  38.8745193
   2.4937167   5.1565108   4.9020462   3.2001276   4.7941108   5.4367247
   1.9449311   5.6355515   5.5230021  70.3941956   2.0884759   9.8299150
  69.7621002   1.3707530   9.8695078  69.9558411   2.8181129  10.2677565
  77.1649475  -0.1829816   2.7876422  76.4842834   0.4672912   2.6142213
  77.7341843  -0.1446767   2.0190506  34.5693817  46.4428558  20.1934433
  34.2935295  46.0195312  19.3804646  33.8186226  46.9775085  20.4517879
  66.8653488  28.1204891  80.3595810  66.1531372  28.6669044  80.6918564
  67.5682678  28.7386932  80.1596680  66.0355301  28.1409740  38.7836151
  65.6644363  27.2709370  38.9304428  66.7612534  28.1998062  39.4049873
  34.6342087  37.5711937  87.8974152  33.8779068  37.8498993  87.3811188
  34.3697815  37.7144432  88.8061447  63.5928040  36.9358559  26.4280491
  63.4415169  37.8552284  26.6473732  62.9665794  36.7503777  25.7282810
  37.6160278  35.8691254   1.9148579  37.6452332  36.7399063   1.5184717
  37.8047943  35.2705345   1.1921622   7.7641568  44.0730400  22.6413517
   8.0338640  43.6939354  21.8048306   6.8963852  44.4388237  22.4698639
  31.8401413   3.4817331  82.1424332  31.2199516   3.4879522  81.4133453
  32.4867706   2.8184886  81.9011688  64.1361237  49.0334206   4.4786954
  64.9683304  49.1382217   4.0175228  63.5273590  48.7254295   3.8072910
  41.0784721  13.6781654   7.1017036  41.2499275  14.5767269   6.8198848
  41.1441956  13.7098207   8.0561199  62.0053406  13.4976063  54.0786133
  62.5954132  13.3956060  54.8253670  61.3121300  12.8555260  54.2316666
  58.3252258  25.2834663  18.1606884  57.5777283  25.8778725  18.0961800
  58.9917603  25.7867260  18.6283340  46.0576401  22.3919144  69.5532227
  45.7874641  22.3040466  70.4672852  45.3572273  21.9708061  69.0549011
  49.6245575   9.3434973  77.0928650  49.2280502   9.6210356  76.2670364
  50.0657425  10.1266651  77.4218521  15.5649185  26.4184265  12.4815836
  16.0621529  26.4500732  13.2988892  15.5508261  25.4908886  12.2455635
  19.5134315  67.4732971  88.3519821  19.0822544  68.2013931  87.9045486
  20.3979053  67.7923660  88.5312424  49.6457634  38.4308968   9.2742577
  50.5157623  38.7533302   9.0389385  49.6937943  37.4856987   9.1309767
  36.1760788  62.1817474  64.3383179  35.3855972  61.7671623  64.6839905
  36.3343811  61.7381325  63.5050278  60.9160309  22.0674343  37.4325867
  61.8615227  21.9295387  37.4896660  60.5495720  21.4970722  38.1083298
  57.6501312  33.9369545   7.7640595  56.8761902  34.3888016   8.1003389
  58.3558426  34.1980171   8.3557053  48.6356735  48.2344437  27.1493435
  48.9515495  49.0506744  27.5369263  49.2106667  47.5596542  27.5102806
  18.0855713   0.1639272  71.8049240  17.3903065  -0.4834894  71.9219284
  17.7711506   0.9396298  72.2693100  18.6644325  68.5327377  55.6008034
  19.2257023  69.0730057  55.0446434  18.7138729  68.9449005  56.4633064
  68.9921112   1.0022508   5.9274368  68.2571640   1.4216189   6.3748827
  68.9516373   1.3394668   5.0325189   4.5042782  70.2926636  87.0020599
   4.3079729  71.1800156  86.7015686   4.1250992  70.2476501  87.8797989
   9.4763079  54.8265648  79.2639618  10.0629702  54.1736794  78.8821259
   9.0919418  55.2734222  78.5097656   0.3077291  28.8535786  54.3956299
   0.9456041  28.2536392  54.7821808   0.0523503  28.4346352  53.5737419
  69.6353073  38.5302582  78.6331558  69.1841202  38.8130875  79.4285660
  70.2306137  37.8409882  78.9276962  11.2800541  33.6528473  74.6456070
  11.3369541  32.6975288  74.6645737  10.6785612  33.8427124  73.9256134
  18.8596783  50.9648056  80.3821030  19.1223946  51.4073563  79.5750351
  19.3731098  51.3921814  81.0676422   6.3156595  68.5482559  86.1446609
   5.6358614  69.0142288  86.6314621   6.7478981  69.2275848  85.6270523
  64.5596466  17.3967838  27.1059570  64.4686890  18.2117538  27.5997009
  63.8348274  17.4132175  26.4809742  38.7468910   5.4104204  76.7849045
  39.5989265   5.0410161  77.0168610  38.3099213   4.7147226  76.2936935
  68.0020599  27.8710709  57.0097313  68.8843842  27.5722961  57.2298927
  67.5099640  27.0661087  56.8481522  42.3961029  45.2547226  79.8509064
  41.8694115  46.0181046  79.6141052  42.8928146  45.0512581  79.0583725
  62.5502739  12.3235331  59.9949722  63.3107147  11.9971838  59.5138702
  62.2629051  13.0893469  59.4978027  59.6752930  39.9219170  24.0141354
  58.9867058  39.3026009  23.7722149  60.4118652  39.6948433  23.4465714
   6.7205667  45.3280716  36.9807510   7.3298640  46.0605049  37.0731277
   6.9642820  44.9169159  36.1514244  52.8088608  23.2488804  32.5037003
  53.0570526  22.5726433  31.8733578  52.6570663  24.0291996  31.9705086
  19.6642609  60.5603905  45.9544487  20.3738194  60.5433617  46.5966873
  18.9507980  60.0786667  46.3729553  27.0591049  17.9139214  13.2922659
  27.5890198  18.7019348  13.4124918  26.6069565  18.0539742  12.4602928
  41.9231186  55.3419304  44.5181770  41.3540878  54.6106796  44.2779503
  42.8036690  54.9667625  44.5287437   2.4237862  66.1105347  69.7119980
   2.7683010  66.6903915  69.0327988   3.0773039  65.4152222  69.7874146
  17.2989292  40.5373268  75.2197495  16.8343906  40.3194237  74.4116974
  18.0037308  41.1217957  74.9406815  38.4239769  66.6486893  70.3221893
  38.6893768  65.7290726  70.3119202  38.6487427  66.9530334  71.2014465
  35.6748314  54.1659317  30.9041119  36.4301262  54.6708183  31.2055244
  36.0524559  53.4608154  30.3783360  53.6902046  44.9042130  23.8525791
  53.9404411  44.1114998  23.3780003  54.5216331  45.3258743  24.0697327
  19.8878860  50.8397408   3.5045283  19.5300770  49.9922562   3.2400031
  20.8347931  50.7022476   3.5308962  32.4280243  45.2409019  85.4644241
  32.3737106  44.6198769  86.1907883  33.3551369  45.4743996  85.4177551
  66.7367020  14.8594761  13.8168173  67.6897049  14.9207907  13.7514820
  66.4448395  14.7002544  12.9192114   1.4848795   9.5969963  42.1475906
   1.4664038  10.2788496  41.4760475   0.8935536   9.9161339  42.8292923
   8.9498053   0.3135962  81.5219650   8.8032503   1.2545452  81.6187592
   9.7083273   0.2477640  80.9418411  69.1417007  20.2498436  71.2364044
  69.8971100  19.6722431  71.1270370  68.7010422  19.9220161  72.0203552
  51.5263062  41.5451660  39.2676010  51.1166878  41.0071640  39.9450951
  50.9997520  42.3442154  39.2453728  26.9632950  29.6200199  56.0926819
  26.4941425  30.3639107  55.7148514  26.6214333  29.5488911  56.9839172
  60.7737961   9.0735884   4.4461555  61.4227562   8.3899355   4.2797227
  60.8767242   9.2805061   5.3750381  68.2835922  30.1460037  67.6952515
  68.2061081  31.0841331  67.8688736  68.7206879  29.7942028  68.4707642
  53.5908775  13.4149942  66.1378860  53.1444740  12.8073492  66.7275696
  54.5217743  13.2818127  66.3165665  62.5115623  29.2651386  63.1326256
  61.8056107  29.9002018  63.2532921  62.4750977  29.0402412  62.2029381
  59.7608528  33.1861153  79.9663467  59.4747429  32.3594933  80.3550186
  58.9496002  33.6199608  79.7020035  41.6803932  36.6559982  45.5695076
  40.9092102  36.3563156  45.0881538  41.5068130  36.4087868  46.4777985
  64.4799347  71.1334305  63.7881088  64.2944641  71.1767044  64.7261658
  65.3153992  70.6698685  63.7302856  67.0147095  35.3040237  67.5859528
  66.8886871  35.1185684  68.5165176  66.4485855  34.6756897  67.1376953
  56.2803230   0.5501207   9.7274590  56.5769882   0.8878938  10.5725222
  55.3820801   0.8700636   9.6436157   7.8373790  59.3837700  73.5566940
   6.9101162  59.6178589  73.5164566   8.2602415  60.1470604  73.9501495
  32.8281670  64.1301727  64.3829651  33.0114594  64.2662811  63.4533920
  32.8432426  63.1794777  64.4933624  81.1398926  15.6056662  21.7301941
  82.0200424  15.9257011  21.9280663  80.9814835  14.9222956  22.3814564
  61.2811890  71.2804184  40.8235435  61.3853226  72.0944138  41.3162842
  62.1491814  70.8772736  40.8408089  25.5680752  64.4460831  76.8794022
  25.4686928  63.5575638  77.2212753  24.6951580  64.6805038  76.5642853
  19.5149326  38.6616096  48.2912178  19.3202591  38.2086487  49.1116791
  20.1424904  39.3416328  48.5361176   7.7569785  33.9771004  15.0302782
   7.2618771  34.6674347  15.4713545   8.0108242  34.3627853  14.1918020
  73.9905014  19.8567905  87.3433075  74.0269775  19.3330097  86.5429611
  73.5523224  19.2916870  87.9796143  44.2993736  64.5507889  46.2706108
  45.1209030  64.3582382  46.7225456  44.0217628  65.3944931  46.6274376
  64.6865005  16.6291847  54.0880775  63.7728195  16.3976936  53.9212646
  64.9070587  16.1664944  54.8964767   7.4582105  58.9640503  64.5159607
   7.8633623  59.1381416  65.3655319   7.3813534  58.0106926  64.4781189
  64.8663788  51.1776352  74.0137634  63.9952660  51.0329361  74.3831711
  64.7007523  51.5657158  73.1545868  19.0696449  44.8483200   4.3397131
  18.5007534  45.6047859   4.1970358  18.7790852  44.4844780   5.1760297
  76.4723511  70.7413940  22.3488731  77.2030258  70.6752777  22.9636688
  75.8846817  71.3856049  22.7436829  60.2872925  66.0083923  35.0546951
  61.0608635  65.5356064  35.3617630  60.4760971  66.9269333  35.2467117
  27.6871700  17.8040218  79.1858673  27.6493225  18.6524849  78.7443771
  26.8145123  17.4306068  79.0623322   5.0448508   7.8705969  26.2988701
   5.7752843   8.0067530  25.6954136   4.8603206   6.9329638  26.2438679
  15.1864862  55.5452881  48.3745003  14.3666897  55.2448463  47.9822006
  15.2238989  55.1005859  49.2212982  62.6287231  10.6575747  10.2769680
  61.9991875  11.2732916   9.9017220  62.0892487   9.9565973  10.6427956
   5.2362709   2.3127739  64.7125168   5.0674605   3.1968455  64.3867111
   6.0450864   2.0467174  64.2751846  80.7492447  18.9072742  23.4987755
  80.9021530  18.3532257  24.2642059  81.4148560  19.5922470  23.5621014
  40.9830627  67.6881409   2.2437801  41.3902245  68.4404068   1.8141880
  40.2111053  68.0497971   2.6791101  83.8548203  16.8593578  30.1626606
  83.5692825  15.9491205  30.2412281  84.2682343  16.9071388  29.3006668
  53.3930397  18.3542767  84.0179901  53.5963249  17.4690914  84.3202362
  52.5537224  18.5609207  84.4291763  52.4148674   2.0206740  41.7230873
  52.4403610   2.1469476  42.6715775  53.2550278   1.6129216  41.5130806
  13.8777132  31.2288780  55.7613258  12.9730396  31.5234890  55.8662186
  14.1942348  31.1040993  56.6560173  45.5054321  57.0973129  48.0185089
  46.4201126  56.8223724  48.0817337  45.4020157  57.7470093  48.7138062
  62.6229553  14.1377277  39.6939964  63.4291306  14.0460796  40.2018471
  62.2661247  14.9845839  39.9618340  82.2166595  20.5205421  72.3120270
  81.5678253  19.8313408  72.4543228  83.0488663  20.1224384  72.5673218
  77.1445770  11.7266502  28.8394661  76.4751129  11.8554153  28.1675568
  77.9499893  12.0570717  28.4415131   4.0462713  48.0724640  82.8326416
   3.3522182  48.3785591  83.4164429   4.8435731  48.4752083  83.1766434
  59.8305473  51.6690826  19.4922791  59.9925957  51.0212326  18.8065205
  59.6483383  52.4799919  19.0174561   8.5253172  23.8767262  68.0922775
   7.8300910  23.9402275  68.7471542   8.3530750  24.5998325  67.4892197
  50.1134109   4.2872982  87.2497177  50.6213417   4.5361848  86.4775162
  50.7638359   3.9501975  87.8657913  52.5328522  42.3887100  64.8458710
  53.4593849  42.1546860  64.9006653  52.5293694  43.3450356  64.8051987
  80.8760757  61.0614014  14.8031502  81.8262253  61.0180206  14.9106750
  80.6296310  60.1887360  14.4966431  58.5400162  66.8241196  20.2290993
  59.3695221  67.1669617  19.8965130  58.6943398  66.6890335  21.1640701
  84.5294724   4.3472295  12.7843704  83.9683685   3.6515307  12.4417305
  85.3947067   3.9440205  12.8552647  58.9933090  26.1085453  56.9069977
  59.7804260  26.2217464  57.4397850  58.4600334  25.4829884  57.3974342
   3.9123902   6.9541602  65.3255157   3.6130557   7.8419495  65.5216293
   3.5936987   6.4266772  66.0579300  33.8005486  65.5160828  58.6496773
  34.3422127  65.1126709  59.3279762  32.9061775  65.4440918  58.9830742
  22.5180950   9.7023964  23.4467773  22.9596596   9.4958391  24.2705421
  22.7443962   8.9766140  22.8651752  86.1991272  27.7565956  13.1348772
  85.5476379  27.1973190  13.5579576  86.6908951  28.1421738  13.8599510
  78.8737411  30.6972237  14.6953278  78.4125061  30.2399387  13.9922028
  78.2202682  30.7922020  15.3882818   0.2558186  21.5908070  37.1672096
   0.7956960  20.9327850  36.7292900   0.8196138  21.9436684  37.8555794
  66.2954941  42.1395340  10.7627869  66.9988403  41.5143280  10.5877132
  65.5489197  41.8056221  10.2654276   4.2873721  25.0295658   6.5170712
   4.3667631  24.2322998   5.9933400   3.7241635  24.7798119   7.2496362
  43.4374428  13.2533236  60.4885979  43.5150528  13.5958424  59.5981522
  44.1317635  13.6958265  60.9767952  55.4223328  39.6772575  38.6675148
  54.5979195  39.5157509  38.2087250  55.8767738  38.8350601  38.6470985
  74.7428284  65.0261688   0.2769997  75.3993454  65.0266953  -0.4195705
  75.1958618  65.3988037   1.0333972  29.7902718  48.4038048  14.6325083
  30.7379589  48.3322945  14.5184650  29.6254177  48.0386772  15.5018387
  40.9456749  25.6102753  63.8643646  41.1722145  25.8007374  62.9540672
  40.1406784  25.0954399  63.8081627   5.2031689  64.6267776  54.6024742
   5.2712593  63.7106323  54.8713150   5.3036437  64.6052246  53.6508064
  77.3562393   7.9433618  63.7742844  77.2781830   8.8075390  63.3701363
  77.5838242   7.3600359  63.0502930  50.2066994  15.1842728  77.3871155
  50.0265388  14.2441807  77.3864059  49.3449326  15.5932341  77.4667511
   2.1017158  41.2745819  15.7808533   1.6027834  40.9810715  15.0185213
   2.1866734  40.4930191  16.3269024   2.0872629  47.7589149  44.4189529
   1.9703202  47.1762962  43.6685486   2.8285592  47.3875465  44.8972778
  59.1215477  33.8418198  39.7466316  59.0839882  34.7907028  39.6264763
  59.8114853  33.5519409  39.1498146  58.1246910   6.7703876  62.7222290
  57.2522926   7.1628537  62.6886826  57.9656754   5.8510489  62.9361496
   1.5818859  49.2105103  87.7592850   0.9164392  48.5258522  87.6910706
   2.3247974  48.8731651  87.2587738  52.7375832  20.2506905  27.8838062
  53.2948875  19.4767799  27.9656887  52.3888168  20.2016048  26.9937572
  12.5571432  56.4488564  74.9023056  12.5832891  55.4943199  74.9686890
  13.3241215  56.6734047  74.3754730  18.4281826   9.3276777  62.4214287
  18.9698811   9.7470808  63.0899315  18.0000076   8.6042976  62.8792686
  26.6302795  38.1471214  60.3383064  26.7645779  37.2034378  60.4258270
  26.3512383  38.2661591  59.4304543  62.9845810  13.7790308  85.5999527
  63.5802116  14.3827410  86.0437851  62.7409096  14.2328329  84.7931519
  19.1971378  65.7455597   7.7040195  18.7056599  65.1485977   7.1398191
  19.7135868  66.2770233   7.0981650  21.0166054  47.5827980  30.8368759
  20.5170803  46.7691040  30.7689857  21.3497868  47.7338142  29.9523335
  56.7417374  54.2025032  79.1181488  56.2418327  55.0073586  78.9820099
  57.2537422  54.0999756  78.3159180  11.3721066  52.4337540  56.2880478
  11.6192608  52.1529999  55.4069557  10.4244356  52.3038559  56.3238106
  12.9946928  48.3129768  61.6090965  13.0391045  48.6899300  62.4878235
  13.0049877  49.0697250  61.0230446  71.5233688  64.7619858  38.1805000
  71.3300552  65.6538849  38.4692535  72.2656555  64.8589478  37.5839691
  67.7292786  43.6640053  64.6189804  67.9992905  43.2024498  63.8250694
  66.8097916  43.4243050  64.7343903  23.9124432   3.5004210  66.5520935
  24.0461063   3.8327961  67.4397278  24.1246796   2.5688860  66.6106720
  27.4204712  47.7187233  42.8447151  28.0379162  47.9164085  43.5489273
  27.9156513  47.1659660  42.2401619  55.1595879  43.2057381  76.9514999
  56.0893211  43.4100075  77.0519867  54.7928085  43.9707947  76.5083313
  10.3385668  70.4377899  25.3342304  10.2318668  71.2623672  24.8599720
  10.9353123  70.6497955  26.0519905  25.7559872  51.0694923  12.7603893
  26.3433361  51.4127350  12.0870123  25.4297523  50.2463608  12.3967190
  11.5191383  17.1442890   1.2806952  11.3121386  16.6532059   2.0758176
  10.6947336  17.5658970   1.0381325  37.6642036   5.4869051  67.7202835
  37.5384521   4.7018709  68.2533340  37.0582848   5.3782845  66.9872742
  16.6695423  51.1912918  32.6716728  17.4562950  50.6946869  32.8967018
  15.9451981  50.6076660  32.8973541  31.6099911  31.2669544  18.5876389
  31.3879356  30.6365318  17.9024448  31.6508923  30.7451572  19.3890648
  35.4691925  34.2324715   3.0528686  35.6896896  33.6848450   2.2993951
  34.5256233  34.3747444   2.9776094  58.2409286  55.1475525  41.1203270
  58.5150757  55.0541687  40.2079926  58.0789642  56.0848999  41.2270050
   5.9657049  22.7087250   9.2049522   5.7976475  21.9817486   8.6053753
   6.8607640  22.9824677   9.0045357  32.4869614   8.4282484   2.9074922
  31.8400002   8.8596935   2.3493459  33.3260880   8.7952709   2.6292996
  51.8342857  23.4978561  79.7399216  51.9591675  24.3996296  80.0356293
  51.7163734  22.9955692  80.5461731  74.0973511  40.6941757  24.2498131
  73.7761154  41.2164116  23.5147552  73.9459610  41.2440567  25.0185413
   9.7339897  64.2586136  12.8563623   9.3138027  64.8903809  13.4399242
  10.6460495  64.2349167  13.1458712  40.3698845  57.9639893  44.1081276
  40.7360649  57.1004677  44.2991066  40.7643852  58.2118454  43.2719650
  75.4185638  14.6462860  34.0220718  74.6923752  14.7750282  34.6322365
  75.0647125  14.0666523  33.3474998  25.8276024  54.2904129  36.2435112
  25.9962826  54.2642975  37.1853714  25.0157108  53.7958603  36.1317902
  36.6836853  22.8161983  18.9280128  37.1986504  22.5872040  18.1543198
  36.0600090  23.4715176  18.6152592  45.0431175   3.2030222  23.1862106
  45.6485558   2.8797641  23.8534260  45.4162827   2.9015191  22.3579140
  46.6192627  19.0649357  20.4841118  46.8360023  19.8373394  19.9619541
  47.4428253  18.8236370  20.9080830   1.1659898  56.4097786  87.8197937
   0.2559698  56.3004608  87.5438538   1.6752679  56.2913208  87.0180283
  68.5184860  22.3503704   4.0809155  68.5205307  22.8847027   4.8750925
  67.6083755  22.3649788   3.7847450  60.3025513   9.2519493  67.6117859
  59.9598579   8.5319223  68.1412735  60.5018768   9.9413137  68.2452545
  63.3004608  48.4308434  19.3765202  63.1378479  49.2452736  19.8524361
  64.2440186  48.2910385  19.4564381  86.2910690  37.4454956  57.2006378
  85.4695206  37.2458916  57.6494675  86.6997757  38.1230431  57.7392731
  12.3592968  59.3573074  66.3682938  12.0618095  59.4319725  67.2750244
  12.1285801  58.4640045  66.1133194  18.6264019  16.4835606  15.4698772
  19.0341663  16.3381519  16.3235855  19.3401814  16.7953339  14.9135065
  58.9463997  33.7250519  43.5463562  58.1026382  33.3394852  43.3104858
  58.7370110  34.6250381  43.7961845   5.1087375  42.3936577  24.1690903
   4.9572511  43.3368073  24.2303352   5.1217813  42.2137146  23.2290459
   4.2008286  67.8001938  43.4331589   3.2983558  67.9307556  43.1420784
   4.5168247  67.0631866  42.9104767   9.8604498  62.0431442   5.6911211
  10.2435904  62.2169533   6.5509028   8.9177809  62.1421928   5.8245254
  67.3050613  52.1266670  52.3338814  67.4528809  53.0610085  52.4801331
  66.7214127  52.0922623  51.5759888   1.3096185   5.9066739  76.7467270
   1.9666688   6.2909117  77.3271408   0.4723569   6.2047701  77.1022034
  18.1135330  46.1766739   7.4377995  18.9481449  46.3734207   7.0124254
  17.9433289  45.2604790   7.2190428  38.3530655  46.7087517  87.7972412
  38.6928139  46.1762123  87.0780716  38.1361542  47.5483055  87.3918686
  64.8630676  10.2634583   3.3531189  64.7352600   9.4584608   2.8512452
  64.6791382  10.0130100   4.2584805   4.0384259  20.8238678  58.5126762
   4.0930533  21.3685131  57.7274323   4.8434825  21.0156364  58.9936523
  34.8515015  22.8275776  82.1397400  35.4788208  22.1057568  82.1806717
  33.9949036  22.4037781  82.1932907  66.1511230  31.1004715  20.1600933
  66.9126129  31.4147892  19.6726818  65.4389648  31.1046486  19.5205307
  73.0337677  30.8275948  71.4413910  72.1896973  31.2029228  71.6921921
  73.5667648  30.8855476  72.2343445  73.5057220  63.2762489  25.1831722
  73.1430740  64.1612549  25.2217064  73.1963882  62.9268303  24.3474369
  35.2128105  34.7464752  66.1475220  35.9565659  35.2208290  66.5190735
  34.6955109  35.4200592  65.7060318  61.0687790  35.3640327  41.3650131
  60.4342117  36.0751534  41.4536896  60.6067200  34.5893707  41.6853752
  81.9391708  69.4961014  45.8443413  81.4315948  69.4484406  46.6544762
  82.7447662  69.9494705  46.0927582  50.4833832  33.0786819  84.2861633
  50.5920677  32.5041542  83.5283203  49.9951172  33.8298645  83.9491882
  77.7497177  53.9423523  47.9535217  78.5766983  54.1404610  48.3929367
  77.7399979  54.5194244  47.1898956  59.3602905  36.6623344  88.0597305
  59.3814507  37.5268021  88.4701996  58.8028259  36.7762604  87.2900009
  27.6462364  19.7161732  77.3822784  27.2918587  20.6040039  77.3332443
  28.4271450  19.7391014  76.8292084  85.2910156  14.9833002  85.2232132
  85.0487366  15.4605656  84.4296494  84.9807053  14.0908337  85.0701065
  48.5630302  31.2717285  23.1350536  48.6304817  30.3975086  22.7511005
  49.4698601  31.5651169  23.2234535  57.0390282  12.2768068  88.6704407
  57.6885948  12.8548565  88.2702484  56.7286797  12.7593851  89.4366226
  84.9832230   2.1288931  62.5766487  84.5781021   2.8990836  62.9752884
  84.7738495   2.2030075  61.6455727   8.3181238   0.0205795  66.6885681
   7.4500489   0.4045616  66.8119965   8.9079762   0.6032408  67.1669083
  59.1699753  53.4799652  15.2442636  60.0062943  53.4059219  14.7845640
  58.6175308  52.8071632  14.8463011  40.6614304  60.3384743  45.9459152
  40.4613342  59.5068092  45.5163498  39.9323692  60.4773178  46.5504189
  28.4994602  44.0453033   5.6127906  29.0382576  43.7678223   4.8718905
  27.9406376  44.7362480   5.2570648  35.4705200  63.1301193  19.7851429
  35.3920097  62.6487923  20.6087875  36.4135628  63.2299538  19.6550274
  29.8809948  23.5894337  65.2222366  30.0387478  22.6612625  65.0494843
  30.5908298  23.8476505  65.8101959  18.4894333  49.4445419  77.7152328
  19.2413177  49.7557907  77.2112198  18.4542084  48.5047112  77.5371704
  13.9777908  49.7281342  63.9110031  14.8961563  49.5338058  63.7237206
  13.8667517  49.4948807  64.8326797  61.7139473  68.6923218  12.7070551
  62.0776291  68.2290802  13.4616241  62.4611435  68.8227615  12.1231756
  47.9460678  18.4997616  57.2327118  47.4752426  19.3050594  57.4473076
  48.0409546  18.0472107  58.0708199  80.2321396  42.8872032   9.5860186
  80.8287735  42.4729576  10.2094488  80.8075104  43.3184891   8.9542150
  38.9539566   6.8087716  65.4668655  38.6185608   6.5194402  66.3154068
  39.3434296   6.0232596  65.0827866  25.0282402  49.5807495  18.6152782
  25.4460468  48.7330971  18.7674541  24.2140503  49.3680115  18.1591339
  76.3261719  40.2793427   0.3630602  75.4758301  40.2429848  -0.0749342
  76.9113312  39.7819595  -0.2082743  35.1945839  44.0967941  44.4758453
  35.3325729  44.8688545  43.9271049  36.0144691  43.6071091  44.4108391
  10.8649864  25.1606426  72.6561661  11.0002108  24.5006046  73.3360901
  10.5862236  24.6606216  71.8890228  57.6120377  63.4337730   8.0837002
  58.1508942  64.0703430   8.5534296  57.4174995  62.7586250   8.7337456
  39.0105133  13.2605104  63.1760979  39.9315681  13.0201044  63.2765579
  38.6118088  13.0381861  64.0174255  81.3793640  42.0978127  49.8861084
  81.4421997  41.8368874  50.8049126  82.1831665  42.5908470  49.7216339
  58.5047951  65.3959045  82.1531296  59.3721275  65.4089355  82.5578384
  58.6471748  64.9978867  81.2943268  46.5287094  51.4908752   8.7605953
  46.4540787  51.1717567   9.6599426  46.3422432  50.7244949   8.2182655
  80.1893082  69.3281097  48.4240112  79.7377243  68.6697845  48.9521332
  79.4937439  69.7464905  47.9166794  70.2473984  29.8063126  60.4965477
  70.1146698  30.3907700  61.2428894  70.9252701  29.1963711  60.7875633
  54.3529587  11.7191572  87.5156021  55.0937881  12.0770483  88.0048065
  54.6291656  10.8345995  87.2758102  42.9560089  42.8483467  63.5021286
  42.6992874  42.1956902  62.8506966  42.7106781  43.6867332  63.1107826
  45.1720505  22.5146160  17.9818439  44.7191048  23.2133102  17.5097198
  44.6713028  21.7245579  17.7786369  63.0345306  67.7480850  15.0353088
  63.0494614  68.3185501  15.8038025  63.8652115  67.2739639  15.0727930
  85.8552399  40.5632324  10.5768270  86.3178024  40.1030083   9.8764982
  85.2319946  39.9202690  10.9150629  57.7577286  67.8776093  85.5066681
  57.9564400  68.6985321  85.9570312  58.5654144  67.6574478  85.0425491
  26.3979874  45.6506195  54.4673958  26.8866692  45.0287819  55.0065956
  27.0289879  45.9460640  53.8110542  50.1135254  60.8894081   4.9615102
  49.5489502  60.1227608   4.8628340  50.8240547  60.5920563   5.5298066
   3.8938334  20.2537823  83.0990677   2.9868853  20.5235062  82.9544067
   3.8617802  19.2971210  83.1011200  83.1439896  44.1610146  77.2292404
  83.9053268  44.5895081  77.6203766  82.4302521  44.7881889  77.3452911
  44.4552994  24.4763088  75.8058624  43.8184853  24.6542625  75.1137466
  45.0983620  25.1808758  75.7265854  67.8082962   7.0562916  83.4460907
  67.8727036   6.1860266  83.8394394  68.5788498   7.5229869  83.7696228
  50.5047150  16.7504673  20.9542618  50.2712173  16.9437904  20.0463295
  49.6680374  16.7368355  21.4190369   5.5916467  31.7183590  14.3862762
   5.9950824  32.5151596  14.0419264   5.2062616  31.9862823  15.2204990
  81.7170486  11.5004854   8.0405369  82.4784088  11.5821819   7.4661789
  81.1610870  12.2443419   7.8085365   6.9138017  52.0170479   9.8024206
   7.5985279  51.5363998  10.2675657   7.3828068  52.7045441   9.3295422
  67.3809967   7.7801065  44.5318184  66.9685211   8.5973330  44.2521133
  66.6560287   7.2431483  44.8517151  72.5884323  39.5518837   6.7391601
  72.7505493  39.6328545   7.6790500  71.7019424  39.1958885   6.6788111
  71.9941711  26.3842812  24.7753963  72.1346436  25.5585880  25.2387867
  71.1775360  26.7268772  25.1386642  69.8760147  51.2555237  53.4668999
  68.9482040  51.4838753  53.4098969  70.1658325  51.2017441  52.5562134
  35.9221878  29.6971703  66.7260971  36.0517693  30.6443882  66.7731934
  36.5028915  29.4107456  66.0211334  22.1046543  68.1061401  20.9040184
  22.1495285  68.7003250  21.6531258  22.7742538  67.4456329  21.0817699
  25.0716553  24.5826130  71.7638397  24.9110241  25.2282410  72.4520187
  24.2117710  24.2003441  71.5886230  18.6440639  50.9932594   5.9609857
  18.8720016  51.2074966   5.0563426  19.2549324  51.5064468   6.4898620
  56.7287407  28.0756149   1.6574661  56.6407356  27.1518154   1.4227693
  56.4827919  28.1123848   2.5817976  34.5122070  69.5440826  72.8149185
  34.4849930  69.0681229  71.9848862  34.0125313  68.9971924  73.4211044
  38.6940765  51.7379761  31.8843937  39.5794907  51.3834076  31.9653492
  38.1787148  51.2430534  32.5213280   8.3961058  52.6964149  56.1139488
   8.1393442  52.4320107  56.9973488   8.6690884  53.6091385  56.2069511
  23.6043892   4.6213112  15.5626726  23.6137238   3.7346919  15.2020464
  23.3892689   4.5013976  16.4876461  59.9345016  50.8504143  77.2852249
  60.2049179  51.5911484  77.8278275  60.6804886  50.2511101  77.3090591
  49.0087433   4.4819059  46.6544151  48.2438278   5.0548120  46.7084389
  49.7558250   5.0802207  46.6436043  56.6066208  47.4794121  16.2128601
  56.7875557  46.5395737  16.1987915  55.9795418  47.6132622  15.5021639
  71.7773132  10.9306908  43.7673225  71.0376892  10.3784828  44.0207977
  72.5456161  10.4741707  44.1101646  61.8794136  29.6461105  57.3082275
  62.1525536  30.0923615  56.5066757  62.2708549  28.7750702  57.2426987
  68.6647644  -0.2578971  15.9443893  68.6507492  -0.2673042  16.9014416
  69.0602341   0.5841210  15.7189112  31.9208241  20.9178295  14.1253729
  31.4788895  20.8065014  14.9671154  32.8211441  21.1468849  14.3559933
  43.7969933  47.6181679  86.0192337  43.0007057  47.8780899  85.5559845
  44.5104141  47.9471931  85.4724197  13.2974253  62.6754951  85.3534622
  12.4557714  63.0420647  85.0823975  13.4889517  63.1059685  86.1866760
   6.3217993  30.1363449  22.8014431   5.7441735  29.5054207  23.2309952
   7.1611996  29.6820164  22.7291641  86.3058777  32.9954948  68.2292709
  86.8786240  32.6125298  68.8937531  86.8334198  32.9972801  67.4305725
  24.1629791   1.9660441  15.7062130  25.0528545   2.0817311  16.0393333
  23.6275120   1.8451918  16.4903698   8.9665976  55.5725555  88.1631622
   8.5127325  54.8417473  87.7434540   9.8837585  55.3001251  88.1919632
  30.9995804   1.0879523  26.3428783  30.4413509   0.9698055  27.1114178
  30.3969002   1.3507390  25.6472130  20.6372452   1.3342247  82.4584656
  20.3212872   2.2273827  82.5951080  21.0247192   1.3484985  81.5833130
  53.4432716  52.0003281  85.5599747  53.9857063  51.4768677  86.1498718
  52.8866043  51.3608055  85.1157150  29.1278687  58.8599358  32.8436050
  30.0657368  58.8790703  32.6531563  28.9632988  59.6743965  33.3187943
  70.8364868  23.9450359  77.8057556  71.5114365  24.0187931  78.4804688
  70.1910782  24.6124516  78.0386429  65.4368515  67.8818283  48.8280525
  65.5900116  68.8167496  48.6913300  66.2969360  67.5290756  49.0561981
  43.5090294  26.8984222  19.6742916  43.3673859  26.9364758  18.7283955
  44.3337059  27.3644714  19.8119221  39.1893883  70.2435303  61.1779976
  39.5157280  71.1402969  61.1034813  39.9789505  69.7046204  61.2270050
  84.1608658   4.6361337   1.1403226  84.1954651   4.8153000   2.0799682
  83.2747803   4.8886089   0.8808246  86.1339645  71.3410263  30.7333641
  87.0042191  71.4665298  31.1116867  85.7952576  70.5574722  31.1664238
  31.8025990   0.4990303   3.7591391  30.9723949   0.1304398   3.4572527
  31.9895229   1.2059306   3.1414151  32.5812035  44.3957863  53.4744225
  32.6220360  43.5235939  53.0821877  33.3533974  44.4412460  54.0382271
  26.5754700  58.5383492  16.3589878  26.9194546  58.8503113  17.1959972
  25.6742306  58.2798500  16.5518074  84.2899017  13.9726906  67.1507645
  83.8964157  13.5884485  67.9341888  84.9174042  14.6124926  67.4870987
  42.0042725   3.5538793  20.4040527  42.0965385   4.1375456  21.1570816
  41.0811806   3.3006780  20.4089603  49.9959602  57.3479881  15.6370373
  50.7288666  56.8576622  15.2646675  49.2173195  56.9363747  15.2621737
  29.6232224  21.4695206  75.4525833  29.2655525  20.6619167  75.0836868
  30.5637169  21.4141693  75.2833633  56.8067131  -0.2038102   0.8007095
  56.7658577  -0.0002142  -0.1336947  57.1166191   0.6047345   1.2086866
  31.3232040  60.6685333  28.1183987  30.9720783  60.3887672  27.2730160
  30.6878529  61.3070755  28.4421654  81.0557251  21.6943665  33.5918198
  80.9101410  22.6309700  33.4583626  81.9562454  21.5482750  33.3020782
  17.6709423  45.0329132  57.6832085  16.9606304  44.8127060  58.2858658
  18.0570049  44.1888046  57.4493904  51.8461189   3.1287110  22.9770126
  51.9612083   2.8357391  22.0730457  52.6655617   2.8922818  23.4115810
  65.0490417  34.8534279   1.0161850  64.4722977  34.1353111   1.2767578
  64.4662704  35.6071014   0.9235168   7.9950089  59.3679314   3.9828329
   7.6103196  58.4973030   3.8816078   8.9398088  59.2172470   3.9531875
  86.1363220  43.1328354  13.8747730  85.7797089  42.7629242  14.6823807
  85.4038620  43.6115341  13.4867306   0.5979293  16.8338223  67.2392426
  -0.3064409  16.9819908  67.5156326   0.6866177  15.8811684  67.2106552
  70.8442993  36.6500130  35.4018593  70.8324432  36.7155380  34.4469757
  70.5888519  37.5213013  35.7049103  34.3765068  61.6287994  87.3874512
  34.4069748  61.7743874  88.3330231  34.7458687  60.7538795  87.2678070
  45.9704628   4.6863999  64.4252548  46.1517677   4.0948386  63.6949043
  46.8181763   4.8047452  64.8537445  55.0753860  63.0907936  10.5088615
  55.8674469  63.1958733  11.0359573  54.3652611  63.0490227  11.1493359
  48.2096939  23.6206932  15.3671064  47.5336952  24.1134739  15.8323202
  48.0279045  22.7052956  15.5797892  11.8977680  29.4241219  31.7860165
  11.7281551  28.4828796  31.7469482  12.6307211  29.5103130  32.3955917
  55.0441666  65.2026367  68.4701843  55.4214973  66.0251923  68.7820511
  55.2022629  65.2093277  67.5261536  69.1792984  29.8136787   9.3559952
  68.3423843  29.3491383   9.3565884  69.3744278  29.9544792   8.4295330
   6.6035161  66.3731232   4.8161988   6.2788568  65.9645538   5.6186295
   6.0695672  67.1611862   4.7157140  39.7409592  23.0627460  17.6275444
  40.4092827  22.9567051  16.9505405  39.3163757  22.2065392  17.6811562
  26.4575882  58.1942635  22.8812542  26.5841732  58.7855835  22.1392632
  26.4789028  58.7654419  23.6490650  11.7016726  50.8921051  47.0132027
  11.8763142  51.2903290  46.1604691  12.5689087  50.7009010  47.3703766
  55.4295845   9.8352442  44.0658417  55.3151245  10.4182911  44.8162994
  54.5384865   9.6008396  43.8065529  36.5713615  21.2134495   6.8555861
  37.0418129  21.8592148   6.3284307  35.7701073  21.0390701   6.3618064
  22.3128414  53.0732803  62.7163963  21.7905560  53.6561203  63.2675285
  23.1950226  53.1222610  63.0846252  62.0747414  61.2112045  17.5695629
  62.5764465  61.9244270  17.9643250  62.2055931  61.3191299  16.6275120
  16.8707066  18.9433842  15.5496645  17.4169998  18.1674652  15.6751461
  15.9903917  18.5958920  15.4063988  11.1572971  66.3796921  77.3711014
  10.8448076  67.1884613  77.7766647  10.3830004  66.0096741  76.9470978
  36.3782349  67.2477722   4.6643543  36.7076721  66.8017273   3.8841276
  35.4257355  67.2109604   4.5770621  55.3172684  67.9607315  42.0907173
  56.1807213  68.3733673  42.0704422  55.0911674  67.9239197  43.0200996
  61.3088112   1.3848294  43.0429535  61.9330864   0.7704481  43.4290199
  61.4791336   2.2130117  43.4916573  54.1538010  26.8294201  20.6077232
  54.6543236  26.2414036  21.1733627  53.8266258  26.2661438  19.9063606
  42.9308128  20.5702477  16.9488258  42.0461693  20.6451473  16.5910149
  42.8002892  20.2794266  17.8513870  77.9552536  41.5394859  27.1546135
  77.5469284  40.8971863  26.5741329  77.2333069  42.1020164  27.4349556
  58.8905830   2.6007321  -0.3166324  58.9239120   1.8896594   0.3232871
  58.2943840   3.2424917   0.0692711  76.1153030  58.6175156  56.1673012
  76.8755798  58.1934319  55.7693596  75.3688507  58.2919502  55.6642609
  48.4676170  68.4801102  50.1472969  48.0615959  68.8779526  49.3771629
  49.2179451  67.9976654  49.8001862  32.5914764  57.3346367  24.7211018
  33.4096298  56.8744392  24.9083805  31.9415588  56.6384392  24.6254425
  48.1645012  20.6961842  15.6456108  48.9368439  20.6251469  15.0846510
  48.5178108  20.7554245  16.5332451  62.9340668  60.9349518  22.1043835
  62.2212257  60.8205490  22.7328739  63.6955109  60.5429344  22.5318871
  71.7925568  30.1835976  88.8196182  72.1365128  29.2954903  88.7237320
  71.1749344  30.2807980  88.0948257  34.0218048  59.2338181   6.8346157
  33.3678169  59.4687462   6.1763287  33.8941116  59.8712158   7.5372171
  50.6657524   8.3717012   7.4421515  49.9953918   7.7688160   7.7636776
  51.4487724   8.1500988   7.9461379  46.5293999  60.9894524  39.0000801
  46.8469543  61.7094078  39.5451088  45.5756950  61.0581017  39.0444221
  48.7737312  62.5017014  53.6332512  49.3557129  62.2073250  54.3338737
  49.2723885  62.3538475  52.8296890  45.2052383  31.1833229   9.7450829
  45.7632217  30.4372444   9.9647532  45.3054008  31.2868977   8.7987881
  34.7777863  53.8566742  35.2529259  34.8269882  52.9029236  35.3175430
  34.6878319  54.1537552  36.1584015  10.2796326  21.7343616  67.3463516
   9.6338692  22.3648052  67.6653519  10.2813082  21.0393810  68.0045547
  10.1263475  20.8848038  10.1363430  10.3455973  21.4032822   9.3621731
  10.6773195  21.2462749  10.8306055  45.9524384  60.7677383  83.6355667
  46.6744270  60.3791122  84.1294632  46.3156509  61.5779305  83.2779388
  77.7859955  53.4713516   5.7661476  77.7797546  52.9177437   4.9853058
  76.8902588  53.4242401   6.1003098  60.1484528  13.8318882  74.5104370
  60.9537163  13.8677807  75.0266571  60.0301666  14.7256041  74.1886978
  71.2762375  34.4850235  55.2290039  71.3335419  35.4391098  55.1773376
  70.3377304  34.2994003  55.1975517  13.7710590   6.9800897  56.7006416
  14.0400648   6.7830520  57.5978851  14.0184193   6.2025232  56.2002068
  27.3403664  41.0649605  25.7541618  26.5224190  40.7849159  25.3433495
  27.7044506  41.7098503  25.1477032   0.7524713  16.3380356  54.6385078
   0.5502051  15.5920076  54.0739174   0.2675938  17.0680923  54.2536163
   0.4223871   6.8126736  41.6323166   0.5689451   7.7067285  41.3234177
   1.2971960   6.4260459  41.6705322  46.7883339  54.3036537  23.9377136
  46.5600662  54.7598267  24.7476730  46.1524620  53.5907669  23.8769569
  18.5444260  44.0979652  34.1336555  19.3591957  43.9477119  33.6542740
  18.4824867  43.3585625  34.7383690  44.1272354  53.7799149  87.9230423
  44.9590416  53.7979736  87.4497528  43.7703438  54.6613541  87.8138275
  21.5820656  41.1697998  25.7260971  21.9384384  41.8879433  26.2490692
  21.6657505  41.4684792  24.8205471   2.1978178  44.4333534  66.7798233
   1.4499387  44.0284386  67.2190933   2.6039841  44.9794960  67.4528732
  35.9474030  25.2526989  81.9126282  35.4547844  24.5021629  82.2446747
  36.8499680  24.9395161  81.8533173  77.8796005  66.5340424  88.5556183
  77.3614349  66.2629395  87.7978287  78.1292038  67.4380569  88.3640671
  19.5655594  35.5006256   9.2554226  19.1301270  36.1442528   8.6965189
  19.5516129  34.6913147   8.7444897  59.0748291  45.4080696  78.6846466
  58.7720909  45.9835930  79.3870316  58.3276062  44.8379745  78.5033035
  56.7051468  67.3284454  17.8673401  57.1675987  67.1101761  18.6764946
  57.3642654  67.2287903  17.1804199   2.7758231  42.2935486  37.6654167
   2.5862210  42.1928139  36.7326050   3.6127193  42.7574234  37.6909904
  22.7795124  39.5520401  15.6259356  22.1616669  39.3230515  14.9316273
  22.2271595  39.7524796  16.3815536  37.7766953   0.6667881   1.9499694
  38.3179092  -0.0992110   2.1411884  38.4037743   1.3813647   1.8386859
  59.3885002  68.2642670  66.8950729  58.8550186  68.1332092  67.6789398
  60.1369362  67.6795654  67.0142059  33.3984947  47.7741051  87.7844086
  34.0167961  47.4076881  88.4166031  33.6399765  48.6981850  87.7211838
  85.8845139  65.5326843  34.9835587  86.3341522  66.3613968  35.1487808
  85.6923370  65.5472412  34.0459633  46.1471138  62.5365677  20.8241558
  46.1704941  63.4038620  20.4198265  47.0671616  62.2852669  20.9053345
  51.9200287  22.7321606  70.9068985  52.0303574  23.3199501  71.6542664
  51.3351021  23.2048473  70.3147354  10.1560326  68.6780930  78.4369736
  10.2822170  68.3473206  79.3263016   9.3966103  69.2570877  78.5022812
  40.6143188  61.1193886  11.2299910  40.9304008  61.9165726  11.6552229
  40.7090073  60.4387970  11.8963699   7.6268921  61.4811668  33.1118813
   7.2131071  61.1526337  33.9100533   7.1154203  61.0953674  32.4006958
  80.1604691  37.2059746  49.9191017  79.3562851  36.8108940  49.5823097
  80.2763443  36.8129616  50.7841721  12.0803490  23.6564655  13.6682005
  11.8075838  24.5693550  13.5762024  11.6187286  23.3458939  14.4470997
  72.3888397  16.2339268  21.3215523  73.0503159  16.7431259  21.7899570
  72.8922577  15.6027508  20.8073330  46.0682526  30.4390373  27.6808414
  46.6638145  30.8352757  27.0448132  45.6051559  31.1809502  28.0698681
  71.2638855   7.2568836  72.5348282  70.3309097   7.2221055  72.7459564
  71.2930069   7.2596455  71.5780792  76.6459274  69.8299561   6.9314866
  77.4005737  69.7521439   6.3478055  75.9776459  70.2652740   6.4022112
  79.7915573  38.2965393  16.3925972  79.8823090  37.4729881  16.8719273
  79.2042770  38.0874405  15.6662283  81.5418930  65.8076782  18.1404285
  81.6292648  65.4710770  17.2486362  80.6057434  65.9803543  18.2406139
  24.8463993  65.6717377  46.8793793  25.1477547  66.3855362  46.3173256
  24.3270760  66.1037750  47.5575180  24.3573093  23.4107933   3.1527789
  24.1070805  23.6857738   4.0348244  24.1333122  24.1569939   2.5966837
  45.8607140  28.0731735  78.0452271  46.0573845  28.3509197  78.9398804
  45.0760841  27.5314503  78.1296310  42.6613350  56.2285995  34.6122208
  42.1054764  56.4256897  33.8582916  43.4072838  56.8214989  34.5213280
   7.9825454  63.1190605  72.0822372   7.8888407  63.9426804  72.5608826
   7.6951485  62.4481239  72.7014923  70.6891251  44.4926682  37.3047714
  69.8099976  44.8227348  37.4903145  70.6727448  43.5845718  37.6069794
  82.9170837  11.3752108  56.9462433  82.1125793  11.5657740  57.4286270
  83.2526016  12.2345915  56.6910553  55.1351852  63.1932411  32.1266441
  54.3189049  63.0150566  31.6595612  55.5656013  63.8717422  31.6064434
  11.1679382  54.4250717  37.4433746  11.3609447  54.1700745  36.5411797
  10.2576036  54.1612778  37.5773010  43.6409187  34.1754990  62.4832764
  42.8882484  33.8482246  62.9758301  43.5155220  35.1240730  62.4564819
   2.1530652  65.7461548  51.9166336   2.9803724  65.5913544  52.3725204
   1.4799521  65.5171204  52.5574913  64.0203705  32.4178925  43.6085281
  64.1243057  31.7323551  44.2684288  63.4585342  33.0700798  44.0271301
  26.6348915  59.6502991  74.8825073  26.3137531  60.4723740  74.5119781
  27.5876293  59.7131004  74.8148499  74.0493622  18.5438786  56.2175064
  73.8111725  18.1758862  55.3665810  73.6392670  19.4087162  56.2277184
  53.5990257  39.8176765  87.9946442  53.1534348  38.9792175  88.1157455
  54.5305061  39.6037292  88.0475845  10.8385706  12.3632984  21.9415436
  10.0976534  12.8984032  22.2260361  11.2304811  12.8595495  21.2229519
   4.6599536  63.0613861  80.6594772   5.5556250  62.7606964  80.5058899
   4.1714563  62.2641144  80.8643112  74.7342377  48.0315247  22.7604656
  74.0037842  48.3421593  22.2255001  75.5034866  48.4640999  22.3898468
  16.2765656  69.4048843  77.0348511  15.8843737  69.7490311  76.2323685
  15.8159266  68.5807037  77.1922150  50.6295929  12.9370127  17.0950699
  50.0923996  13.1090784  17.8684063  50.1448212  13.3367128  16.3729401
  16.3065453  62.9209137  42.4214592  16.1394463  61.9882851  42.2854042
  16.1410294  63.3209343  41.5677490  53.2715034  57.3182030   6.3352938
  53.3393364  56.5880775   5.7200289  53.9179039  57.1210213   7.0131707
  79.3170166  42.1323586  33.5790176  79.3379211  41.1827087  33.4608688
  79.3126678  42.4844170  32.6889229  46.2238464  16.4617977  71.9140167
  46.1057281  16.8544579  71.0490952  46.5508461  15.5803280  71.7342529
  10.3046780  42.7535400  36.1923370  11.1899805  42.6960716  36.5517349
  10.3304863  43.5147552  35.6125793  45.2349014  58.6928215  88.0813522
  44.8103447  59.1484337  87.3544388  46.1218300  59.0520935  88.1039124
  61.7085228  61.0391235  57.9947815  60.8349152  60.8632698  58.3442383
  62.2285957  60.2793617  58.2565346  79.2756195  51.6825790  19.8016376
  78.6543045  51.0393600  19.4603615  78.9017792  51.9555893  20.6394558
  69.0149460   8.5177317  59.5413971  68.9905701   7.9572268  58.7658501
  69.3058090   7.9389768  60.2461472  33.1362114  49.4404182  79.0888214
  33.9274254  49.9421501  79.2849808  32.9012794  49.7020340  78.1985474
  84.3038712  39.2713165  14.9480114  83.5942917  38.6589088  15.1421108
  84.8082428  38.8422127  14.2568426  15.7947855  57.9674721  49.0538635
  15.5217609  57.0925064  48.7779617  16.6214867  57.8260689  49.5151672
  67.8043976  13.1972504  50.0501442  68.2331696  12.4527998  49.6280251
  68.1505051  13.1985216  50.9425812   4.1255836   6.8988953   7.7724304
   3.4519463   7.5427470   7.5535712   4.9449496   7.3933415   7.7525764
  63.1613617  49.5332451  10.5313730  64.0380096  49.3028488  10.8389978
  62.9843559  48.9118462   9.8251419  82.0082626  13.1614943  10.3403988
  82.8848190  12.8851480  10.6078091  81.7098312  12.4713297   9.7480774
  57.1558418  49.8851357  17.1352215  57.0295029  48.9468575  16.9941406
  56.2730675  50.2270622  17.2767429  60.6593437  22.7369995  52.0454750
  60.7349663  23.5057259  51.4801674  61.5415154  22.6082325  52.3939323
  10.7767029  30.5120678  18.0500259  10.1050396  31.0831699  17.6772728
  11.4563322  31.1113338  18.3585949  82.2410965  38.1178665  45.0629158
  82.5465622  39.0166435  44.9399414  81.8397827  38.1180801  45.9319267
  26.9052620  12.0824337  12.8138418  26.8737450  11.1272707  12.7599716
  26.5723724  12.3811703  11.9675722  12.3910971  52.6537590  19.7561798
  12.9976768  52.0294075  20.1542721  12.2756596  52.3374863  18.8601456
  56.9134865  66.0738678   2.1004755  56.8734665  67.0298615   2.1270661
  57.7002563  65.8811722   1.5904812  83.1521988  38.4964294  38.1241150
  83.4406891  37.8271408  38.7446404  83.9548111  38.7777100  37.6848869
  41.5117111  56.1804352  86.4477844  42.1069336  56.4374542  87.1519699
  40.9820671  56.9609566  86.2850189  48.2327461  27.0066395  84.4381256
  47.7011108  26.7176228  83.6964645  48.5452156  26.1956730  84.8392868
  86.2227097  45.2525368  71.6194305  86.6414642  44.3920326  71.6397858
  86.7518463  45.7619400  71.0056305  52.6282768  27.0883045  75.1611023
  53.3478546  26.6716461  74.6869354  51.9124908  27.1244259  74.5266113
  55.5605202  17.9864292  87.8024979  56.0710258  17.2211990  88.0671463
  55.4543724  18.4935646  88.6073456  80.1566391  23.7416801   5.9161143
  80.1785049  24.6878014   6.0596623  81.0311966  23.5285378   5.5906081
  52.4316330  69.7204056   9.1470909  53.0202065  69.9548721   8.4295673
  51.9825020  68.9325867   8.8407536  80.3911057  35.8325615  31.9697285
  79.7101746  35.2528267  32.3110008  80.5641937  36.4454002  32.6843605
   8.3494196  19.3221169   6.7279863   7.4997268  18.9890957   7.0166926
   8.9783831  18.9319687   7.3349628  50.1831779  62.7875557  13.9441519
  49.9202080  61.9380074  14.2981939  51.1200066  62.8456306  14.1317883
  67.9207001  51.4649582  49.2008972  67.1736450  50.9147530  48.9654922
  68.5495682  51.3311768  48.4917717   6.5110188   7.9812460  14.1913338
   7.1806769   8.1604948  14.8513784   5.7157822   7.8124628  14.6966476
  56.3046913  10.7427435  78.8894119  56.8075943  10.3238678  78.1909409
  56.1485863  11.6321440  78.5718765  47.6979752  66.3576584  30.7467442
  47.1229630  66.0964508  30.0274620  48.3082314  66.9802475  30.3515301
  72.2854538  46.4405670  38.3727303  71.6599274  45.7621193  38.1184502
  71.9653778  47.2342796  37.9440041  16.8108368   5.4774890  57.7958336
  17.1158810   4.9767427  57.0392418  15.8997831   5.2071581  57.9104500
  49.4235916  47.1302299  84.0468216  49.5630989  46.2187462  83.7899857
  49.6559982  47.6366386  83.2685089  41.2899475  39.8409004  56.6463089
  41.7163391  39.0206718  56.3980255  41.9404449  40.5165062  56.4548912
  59.5063171  71.3032303  49.9692039  58.7680206  71.6715317  50.4544907
  59.2938080  71.4657288  49.0501442  67.9678421  36.8634872  31.0430889
  67.1897354  36.3900223  31.3373871  68.5193100  36.9261627  31.8229561
  24.1259975  64.7759247  62.0752640  23.6324406  64.7860565  61.2551842
  23.4993973  65.0718460  62.7355919  10.7161160  56.2565308  10.2462358
  10.8576937  56.9513321   9.6032438  11.5969801  55.9973106  10.5166340
  22.6052628  53.1704674  10.0129795  22.5387897  52.3355255   9.5496435
  23.5455151  53.3033981  10.1333466  54.4094429  13.1423845  12.3080349
  55.1823463  13.6407881  12.5734539  54.6994324  12.6371756  11.5484943
  61.1382332  58.4188461  76.0731583  60.6178741  58.5915527  75.2885361
  60.5378761  58.5846634  76.8000107  23.1770477   4.3783307  18.1890049
  22.2925377   4.7348766  18.1068611  23.6351070   5.0015807  18.7528954
  44.8255882  -0.1565336  29.4051800  44.0698891   0.4269930  29.3370323
  45.4855461   0.3593545  29.8683758  41.3587875   3.3783402  32.1651459
  40.7452583   3.8193657  31.5775146  42.1928558   3.3933823  31.6957474
  27.9828815  55.4494209   2.5987728  27.1144409  55.0477104   2.5729110
  27.8654499  56.2401009   3.1253371  81.9293976  48.6495132  44.6144867
  81.8700180  47.9744492  43.9384766  82.8527451  48.9017487  44.6206436
  31.3925343  47.7913399  48.6941185  30.9408512  46.9474106  48.6953430
  32.3210030  47.5661507  48.7529755  67.9555969   9.8924675  77.6723633
  67.3555832  10.1610947  76.9766159  67.3899307   9.5040941  78.3397598
  37.0019951  71.5400620  69.4393845  36.1432304  71.8925629  69.2059326
  36.9220924  70.5976105  69.2922974  52.8186913  61.0244408  62.6413345
  52.1697693  60.9968109  63.3444481  53.2164841  60.1538429  62.6481934
  49.5934906  58.7069206  49.7194633  48.8915176  59.3208466  49.5036736
  50.2868729  58.9050751  49.0900307  15.1121368  31.6882515  80.1391754
  14.6886482  32.0667381  79.3686981  14.6020432  30.9012051  80.3304749
  46.1098099  24.1900997   4.6417890  46.1728516  25.1449375   4.6185017
  45.4978981  23.9732399   3.9383929  34.3372498  11.6259909   8.0571442
  34.4959106  10.8903093   7.4656782  33.3896141  11.7575321   8.0269403
  56.1163330  24.9498615  71.4506912  55.7970619  24.5878677  70.6240997
  56.2639008  25.8771973  71.2649384  44.0358963  62.7493553   8.4659805
  43.6474991  63.1148338   9.2608433  43.2952690  62.6264153   7.8721876
  57.4005089  57.8795586  41.5621338  58.1693687  58.1599693  42.0585785
  56.6573067  58.2280388  42.0545158  18.5517273  23.1988487  12.8335905
  17.7660809  22.6891613  13.0316029  18.9984188  23.2872105  13.6755476
   6.5076413  30.7800617  25.8131542   5.7971964  30.3575478  25.3304729
   6.0709777  31.4357166  26.3569126  16.4080296  65.1744995   4.6167054
  16.0606518  65.0874023   3.7290261  16.9670029  65.9506683   4.5800734
  83.5978928   1.4369094  14.9837465  83.8098526   2.2999449  15.3393793
  83.3621979   1.6051067  14.0713921   2.2748055  16.2283421  28.2632923
   1.8112097  16.5857430  27.5059433   2.3640995  16.9702644  28.8614674
  60.8097839  53.8144073  67.9288025  60.5747528  52.9814453  67.5199356
  60.3426361  53.8113632  68.7642593  36.6035805  32.2106209  76.7223511
  35.9704285  32.5641022  77.3471756  36.0670319  31.8317432  76.0260773
   8.8987980   8.7369461  81.3687057   8.7831888   7.8236985  81.6310883
   9.1208038   9.1930923  82.1804199  83.6166840   1.1225882  49.2952766
  84.4661484   1.1196901  49.7364578  82.9871826   1.3193797  49.9889832
  31.5872440  40.0743103  40.0675163  31.6011524  39.1301765  40.2245255
  32.2968445  40.2236862  39.4427109  54.1170807  39.7327614  51.7712822
  54.9930496  39.4306984  51.5311432  54.2080383  40.6810074  51.8650055
  23.7526970  12.6535673  14.4560280  23.0771389  13.3067627  14.6382065
  23.5907230  12.3874989  13.5509300   0.3725719  38.3931084  28.6878834
   1.3092984  38.2046623  28.6307583   0.3256067  39.3427505  28.7983475
   6.7313719  69.5621643  16.6783848   7.0044374  70.4765854  16.7525654
   6.2175627  69.4006882  17.4696846  72.0340881   5.3659730  15.2113142
  72.0082550   4.8289165  14.4193964  72.8576202   5.1264811  15.6363668
  34.1906662  37.6815567  42.5655174  33.4136848  37.4385529  42.0620461
  34.4604149  38.5233459  42.1982841  59.0976028  30.6199398  24.4856796
  59.7370491  30.7457561  25.1867580  58.3991508  30.1039238  24.8883228
  11.8764057  67.9026794  17.0941753  12.1948233  68.0158615  16.1986122
  10.9465666  68.1250916  17.0476761  38.0854874   8.4661398   3.0152564
  38.4211845   9.1423225   2.4267685  38.2991180   8.7843838   3.8923624
  85.4911728  70.1520767  66.2180634  86.3093872  70.6472473  66.2576218
  85.7531509  69.2440491  66.3700104   4.6143827  10.1406660  15.8165846
   4.0465207   9.3707781  15.7843809   4.3295417  10.6158972  16.5971317
   9.4758205  51.5969353  70.7144012  10.0899067  51.9612732  70.0769119
   9.3188229  50.7025528  70.4116364  45.3290520  40.0929184  56.6719437
  44.8035278  39.7048721  57.3715706  45.9088097  40.7081337  57.1209717
  55.9542809  10.0815706  71.8609848  55.1294518   9.6690331  72.1173096
  56.1200180  10.7307091  72.5446396  48.4189835  49.9556465  23.0357876
  49.1806450  50.4829597  23.2767086  48.6589584  49.0621147  23.2812271
  74.3096542  14.8972826  19.9355335  74.2632523  14.7115698  18.9976692
  75.0960617  14.4390144  20.2318172  71.3263702  42.4618301  60.3191528
  71.8136597  43.1563454  59.8759460  71.9648895  41.7583771  60.4361229
  15.4919243  30.8541851  87.7668610  15.6206827  30.9594288  88.7095032
  14.6646385  30.3789177  87.6897125  32.9640884  66.5146027  52.2720261
  32.1767883  65.9754181  52.3473091  32.6921120  67.2627106  51.7404251
   6.0983019  45.0176620  32.5905495   6.9318314  45.4415512  32.3861465
   5.8381495  45.3938408  33.4314079  29.1622677  46.7618523  89.1466980
  28.2208195  46.6109200  89.0622940  29.5031853  46.6506500  88.2592087
  57.1250381  49.5717506  73.7625656  56.2850304  49.2977524  74.1307220
  57.7753983  49.0578308  74.2412643  15.4543991  66.0656052  37.1853142
  15.8095932  65.2106247  36.9422569  16.1809387  66.5119476  37.6202278
  63.5679245  33.8447151  51.9159546  63.5912170  33.7264709  52.8655396
  63.5014114  32.9564476  51.5655441  24.7717190   2.9215856   5.3243480
  25.2711983   3.3482175   6.0205789  23.8870964   3.2764852   5.4122186
  17.5055008  68.1205368  20.2222881  16.6891613  67.8527145  20.6442986
  17.3053932  68.9712601  19.8318405  11.8128853  62.3952789  78.6339493
  12.3219767  63.0725174  78.1885223  12.3168173  62.1970825  79.4232559
  80.8918304  26.7168446  75.6521301  81.6521149  27.1112213  75.2247314
  81.2363281  25.9308090  76.0760422  16.0653057  11.1805573  23.8907204
  16.8643875  11.1344795  24.4156742  15.4758844  10.5440855  24.2953434
  63.0093002   7.2272205  22.2669735  62.3381615   7.8990932  22.1470013
  63.3995247   7.1208777  21.3994217  69.3292084  25.8026009  68.9131317
  70.0788727  26.3377285  68.6526031  68.7112732  26.4258442  69.2951813
   6.3433180   3.1486945  19.6163235   6.6560087   3.2953975  18.7236118
   5.7185469   2.4279873  19.5358601  50.0042648  57.3662987  74.9650192
  49.2377663  57.0605736  75.4500427  50.3420830  58.0950851  75.4855881
  51.0951271  16.9097652  28.3680363  52.0336761  17.0856190  28.4345913
  51.0410156  16.0613022  27.9282455  77.9359894  19.1397381  20.2730484
  78.0327530  18.5806866  21.0439777  78.6905975  19.7276402  20.3072758
  43.0043144  49.6149025  57.5991440  43.0967751  50.3238220  56.9626579
  43.0438156  48.8152885  57.0744629  47.3679924  14.1014481  83.2074738
  47.7890091  14.8161793  83.6851044  46.4733238  14.4073324  83.0583725
  38.4364777  38.6136017   4.1726522  39.0372772  38.2617836   4.8295393
  37.6659737  38.0481224   4.2254972  15.0764399  51.4666977  72.9516296
  15.4137793  50.9707909  73.6976242  15.4419088  52.3444061  73.0625076
  50.9181595  10.7922277   6.0636201  50.5410156  10.2950869   6.7894630
  50.3609962  10.5819292   5.3142343  67.0715637   5.3426118  14.9593410
  67.2967148   4.6140203  15.5378685  67.4354935   5.0948510  14.1093979
  10.0952520  16.1993618  26.6937103   9.1709566  16.4291210  26.7892075
  10.4320374  16.1840210  27.5895729  39.5468864  30.2342110  86.4292068
  40.4955063  30.2213993  86.3019638  39.2801170  29.3198586  86.3342133
  79.6140976  52.0110779  46.1899338  78.9284744  51.6720810  46.7654610
  80.1252975  52.5984879  46.7465744  67.0620499  29.2867432  75.6497650
  67.9485931  29.0561352  75.9274063  67.0100937  28.9880810  74.7418365
  69.0934753  68.9817810  86.6629181  69.6918716  68.9950485  85.9159393
  69.0183640  68.0557404  86.8932190  22.6681309  32.5599098  60.6201706
  23.2222939  32.4366455  59.8494949  23.2468967  32.3838730  61.3619766
  81.4576263  49.0734062   8.0189686  80.5916519  49.0810089   8.4267321
  81.3578033  48.5049362   7.2553501  56.7121811  18.1170712  82.1500092
  56.3891754  18.3656178  83.0161057  57.6024780  18.4670830  82.1168900
  30.6151218   5.6765218   6.7639709  30.2887745   6.2704477   6.0879679
  31.1180916   5.0193653   6.2829304   6.8153911  17.4805946  21.9653206
   6.7644892  17.6727333  22.9016571   7.4452443  16.7626019  21.9020481
   3.5350626  34.4802017  18.9448605   2.8315549  33.8689499  19.1632271
   3.9479775  34.6801529  19.7849503  24.0771713  61.7007866  86.7574768
  23.3903446  61.8563919  87.4057770  24.7150478  61.1503448  87.2117386
  27.4035854  14.2784052  73.5628586  27.9777813  13.7417040  73.0165253
  27.9531517  14.5423555  74.3007889  12.6909237  43.8302460  37.0198288
  12.6662445  44.7841759  37.0949364  13.0167646  43.5314980  37.8688354
  80.8608856  63.3800926   0.8158414  80.9301376  62.7062416   1.4921235
  81.7064667  63.3575974   0.3678301  67.8976822  48.1275330  63.7305145
  68.4781723  47.4038010  63.9660416  67.6010590  47.9181709  62.8448410
  84.3221741  21.4125137  15.0396557  84.3659897  20.4979820  15.3188381
  83.9899673  21.8810425  15.8053913  83.5455551  17.2417164  17.2241516
  83.9589996  17.6706352  16.4749374  84.0121994  16.4105835  17.3118515
  73.3098679  42.4417381  62.9853668  73.2151260  41.8107758  63.6989098
  73.9731216  42.0573006  62.4121895  83.5847015  37.8423119   4.8560553
  83.9381104  37.9889679   5.7334514  83.8584061  36.9525566   4.6332307
  73.2570953  38.2642899  21.8306580  73.8047180  38.9221802  21.4022579
  72.5027008  38.7555542  22.1559010  40.0978432  11.2407646  85.0195236
  39.2247429  11.3345585  84.6385651  40.6375389  10.9079056  84.3024750
  83.8316574  10.5085812  72.1409149  83.8665009  10.0772877  71.2871017
  84.6241455  10.2147350  72.5902023  51.0120697  55.1673126  72.3701553
  51.4251747  55.5377846  73.1501083  51.4505348  55.6008835  71.6380386
   8.2690001  37.7078896  27.0228271   8.8767157  38.4259033  26.8457241
   7.9868317  37.4137840  26.1567364  69.3362274  10.8787794  37.1988106
  68.6053925  10.4160633  37.6086960  70.0601654  10.7783680  37.8169212
  57.7649918  69.8302841  35.4861412  58.4368248  69.3799133  35.9980354
  56.9744034  69.7694244  36.0223312   1.8085386   7.5535197  85.2669220
   2.0966046   7.0711856  86.0419083   0.8542644   7.4798832  85.2799759
  67.8619080  33.1107025   4.0714726  67.9714127  32.7291374   4.9424763
  68.4145584  32.5737801   3.5035613  39.9742126  37.3248749   6.2742682
  40.9122429  37.2629547   6.0939984  39.8959236  38.0554924   6.8876996
  54.0761070  16.6959076   4.7952213  54.2578430  15.8313217   5.1635909
  54.5185585  17.3056622   5.3857036  82.7160721  55.5837517  59.4164276
  82.6140671  56.0548592  58.5894547  81.9411011  55.8222618  59.9251175
   8.9323978  42.6538773  71.4478149   8.0053234  42.8668098  71.3409348
   8.9573374  42.0639572  72.2012177  75.5494461  50.2072525  31.8093948
  75.2271805  49.5966339  32.4723587  75.7715988  50.9984093  32.3002625
  86.5190582  12.1790714  81.1202316  85.6409607  12.0028505  81.4580460
  86.8130493  11.3391514  80.7676163  86.0610657  28.7408695  74.4027328
  85.2170639  28.2900982  74.3763046  86.1260834  29.1775303  73.5534210
  51.2263908  38.3269844  74.3451157  51.3033791  38.7628860  75.1938171
  51.3855438  37.4024849  74.5353775   1.1820738  31.1254768  75.5540924
   0.7743132  30.5405636  74.9154663   2.0409558  30.7370472  75.7204514
  58.4859581  69.1041412  44.6577835  58.0049782  68.6612549  45.3568840
  58.9816017  68.4065399  44.2289162  20.1819286  69.1787949  25.1158485
  19.6111717  68.4987640  24.7580490  19.5811520  69.8516235  25.4361744
  29.3009129  48.4198341  45.0987549  29.2823334  49.3766060  45.1206551
  30.1392021  48.2058678  44.6892204  68.9727554  22.1039524  29.2763004
  68.7371902  22.2053146  30.1985092  69.5261307  22.8613892  29.0857983
  37.4022903  64.7569809  17.6900215  37.0932655  65.6627426  17.7082634
  38.2295265  64.7764130  18.1712017  83.4388809  42.4737167   8.2050638
  84.2991562  42.3877220   8.6158800  83.0526199  43.2462921   8.6175756
  42.9255867  24.6584015  13.6127596  42.1968651  25.0141239  14.1213388
  42.8591805  25.0932827  12.7626419  23.0742550  61.2567711  63.0032501
  22.8684807  60.3351784  63.1599579  23.5141296  61.2627678  62.1531296
  71.4850235  36.8160019  88.4747696  71.5388184  36.3144302  89.2882538
  71.8148880  36.2191048  87.8031006  48.6183548  33.2803917  43.8822670
  48.4182625  33.8408279  43.1325340  47.8159866  33.2831001  44.4042168
  48.1985741  31.2299385  13.6421032  48.6313553  30.8545303  12.8752909
  47.3365250  31.4975548  13.3235350  46.1127434  28.1697540  64.5987778
  45.8337135  27.6210957  65.3318176  46.6276741  27.5841179  64.0437012
  55.6352806  55.6612625  32.5339737  55.3515205  56.4284668  33.0310745
  56.1903381  55.1734924  33.1424332  71.1321869  60.3360138  16.8813000
  71.7371674  60.1095886  17.5876694  71.4024811  61.2120323  16.6060429
  14.0726280  31.9830933  13.0627289  13.8331747  31.0602074  13.1474333
  14.9452200  32.0408287  13.4519358  50.6951485  52.4315491  77.0693588
  51.2902107  53.1430321  76.8328781  49.8302917  52.7445374  76.8042297
  54.4036293  22.4465294  61.3247604  54.6768837  22.6137848  60.4227676
  54.6001778  21.5205536  61.4667740  86.6249619  48.2805328  55.1514664
  86.0382843  48.2521896  54.3956680  86.8684692  47.3668251  55.3000450
  57.3053665   9.2119503  85.8333511  56.9782982   9.5190573  84.9878082
  58.2434120   9.4010878  85.8103333  49.2812881  12.9423628  86.8145752
  49.7390289  13.4983110  86.1839981  49.7237282  12.0957937  86.7529373
  62.9522209  41.9508362   0.8996922  62.2850761  41.3316765   1.1959873
  62.6948166  42.1699181   0.0041596  61.7116280  58.0219345  55.0443344
  61.1123314  58.1774063  55.7743378  62.1933250  58.8437805  54.9506989
  29.3685684  39.8492813  35.7803078  29.4773140  39.2453041  36.5148964
  28.4219742  39.8946342  35.6456375  60.2587433  27.6767578   3.5037594
  60.5361023  27.9791775   4.3685398  60.3417320  28.4476490   2.9424474
  79.8725204  47.7778893  70.7460403  80.0339661  46.8421822  70.6251221
  79.6548462  47.8654213  71.6740417  41.3546829   4.3468986   6.0787582
  40.9514999   3.5173137   6.3346148  41.3376503   4.3363819   5.1217675
  18.2389793  63.2199936  64.7537689  17.5074539  63.2452888  64.1369553
  19.0196400  63.2276306  64.1999283  64.9992294   2.6678050  19.0720844
  64.6610489   3.0588679  18.2665176  64.7890930   1.7372943  18.9931774
  21.7704258  34.8867950  58.8166809  20.9388695  34.8393860  58.3449860
  21.8511696  34.0350800  59.2459755  11.5460176  62.8294106  20.1768494
  10.9031219  63.3700905  19.7179527  12.3856401  63.0728264  19.7869568
  30.0876293  53.5551796   6.1879301  29.7951241  52.7064667   6.5201283
  31.0331783  53.5577011   6.3368030   5.7252455  30.4221172  76.7749023
   6.5602932  30.1574593  76.3890533   5.2040710  30.7268867  76.0321198
   4.9044690  49.3656158  72.0710907   5.3783154  49.9353714  72.6769638
   4.1041040  49.1299629  72.5402603  32.1877251  23.9927311   9.6953669
  31.8986225  23.5533142  10.4950943  32.9349022  23.4755173   9.3946142
  61.6038246  57.3027344   5.0632205  61.5460510  58.2326508   4.8437848
  61.2632484  56.8526154   4.2901549  77.1321716  59.0326538  86.8834839
  77.9631195  58.9594765  86.4140167  76.8592606  58.1269531  87.0299530
  19.8691769  35.5642281  85.7952271  19.0981827  35.2279701  85.3383560
  19.8625736  36.5045013  85.6161346  35.3968658  31.4668598  15.1174688
  35.7894669  31.4130135  15.9887886  36.1422005  31.4461269  14.5172348
  74.3426514  46.6891594  62.7609863  75.0679016  46.4855042  62.1704178
  74.1079865  45.8472672  63.1513405  39.7682381  66.4827728  56.6840630
  40.4219093  67.0079498  56.2223969  39.7161598  66.8766098  57.5549316
  37.9017563  31.4273891  12.9564342  38.5442162  30.7479191  13.1608725
  38.1615486  31.7509079  12.0938368  56.0438728  47.3652725   8.8971014
  55.2820816  47.8904114   8.6518764  56.6061554  47.3827286   8.1226568
  75.5475464  17.4405479  75.9246902  74.6705704  17.7446556  75.6908722
  76.0239258  18.2380142  76.1556396  77.9710693  70.1993103  50.8028870
  77.3140335  69.5747299  50.4956017  78.8049927  69.7417450  50.6959267
  50.2292061  33.0687981  69.7871017  49.3033409  33.0418968  69.5456924
  50.5945091  33.7770348  69.2568283   7.5427818   1.6760852  63.5181580
   8.3834200   2.0676243  63.7553444   7.6575098   0.7411451  63.6883240
  79.7495193  47.2768173  37.3945923  78.8675461  47.6484566  37.4103203
  80.1113968  47.4822693  38.2566032  59.0697136  54.5776901  86.9543762
  58.1761017  54.4887924  87.2857132  59.5723381  53.9260178  87.4431763
  73.8414612  26.7123165  57.4128304  74.5076904  26.8471584  58.0867653
  74.1949615  26.0129681  56.8631210  80.2952194  11.8470345  26.9948311
  79.9513474  11.2501669  26.3302002  79.6942368  12.5919371  26.9817600
  17.3482513  55.7133408  27.2689800  17.4954605  55.8891945  26.3396587
  16.4815540  56.0783272  27.4474545  51.3785019  43.3901672  48.8502617
  51.1980972  42.5015106  48.5437050  50.6565018  43.9143257  48.5035477
  64.0113373  25.8613377  79.6421204  63.5191269  26.6546688  79.8532791
  64.7533112  26.1709652  79.1226578  44.0437050  36.4293518  31.3766308
  43.7924728  35.9244499  32.1500587  44.4066010  35.7800293  30.7742023
  44.0326653  24.7272568  45.9642143  43.4168282  24.8975754  46.6769333
  44.2433052  23.7971802  46.0468102  29.1015205   5.0547295  75.6733398
  29.1918449   5.7216010  76.3540421  28.7254276   5.5227966  74.9278870
  16.3529606  41.8253517   2.6886284  16.1579018  42.2664642   3.5154331
  16.8763657  41.0646019   2.9406939  85.1561203  31.5275631  40.7124176
  84.8679123  32.0423546  39.9586563  85.2171402  30.6315365  40.3812904
  21.6424751  50.6502609  -0.1849148  22.4692459  50.6049576   0.2953248
  21.1771336  51.3884659   0.2084603  20.1435471  28.8762875  35.8268356
  19.3787117  29.4010582  36.0632133  19.9303226  27.9930344  36.1278839
  59.6015663  46.9794846  54.4226875  60.3706169  46.6791000  53.9383698
  58.8610001  46.5744209  53.9713364   0.0334754  34.0973854  52.1482506
  -0.3740861  33.8280678  52.9714127   0.9071380  33.7071953  52.1746445
  49.2896614  37.8386345  12.2087517  49.4678688  38.0825729  11.3004742
  49.4985504  38.6247902  12.7132893   8.5454350   9.6706371   5.3505859
   7.6842866   9.2947845   5.1678548   8.4400749  10.1123438   6.1932158
  78.4804382  15.6602097  80.8402176  78.4586334  14.7656240  81.1800308
  78.8554688  16.1779575  81.5526199  26.8529549  64.9302673  69.0911942
  27.0026970  65.5762482  69.7814941  27.3629780  65.2516632  68.3476791
  52.1418839  57.4112396   0.5657095  52.7471733  57.1317558  -0.1211264
  52.7027283  57.5930176   1.3197919   3.6657057  58.8181267  25.8779640
   3.6312950  58.2319412  26.6338978   3.3081312  59.6455574  26.2000313
  65.3124847   6.6732759  45.8308640  65.3154755   6.1535020  45.0270882
  64.3906937   6.7155919  46.0853004  11.4408627   3.1270204  14.0753078
  11.6636324   3.8962176  14.5996561  10.5314560   2.9358859  14.3048267
  29.6139507   2.7513168  69.8898163  29.8893585   3.2278559  69.1066895
  28.6873055   2.9695492  69.9894867  82.5561371  43.4769897  20.8942261
  81.9083862  44.1226006  21.1767750  83.2190857  43.9895134  20.4315739
  38.2947655  31.6505566   7.1816139  38.8769112  31.0813713   7.6849680
  38.8656425  32.0651855   6.5347652  76.7967148   8.3305883  69.0313950
  76.7284470   8.1357498  68.0967255  77.3167191   7.6107788  69.3887482
  49.7833900  28.5056171  79.5848618  50.0935020  29.3340588  79.2191467
  50.3626976  28.3404064  80.3287354  18.6901836   8.7825384   8.7138147
  18.9894276   7.9037046   8.4807129  17.9691982   8.9582720   8.1092243
  77.4630051  42.2149658  66.0932083  77.7827454  43.1128883  66.0052643
  76.5177307  42.2830811  65.9588623  58.7789154  64.0795135   1.3011855
  58.2960739  63.2531319   1.2873193  59.6993828  63.8186226   1.3311973
  51.9602127  35.6857338  45.4666405  51.9418068  36.4083595  44.8391800
  51.5907021  36.0553703  46.2685547  53.2813339  37.7282639  12.9546051
  54.2108498  37.5161667  12.8694592  53.2694931  38.6385765  13.2502766
  35.8820457  56.5862274  78.7130508  36.6086884  57.0344200  79.1458817
  35.2235451  56.4793930  79.3994904  67.0498810  40.9955063  67.4893570
  66.6495667  40.7348862  68.3188553  67.7096405  40.3229828  67.3200684
  13.7962999  60.2930031   6.8653340  13.6554432  60.4870224   5.9386468
  13.5207300  59.3816338   6.9638100  74.0957260  54.4468880  79.4537125
  73.2109680  54.1202202  79.6171951  74.5591583  53.7019577  79.0709152
  12.6975918  34.9056549   9.4609489  12.5133095  35.5393524  10.1542759
  12.8357744  35.4398346   8.6787777  77.8576279  20.4195976  86.7898941
  78.5414352  20.8105373  87.3337784  77.4829636  19.7285824  87.3361130
  47.3196297  15.2264252  68.2468567  47.0632133  16.1482067  68.2184982
  46.8706512  14.8764925  69.0164032  20.8878307  42.8757019  83.8929062
  20.0060368  42.5551720  84.0824661  20.7687702  43.4902458  83.1687622
  36.3690147  46.2712440  52.4195786  35.8083687  46.7984200  51.8503723
  36.2223167  45.3700638  52.1322021   2.7047589  41.8749504  68.9006042
   2.7752211  40.9227905  68.8323593   1.7637597  42.0423508  68.9528503
  36.0871162  57.4043007  46.9569206  35.7349205  57.1445923  46.1056023
  36.6239891  58.1742172  46.7692375  54.7716713  70.3282166  48.3628731
  55.2118874  70.3592606  49.2122726  53.8499832  70.4893570  48.5647583
  13.3584509  64.4480438  31.4869175  13.9948807  64.8799362  30.9171276
  12.6109200  65.0455551  31.5072174  49.3766594  54.7751808   8.6711826
  49.4153938  53.8328857   8.5074511  50.2519913  54.9996147   8.9868612
  43.8122597  39.7887497  66.2968140  43.8387604  38.9300537  65.8747177
  42.8819351  40.0118523  66.3276901  10.6980591  31.3453331  60.3445435
  10.6037140  30.3942032  60.2927628   9.8482580  31.6535320  60.6593208
   6.9134884  52.0410767  36.6922722   6.4515409  52.7286797  37.1718941
   7.2018046  52.4651375  35.8840141  17.1941433  41.6350937  61.1584206
  17.7495995  42.3432884  60.8325958  16.8028526  41.9862709  61.9582939
  65.9256134  65.6781540  17.7501736  65.1741562  65.6639938  17.1574345
  66.6014252  65.1784515  17.2921238  64.6580811  48.5113907  81.7013931
  64.0819626  49.1999054  82.0334473  65.1117935  48.1835785  82.4778671
  57.9804878  39.6553192  36.4079475  57.1122894  40.0127068  36.2215691
  58.5557671  40.4201736  36.4248581  68.2168427  14.4930096  26.0812454
  68.7164459  14.7107964  25.2943516  67.7760696  15.3088741  26.3185520
  46.0466461  27.9114323  19.1333065  46.8400764  27.5760918  19.5507393
  46.0753059  28.8555984  19.2881031  68.2445602  30.3771076  49.1646233
  68.8362198  30.7323437  49.8279343  68.2993164  29.4282608  49.2783089
  48.7548637  62.5388680  28.0446091  48.8732452  62.0285378  27.2434978
  47.8089943  62.6722450  28.1060486  85.3189163   9.6458521  85.9564285
  85.8797989   9.5766163  86.7289886  85.4151077   8.8023729  85.5142517
  35.8153076  68.9063721  24.8667698  36.3476372  68.6013260  25.6014824
  35.5105820  68.1042786  24.4424858  32.1785240  57.6893044  74.2081146
  31.7558823  56.9190254  74.5879517  32.8993568  57.3347588  73.6876068
  77.8920822  39.2402611   8.4538164  78.7832260  39.5784225   8.3658304
  77.4198532  39.6130371   7.7093253  15.5181999  34.4528122   8.8174410
  15.5750475  34.5768089   7.8700104  14.5805321  34.3737106   8.9928074
  63.1713028   1.2130275  14.5847607  62.4287224   1.8164912  14.6100092
  62.7783813   0.3566815  14.4158964  80.7468414  24.7212219  68.7912674
  79.9117432  24.3261337  68.5407715  80.9510498  24.3310318  69.6411438
  60.4027405  53.0259552  60.2075653  60.2019501  52.0924950  60.2751503
  60.4704742  53.3226967  61.1150856  47.4418869  20.9420376   0.5046070
  47.6711159  21.5874672   1.1732689  46.9867706  20.2505703   0.9852046
  39.3064957  55.2979126  52.7063980  39.9799538  55.4109688  52.0356483
  38.5167313  55.6751213  52.3188171  71.0931396  17.9149857  11.8455429
  71.4790192  17.0787888  11.5845804  71.5819778  18.1706181  12.6277943
  70.8562012  45.9334984  31.3274918  71.3621521  45.1209869  31.3360233
  71.5139542  46.6244087  31.2485180  62.7833595  27.5549278  65.6051331
  61.8915634  27.3410225  65.3309555  63.1691360  27.9917126  64.8457718
  34.8589592  54.7601357   9.0768013  35.3385429  54.1133041   9.5943336
  35.4682274  55.4926300   8.9847231  77.8359375  65.4270630  50.7983665
  77.0220184  65.1780701  51.2362823  78.4759903  64.7810974  51.0971718
  20.2022953  54.1521606  80.2526169  19.9723854  55.0125504  80.6034851
  20.4726009  53.6456070  81.0185013  66.1784286   9.3442783  79.6170883
  65.9995117  10.2824221  79.5529861  65.9978867   9.1279764  80.5318832
  48.8014755  36.7303467  34.7126923  48.2550697  36.9062614  33.9467125
  49.6970711  36.7381821  34.3749275  73.8717041  12.7244434  12.6916275
  74.5827026  12.8131914  12.0569334  74.0277939  11.8774176  13.1092577
  35.2044334  48.2906036  73.3730469  35.4900970  47.3835297  73.4818954
  34.7891846  48.5125809  74.2064285  75.1645203  13.4571018   5.8307648
  75.7723618  12.7406473   6.0136781  74.6791382  13.1680250   5.0580602
  68.5008926  56.9838295  55.4039192  68.4233704  57.3683205  54.5307693
  67.6577606  56.5558281  55.5528679  31.1703243  48.0327454  18.3323250
  30.8642349  48.4607391  19.1319275  30.4758015  48.1936798  17.6935997
  51.5629616  27.1793118  12.7480593  51.2667236  26.2693176  12.7676077
  52.5162201  27.1223316  12.8135214  30.8076515  23.9358120  15.6301126
  30.9116879  23.2319813  16.2704487  30.0338154  23.6871986  15.1245422
  62.0831718   5.2738199  87.2101440  62.4559555   5.5120206  86.3613052
  62.4959984   5.8749204  87.8302078  56.2390747  45.3552780  21.3310032
  56.9794502  44.7605667  21.2110157  56.3096466  45.9751091  20.6050129
  65.8579178  52.1543121  77.5535202  66.2736816  51.7840004  76.7749023
  66.3109283  52.9856644  77.6944656  38.5110207  35.3626137  39.9982452
  39.2920227  34.9500923  40.3671455  38.8468399  35.9442482  39.3162193
  59.5879478  39.9628372  81.0895844  59.9772263  39.5365334  81.8530960
  60.0981750  40.7648430  80.9769669  57.8639412  10.9365444   5.9828839
  58.3582497  10.4149361   6.6151934  58.0428734  10.5223093   5.1387134
  13.8687935  39.2568207  23.4487572  14.7716990  39.5723152  23.4869518
  13.9503384  38.3148003  23.2998466  83.4431458  17.1001930   9.8036814
  83.9992752  16.6005688  10.4014502  84.0346985  17.7361336   9.4013376
  14.5579557   4.9796886  72.3980103  14.4440947   5.9233780  72.5107803
  13.6720629   4.6470990  72.2537537  31.5493183  10.9790220   8.1099844
  30.6256256  10.8728876   7.8824773  31.9448929  10.1313267   7.9070930
  63.6341400  32.0186882  85.1880951  63.5139236  31.4823723  85.9717636
  64.5762482  32.1844215  85.1534882  44.2048225  36.4054604  11.6451330
  43.8707695  37.1748428  12.1063137  43.5860672  36.2688713  10.9276962
  69.2424164  37.0272980  69.9658356  68.5912170  36.4219055  69.6113358
  68.8001175  37.8761253  69.9754715  74.1517258  42.5014801  18.1506653
  73.9936981  43.4324036  17.9937019  74.7325211  42.2337189  17.4384785
  67.2887497  26.3310623  78.2054443  68.0144958  26.6889687  77.6941528
  67.3001938  26.8322124  79.0208893  41.6097870  16.9493771  75.6672974
  41.7684937  16.0073757  75.7279434  41.3134766  17.0848904  74.7672653
  81.3948975  30.8421764  40.4786263  81.7717590  30.8644104  39.5990143
  81.5331879  29.9428425  40.7757835  22.9752140  39.0952263  56.5364380
  23.0561790  38.1868095  56.8270531  23.8204098  39.2940254  56.1335030
  47.5892296  51.0275879  14.7843304  47.3829079  50.1539726  15.1166887
  48.5258942  50.9948235  14.5898752  82.4594803  54.6082954  19.2410488
  82.2377243  54.4452591  18.3242741  83.3787003  54.3516273  19.3144207
   2.3085825   1.8612126  29.3065243   2.1364570   1.8248335  28.3656292
   2.3507853   0.9442637  29.5779190  76.9968948  21.4162254  65.8460999
  76.6620483  20.5208969  65.7961349  76.3870926  21.9299049  65.3164673
  53.1563416  70.3349609  21.7313881  52.3189354  70.1137848  21.3238850
  53.5870895  70.9084778  21.0975342  51.9660378  40.1455727  11.0600948
  52.6895866  40.3222847  11.6613283  51.4025116  40.9161034  11.1304846
  27.4037952  48.6818962  81.6948700  26.9847145  48.1374397  81.0284042
  27.4332561  49.5561180  81.3061523  74.9522934  34.6329727  39.9519081
  74.2360382  34.4674606  40.5649529  75.0552826  33.8089905  39.4758034
  65.2532120  70.2356796  52.4179764  65.0260468  70.8007431  51.6795082
  65.2395477  70.8175583  53.1778793   3.9805076  17.5708332  14.9174337
   4.2061501  16.8151760  15.4599276   4.6361728  18.2311172  15.1418438
  28.0645981  28.7203560  67.8848419  28.1549301  28.6507072  66.9344635
  28.0805187  29.6615162  68.0586090  75.5194473  55.5551071  75.0191498
  74.7530823  55.9139404  74.5717545  76.2076569  56.2042122  74.8733444
  58.6871948   3.9044485  26.5260315  59.0011024   4.4965816  27.2094593
  59.4759293   3.6548660  26.0445385  40.5685768  31.5502186  24.0244770
  40.0717659  32.3393135  24.2406712  41.0778427  31.3641911  24.8133202
  71.6687088  66.9319458  27.8003845  71.5351715  67.7902069  27.3981667
  70.7929840  66.5476685  27.8411446  78.4260101  48.5204735  34.6255188
  78.1648712  49.3578224  35.0087738  78.0629807  47.8622360  35.2181168
  64.6637955  35.4012489  81.6630020  64.8065643  34.9603043  80.8254929
  63.7608871  35.1855659  81.8963776  28.5002670  56.7805824  84.7363129
  28.7023964  56.1132317  85.3920670  28.6187153  57.6117516  85.1960449
  66.8144913  63.6278458  68.9137039  66.0867844  63.7377472  68.3016663
  66.4177551  63.2297516  69.6885300   3.9801366  40.8647156  42.8677368
   4.8470936  41.1769028  42.6085892   4.1525621  40.0679779  43.3694420
  66.7134933  13.1994333  80.9381790  66.7747498  12.5817509  81.6668396
  66.2473068  12.7180548  80.2546768  42.4056053  21.9297695  78.7761383
  42.7484856  21.1521568  78.3357010  42.9925385  22.6361656  78.5064163
  53.1357498   9.2731781  43.0226822  53.3881302   9.8990898  42.3438835
  52.5400696   8.6679974  42.5809174  45.9969025  40.0600586  28.8002796
  45.3414764  39.6094093  28.2677708  46.6474648  39.3868637  28.9997902
  57.9607887  24.5608101  88.5336456  58.5644913  25.2796345  88.7209091
  57.3099060  24.6060543  89.2340240  65.9740524  47.8903084  50.3753166
  65.2629242  48.2619820  50.8972244  65.9645996  48.3962822  49.5628319
  31.9384022  70.3684006   1.1218832  32.5151749  71.0073395   0.7031794
  31.0969257  70.8184052   1.1969923   2.2004857  45.5653000  48.7428856
   2.2268565  46.4721146  49.0482140   2.8620825  45.1161079  49.2689552
  26.0815182  65.6649017  33.1715164  25.5974770  64.8538895  33.0160027
  25.8173294  66.2425690  32.4554558  78.3244553  34.8461952  66.1667786
  78.8284149  35.2029381  66.8982086  77.7928925  34.1528015  66.5577774
  20.4834499  61.6671143  40.7678566  20.6311016  61.5149078  41.7012749
  19.5812016  61.9826050  40.7164078  47.5707932  28.5631504  35.7531662
  47.8328667  27.6585522  35.9241943  47.6425934  28.9980373  36.6028442
  70.3008118  32.8541985  15.2305012  71.0285721  33.0868645  15.8071022
  70.0511551  31.9715767  15.5041513  66.4628754  61.2614555  23.9947319
  67.3560638  61.5775528  24.1308842  66.1734390  60.9801712  24.8626804
  79.7744522  66.2109375  55.5320129  79.5481873  65.2817688  55.5730324
  79.3023148  66.5388641  54.7666550  23.0823345  36.2777863  65.0077744
  22.5141144  37.0335197  64.8586884  23.4915600  36.4494247  65.8558960
  12.5983257  43.9364967  62.3409996  11.6648569  43.7369957  62.4121857
  13.0147610  43.0864372  62.1988411  50.7646523  57.5894699  33.5158844
  50.1444016  58.0831757  34.0523338  51.4059372  58.2404366  33.2308807
  31.4285240  50.5417366  47.6078110  31.3600025  49.6327744  47.8999062
  30.5353069  50.8805618  47.6677589  77.4248276  62.9854813  37.6276894
  77.9515457  63.3565140  38.3355942  76.7544937  62.4679565  38.0738449
  83.9656219  52.6758957  23.2294006  83.3655701  52.7963600  22.4934292
  84.7350006  52.2558708  22.8448639  61.2973442  60.3172226  12.0152245
  61.7687721  61.1472816  11.9446030  60.5088234  60.5312881  12.5138683
  15.0212297  45.4054832  38.4146576  15.5286875  44.5971031  38.3422508
  14.8096991  45.6372948  37.5103607  78.0149765  21.0567513  62.7483406
  78.6636734  20.9205990  62.0577736  78.4953003  21.5079155  63.4425850
  43.5400848  31.1302071  74.6282806  42.7695923  31.2998600  75.1703033
  43.1835365  30.8258781  73.7937241  36.9106636  54.9590569  12.8278389
  37.6309586  54.6212311  13.3600798  36.8184776  54.3232422  12.1182823
  78.9895554  36.8355064   9.6011391  79.0769806  37.6878891   9.1744833
  79.6092834  36.8677711  10.3299227  26.4451542   2.1286759  11.0110674
  26.2192364   1.6050211  10.2423162  26.8560734   2.9153848  10.6526451
   0.5618648  28.3214931  62.9418678   0.6350929  27.5292797  63.4740944
  -0.3353385  28.3041668  62.6087646  51.3114128  69.8785019  57.9955101
  50.9022675  70.5532608  57.4537201  50.5862503  69.4952087  58.4889221
  59.8772125  56.0009804  53.9738541  60.5660477  56.2311096  54.5973740
  59.2359695  55.5162086  54.4935074  16.1124325  50.7556686  12.2251663
  15.2028408  50.4576797  12.2164602  16.6002121  50.0484467  11.8030987
   5.9740200  30.5799389   9.5501432   6.6635790  31.1345806   9.1852980
   5.5009065  31.1521721  10.1542492  74.0449829  49.5162621  36.6622849
  74.6056671  50.1381111  37.1261406  73.4512863  50.0650902  36.1498947
  79.2970276  66.6998215  62.0494957  78.9085464  66.2772293  62.8154755
  79.1014633  67.6297989  62.1640778  39.8554573  16.7600651  62.4596634
  40.5867691  16.1565437  62.3286018  39.0854836  16.1943626  62.5175285
  17.3782139  28.7729034  79.5756760  17.3179665  27.8379135  79.7716217
  16.6719131  28.9324169  78.9496307  81.9243927  49.2958908   4.8484073
  81.0797501  49.6293221   5.1511307  82.5497437  49.5918884   5.5098820
  43.0128441   2.8589234  48.3224144  43.5728531   2.1051784  48.5081291
  42.5648994   3.0341835  49.1499786  83.1776886  26.0090008  31.1040115
  83.8801651  25.4990101  30.7007008  83.6038132  26.4783268  31.8212128
  22.1372375  51.6928329   5.6628919  22.4132309  52.3349991   5.0089192
  22.8827209  51.0979195   5.7438984  56.4509659  39.6013985  25.1374588
  55.9810677  39.8757210  25.9249725  55.8809547  39.8640442  24.4147320
  52.8805771   8.0573778   9.3840075  53.6890373   7.7566586   8.9690495
  53.1653252   8.7267323  10.0061922  63.9458427  50.3946419  53.9695015
  63.1827698  50.9539986  54.1146469  64.6738586  50.8758965  54.3627167
  48.9887428  69.9890976  32.8342514  49.1311531  70.2794571  31.9333401
  49.8292656  70.1346436  33.2685013  34.6222572  68.2857742  36.7481346
  35.5438919  68.0545425  36.6325874  34.6244621  69.2381668  36.8439293
  21.1610794  57.8980522  49.4289474  21.8502312  57.4775963  48.9146347
  21.0111790  58.7351189  48.9895363  57.4317818  39.7699661  32.8681946
  56.5410385  39.4338341  32.7690849  57.3656883  40.4212570  33.5665359
  54.9246407  39.9352875  30.6043892  54.9730873  39.3015137  29.8886986
  55.7210426  40.4587402  30.5150928  72.7791748   0.0601923  57.3412476
  72.5352249   0.8731833  56.8987923  72.7925339   0.2881067  58.2708206
  12.6917753  45.4486313  47.2171021  11.9900551  44.8584633  46.9422874
  13.4971695  44.9964142  46.9659576  13.4798956  28.9894447  79.6528168
  12.6667929  29.2442837  79.2167511  13.1948099  28.5635681  80.4612579
  79.9841614  36.6966019  75.7723694  79.0514297  36.5351448  75.6303024
  80.3449783  36.8062782  74.8925858  24.7882423  17.7814751  14.9464006
  24.5418415  16.8718567  14.7787342  25.5968685  17.9060497  14.4495745
  82.1912003  31.2041340  78.0687256  81.7646561  30.6526871  78.7246246
  81.5860825  31.2057991  77.3270645  11.6433897  43.5698662  55.3785858
  10.9111958  43.3768082  55.9641190  11.4834232  43.0256424  54.6075706
   5.3077707  55.0962601  31.3708172   5.1504192  55.8376617  30.7861786
   4.4417019  54.8712463  31.7107048  55.6491051  68.5952148  33.5869141
  55.9427261  67.6931534  33.7146339  56.4005051  69.1301727  33.8427429
  40.8749352  71.4444580  70.4517288  41.7441559  71.1748581  70.7483902
  40.5585098  70.7044678  69.9335480  63.7240562  69.4115982  34.0924721
  63.7282906  69.5354843  33.1433296  64.6497345  69.3825607  34.3343544
  17.4400463  68.1587296  23.1753407  17.1980953  67.8640213  24.0533142
  17.5171547  67.3526688  22.6648960  19.6982784   7.6924615  47.8319969
  19.8569927   6.8877640  48.3254547  19.6821098   7.4128804  46.9166794
  65.4243164  26.4211655  47.3892746  64.8286819  26.4353352  48.1384430
  64.8626480  26.5929184  46.6334496   1.8116357  25.0047207   1.8472894
   1.0780922  25.2289963   2.4198675   1.6671681  25.5260353   1.0576110
  15.7412405  61.2395172  17.4329033  16.4025154  61.8984871  17.2214603
  16.0999031  60.4213638  17.0890713  81.5283127  52.3283424  49.8005447
  81.2744751  53.1511040  49.3823814  82.3186417  52.5449333  50.2952118
  67.4152603  11.7643642   3.2083120  66.6435547  11.2504396   2.9704232
  67.0606918  12.5889502   3.5408380  65.0079041  30.1685238  63.7088051
  64.2182312  29.7985325  63.3141479  65.7249756  29.8288136  63.1734123
  77.4635010  42.4388847  87.0617676  78.4047928  42.3253098  86.9302292
  77.1765289  41.6173363  87.4604416  84.8248520  26.7615147  84.9825287
  84.2086639  27.1497345  84.3613892  85.6549301  27.2036896  84.8045273
  12.7759266  21.0547009   0.9067138  12.9350491  20.5509701   1.7049403
  13.5266066  21.6451092   0.8424411  13.8833313  61.7888947  59.4065285
  14.1936932  60.9704056  59.7938080  12.9451971  61.6512375  59.2754326
  27.9550858  26.6456470  13.9601097  28.0343914  27.1789780  14.7509947
  28.4205608  27.1433659  13.2879190  27.0236111  45.7191238   3.7980175
  27.4671478  46.5307770   3.5515800  26.0964699  45.8944435   3.6370692
  59.2812767   5.8670840  31.7102203  59.3588753   5.4920654  32.5874748
  60.1854477   6.0036302  31.4272728  54.0246964  68.7322998  18.2883911
  53.7200317  67.9239120  18.7006035  54.9202347  68.5375366  18.0121498
  55.2140045  58.3395462  14.1693869  55.0891418  57.4342194  13.8847399
  55.3159828  58.2800598  15.1192780  36.6661758  42.7112656  71.3624344
  35.8764610  43.1915398  71.6112671  37.3860588  43.2995110  71.5903854
  78.9569244  68.0622406  14.2971249  79.6427612  68.4026871  13.7227135
  79.2249908  68.3312607  15.1757612  19.1367741  39.2371368  72.8396835
  19.6713772  38.8608513  73.5388565  19.6377087  39.9942398  72.5362167
  70.5979080  15.6787548  19.3582420  70.4061584  16.5865860  19.5934162
  70.8456726  15.2644310  20.1847897  80.2690353  63.1168823  79.5423813
  81.1051483  63.2268181  79.9952011  80.0529327  62.1918068  79.6597061
  17.0785179  36.7003708  22.3974075  17.0162411  37.2116470  21.5905933
  16.2115269  36.7754440  22.7960587  38.7011566  47.6286087  62.6821594
  39.0855904  46.8426018  62.2940407  37.8391685  47.3472519  62.9888382
   8.0162258  58.2196617  57.6544189   7.7333765  57.5912704  58.3187599
   7.2907467  58.8405151  57.5877037  58.9628868  64.7079315  61.2261238
  59.4119225  65.1420746  60.5007858  59.6673584  64.3265533  61.7500496
  32.2453232  66.9573288  67.6792755  32.5523071  66.1092834  67.9999161
  31.6775150  67.2857132  68.3764038  22.0724411  46.3946648  11.4005890
  22.2884655  47.1510582  11.9459658  21.3205967  46.6804543  10.8816605
  45.5495529  53.6874657  49.7292099  46.1826401  52.9927177  49.9102058
  45.3291130  53.5756683  48.8044701  84.2035370  41.2053680  53.9390297
  84.7527084  40.4793434  54.2348900  84.6539841  41.9896164  54.2525291
  62.7059174  56.9756241  42.1269264  62.8750076  57.2007828  43.0417709
  63.4328003  56.4025841  41.8830109  69.4389191  32.5446777   6.4362288
  69.8579483  33.2429008   6.9393458  70.1291809  31.8938808   6.3088193
   0.9243659  57.3712654  29.8926449  -0.0112914  57.1726952  29.8559361
   1.0344070  57.8561020  30.7106037  15.7834187  41.6954765  33.9745636
  15.3516321  42.5404587  33.8488731  15.4539394  41.3810234  34.8164635
  53.8893929  10.7664881  31.4185390  54.5520172  11.3943338  31.7065849
  54.0780563  10.6280413  30.4903851  81.8522034   5.3952065  78.3548660
  82.3801117   5.3980289  77.5564041  82.4188995   5.7892389  79.0180588
  76.3593521  13.3697453  20.7670727  76.0218582  13.2975779  21.6598873
  76.2734909  12.4872236  20.4064960   1.3086425  64.9572220  83.9730911
   0.4193498  64.7870483  84.2836227   1.5355265  65.8071899  84.3503265
  35.7233887  61.2317581   9.3226566  36.5175400  60.9344711   8.8786125
  35.6589813  60.6734962  10.0975275   0.3743304  28.0634441  84.8043365
   1.1637754  28.5304108  84.5305634   0.1436768  28.4560490  85.6462936
  36.2930832  70.4139557   0.2406830  36.8233528  71.1266174   0.5972750
  35.9576607  69.9561539   1.0114878  44.8598938  69.9376526  27.1539860
  44.7311287  70.3915405  27.9868336  45.7714119  69.6464920  27.1783161
  68.8993988   4.3091736   0.5840764  68.2980957   3.5873165   0.4008161
  68.5830231   5.0289245   0.0380945  40.3191071  47.8745651   5.1777859
  41.1132660  47.8586807   4.6436577  39.9577293  48.7507210   5.0436487
  36.6311455  68.7885208  69.4458847  37.0239677  67.9258270  69.5788956
  36.0310745  68.6675644  68.7099991  60.1506233  16.2557297  24.3380241
  59.3068047  16.0919800  23.9168549  60.0398102  17.0994205  24.7763615
  49.0032578  59.6774788  59.4877281  49.1354942  58.7335243  59.4000130
  48.0706215  59.7716980  59.6814995  77.4675903  29.1024532   5.2244539
  77.5241394  28.9900112   6.1733432  76.6062241  28.7550030   4.9930072
  26.3255558  34.5857544  82.6630402  26.6659966  33.9006119  83.2382889
  26.0994091  35.3040810  83.2538834  82.2129288  52.9656029  46.4284439
  82.6390533  52.8470650  45.5795631  82.4482956  52.1824989  46.9260216
  19.9256611   0.5426113  79.5116272  19.0791397   0.4651452  79.0715866
  20.4760418  -0.1173567  79.0900116  44.0354195   1.5785621  52.1247101
  43.1775360   1.6553383  51.7071304  44.6083946   1.2435549  51.4350014
  33.7963028  63.1460266  61.8435173  34.5993805  63.6363602  61.6678200
  34.0269318  62.2352066  61.6606331  74.0597076  35.3298531  75.1665878
  74.7587433  35.8196373  75.5998230  73.8500748  34.6220131  75.7758942
  81.5467300   6.5776367  69.9372864  82.0684357   6.0160465  69.3639908
  80.6546402   6.2403316  69.8557892  81.7917252   3.1018116  58.8306541
  82.2122421   3.8698833  59.2172546  81.7625122   3.2913454  57.8928642
  29.0497913  63.0013046   8.1727047  28.3382988  62.8810959   8.8016396
  29.3472157  63.8997116   8.3163643  44.5275612  62.7216415  12.9820261
  44.6633682  62.0904846  12.2753210  45.3621216  63.1850090  13.0529766
  23.4081078  61.7070122  53.7657013  23.6259727  61.0480957  53.1064644
  24.1095753  61.6388588  54.4134140  44.7142677  64.4388962  67.3920593
  44.7322922  63.6292839  66.8817215  43.8042831  64.7319336  67.3442688
  45.6690025  55.6016655  57.4240799  45.4515572  56.5313377  57.3558311
  45.3702316  55.3493195  58.2977448  21.6276245  71.0374680  16.6911278
  20.8716698  70.7473831  17.2016296  21.9525623  71.8061142  17.1599846
  20.7756004  27.6779137  20.1423244  20.3383331  28.5163383  20.2908993
  20.1050301  27.1260796  19.7397747  41.3961182  46.4835968  49.0060234
  41.0255432  47.3167496  49.2971611  41.3326378  46.5137749  48.0514069
  36.9570694  58.3322678  30.0878868  37.2019310  57.8220749  29.3158913
  36.7394295  59.1984100  29.7434120  26.3207531  41.2588348  66.8662186
  25.6029186  41.7536201  67.2613525  26.9758720  41.9212837  66.6466370
  81.2821274  44.2443542  32.0992241  82.1599121  44.6021805  32.2322044
  81.3098145  43.8616180  31.2223091  42.8090973  45.9374046  33.5104561
  43.6993828  45.7127991  33.2399406  42.2464561  45.4842262  32.8825264
  22.2063179  24.6358280  16.4978867  22.3967896  23.7706108  16.1354618
  21.2639217  24.6232929  16.6651115  30.1307945  65.7204819  21.4163132
  30.2797508  64.7893906  21.2516556  30.7746601  65.9513016  22.0859356
  55.6046028  44.5043907  65.1612549  55.7865791  43.6524010  64.7647247
  54.7071228  44.7052803  64.8959122  72.5470276   4.2253547  34.0812416
  71.6655502   3.9462299  33.8336143  73.1260834   3.7377362  33.4954453
  16.3706722  10.8638945  68.1741486  16.8942661  10.5712757  67.4281921
  16.0266304  10.0566978  68.5566406   7.7327347  56.0121689  19.1924782
   8.1621742  56.8279114  18.9348431   8.4257536  55.4965439  19.6048927
  65.8741913  28.8095589   8.8712225  66.3106613  27.9578228   8.8876810
  65.2439346  28.7696552   9.5905399  31.7939129  65.0493698  41.5120850
  32.3971138  64.3626480  41.2278519  30.9444809  64.7825623  41.1606483
  12.0557213   1.2531615   2.4049609  11.2893200   0.8093476   2.0417953
  12.0107946   2.1399219   2.0473726  11.9102106  57.4228935   1.0328946
  11.1380892  57.4087524   1.5984561  11.5867510  57.1364212   0.1787650
  13.9106884  43.3597679   9.7631378  13.3147488  43.7927246  10.3743963
  13.8172388  43.8525963   8.9478951  73.9110413  21.0882511  69.0029907
  73.4816360  21.1004467  68.1475983  73.1918106  21.1367016  69.6327515
  46.8835716  13.2344942  45.1481552  46.1698151  13.6744699  44.6864166
  46.7999611  13.5294199  46.0549393  60.2024002   5.3526282  21.1571693
  61.0959702   5.3095045  20.8167267  59.6972313   5.7593017  20.4531441
  25.4995480  20.8040962  66.6784897  26.3149796  21.1792355  67.0110168
  25.1698761  21.4569416  66.0609665   3.3188002  48.3665390  54.4756775
   2.8814528  48.7275124  55.2468185   4.2489305  48.3759003  54.7015114
   8.2964163  29.0530205   4.3589935   7.4690075  29.4938793   4.5520482
   8.9577312  29.5753841   4.8128996   7.3459964  33.6112556  70.5621796
   6.5637894  33.7973289  70.0427933   8.0626488  34.0067749  70.0659866
  35.3795891  53.5538254  47.5596657  35.2801781  53.1893196  46.6801872
  36.1412964  53.1012077  47.9218330  83.2027512  13.8482542   5.2998095
  83.6251984  14.6274862   4.9384646  82.8222504  14.1438560   6.1268950
  56.6796227  20.3936787   3.7434244  56.0784492  19.7337246   4.0887976
  57.3837204  20.4382286   4.3903346  24.5051765  47.2434807  81.8520432
  25.0335217  46.4471359  81.9060669  24.7170181  47.6137924  80.9951782
  24.8158779  53.7594147  17.5888920  24.6033154  53.0828476  16.9460049
  23.9927444  54.2290916  17.7233810  18.2837963  12.6450138  21.7680054
  17.6280479  13.2446632  22.1238842  18.6400452  12.1969624  22.5351868
  50.2861938  52.0118332  65.9711380  51.2124443  52.0030251  66.2124252
  49.8817444  51.3656120  66.5499725  53.2172813  23.8762455   8.5820017
  53.0226135  22.9848595   8.8714275  52.7593422  23.9619522   7.7458339
  80.5664215  59.7162018  67.1086502  79.8856125  59.4856148  67.7407608
  81.2910385  59.1242180  67.3104553  44.2837639   6.8616028  88.2457504
  44.4025612   7.8105397  88.2052765  43.4678993   6.7428846  88.7320633
  64.2594452  43.8898888  27.3586693  64.0718994  44.5983124  26.7428837
  65.1394882  44.0811577  27.6829891  43.7386475  61.4846077  52.8903008
  43.0077972  61.5749817  52.2788086  44.3565979  62.1667252  52.6274643
  42.6876106   1.8197316  43.6515808  43.2992935   1.4872065  44.3084679
  42.1174812   2.4169865  44.1358032  51.7647324  55.3943634  14.9355717
  52.0006790  54.7035637  14.3164139  52.4797783  55.4001389  15.5718946
  15.9846268  17.2147369  70.7611694  16.6859798  17.1395836  70.1141129
  15.8218060  16.3147392  71.0435257  17.3579464  57.1719933  14.4292622
  17.8271637  57.8954659  14.0137491  16.6070499  57.0135384  13.8571777
  81.0352936  45.8143654  77.5262985  80.6499557  46.4358025  78.1440048
  81.0469208  46.2824860  76.6914597  76.2489395  58.2907257  23.3513527
  75.6031799  58.9497643  23.6061096  77.0945435  58.7134895  23.5012112
  74.3908768  16.3255405  28.8344879  74.4635544  16.0059624  27.9351444
  73.6448135  16.9249439  28.8161201  66.0045700  18.1960983  30.1662312
  65.7170486  18.8033199  29.4844360  65.2013855  17.9584122  30.6295147
  61.7403450  47.7660599  17.1734848  61.3222809  48.6271400  17.1740303
  62.3548965  47.7977219  17.9066658   9.1180601  12.2469311   3.5932322
   9.7009287  12.9083548   3.9660809   8.9888735  11.6153154   4.3007660
   4.5198822  40.6595230  21.5411034   3.7527647  40.4865303  22.0868454
   4.2297721  41.3340607  20.9270439  58.9966888  60.8187904  13.8089809
  58.5818520  59.9671745  13.6715174  58.3399353  61.3319244  14.2797260
  14.0642357  51.1801033  35.1555099  13.9753113  52.1090851  34.9426346
  13.8540316  50.7261887  34.3394165  42.6215897  65.4356842  56.2591362
  42.4606590  65.9771271  57.0319099  43.5721626  65.3252945  56.2377625
  30.4508266  37.0210152  19.2452793  30.8816452  37.0941658  20.0969105
  31.0779018  37.3956337  18.6266785  45.9429932  20.7410355  23.2494431
  46.2667923  19.8597374  23.4357185  45.3463364  20.9347725  23.9724236
  12.8093557   2.3885252  59.1877975  13.0634365   1.8418349  58.4442863
  13.4607735   2.1941581  59.8616714  64.4717636  20.5400753  75.4762421
  64.7540207  20.9425907  74.6549377  63.5245094  20.4406013  75.3810806
  69.9687881   9.3455391  15.3972044  69.8306427   8.7964430  16.1689816
  70.7889252   9.0269156  15.0202618  53.5487823  18.3847332  63.7389069
  52.7077446  18.0961761  64.0933380  54.0354767  18.6974201  64.5015259
  58.0402832  36.9396057  36.4501686  57.9840012  37.8681908  36.2247772
  58.4743309  36.5365181  35.6982689  76.7624588   3.9063165   5.2128787
  77.6190720   3.9816484   4.7924285  76.3456192   3.1637087   4.7758365
  54.9002609  42.6098289  16.8227882  55.3297386  41.9244080  16.3109512
  54.9805679  42.3168068  17.7304897  47.7254753  55.3070641  53.6003685
  47.7964783  56.2109718  53.9071922  47.7046623  55.3789825  52.6460991
   2.8360009  67.5597916  76.1740875   3.2482755  67.0449829  76.8677979
   3.4536746  68.2710571  76.0043564  63.4148598  51.6542778  61.1069908
  63.5279808  52.2801514  60.3916435  64.2781906  51.2552147  61.2148590
  11.2676744  22.7061634   8.0660067  11.6049671  23.4794865   8.5181541
  11.1411934  22.9935570   7.1617727  28.3731213  42.3503571  49.6294975
  27.5217571  42.6544952  49.3149948  28.7716675  41.9263077  48.8695183
  37.2281990  66.0722122  12.5085382  37.4229965  65.5079422  13.2567949
  36.9501610  66.9006271  12.8992443  71.0445099  48.5245399  36.9559860
  70.5438156  48.1901245  36.2118759  70.4655533  49.1681519  37.3644066
   3.0430431  55.7644234  37.6586494   2.5870304  55.6659203  36.8228378
   2.3526630  55.9862480  38.2834702  36.1517715  54.5728874  62.4127464
  36.3326149  55.5091705  62.4958496  35.3870659  54.5266647  61.8388786
  22.2613277  69.2234802   2.8462565  21.4093266  69.6552811   2.9085064
  22.5009079  69.2984238   1.9225594  37.0088730  67.0742722  77.4651489
  36.8690872  66.6569977  76.6151047  36.4669380  67.8627777  77.4369049
  47.1310081  40.2604294  19.2054634  47.0680885  41.0806313  19.6948910
  47.5337791  39.6457977  19.8188419  52.0939903  31.9627991  86.3889771
  52.9772453  31.9887295  86.0209885  51.5158081  32.0174294  85.6280899
  32.0047798  54.1701889  77.3317490  31.1576843  54.5504990  77.5641861
  32.3110085  54.6995125  76.5953598  43.3770332  56.3493195   5.7568560
  42.6210060  56.8318176   5.4224157  43.9985466  56.3434372   5.0289001
  37.4922180  38.1255608  11.2377930  37.2632484  38.9985390  11.5567179
  37.0936966  37.5274544  11.8699989  77.2663040   1.5438683  87.8893433
  77.8366470   2.2792943  88.1131439  76.3915558   1.9281712  87.8313522
  75.9943542  19.9612370  44.9281921  76.9223938  19.8866367  44.7059402
  75.5686951  19.2765923  44.4121399  84.7930908  47.9103203  53.2042961
  85.4427261  48.5597191  52.9350433  84.3823700  47.6291618  52.3866844
  15.1264935  13.2182083  68.6028748  14.6239243  12.8522129  69.3306885
  15.5231972  12.4571218  68.1790771  64.1952667  13.5746946  46.7970200
  63.3383255  13.9268522  46.5564613  64.3155670  12.8214264  46.2187881
  80.3069077   0.4167705  28.5823441  80.7867661   0.0275418  29.3134212
  79.9531479   1.2330625  28.9355450  84.5794067  17.3322735  67.9428558
  83.9489670  17.8626766  67.4555664  84.1349258  17.1275043  68.7654953
  16.8775291  20.6381092   0.6637927  17.8141212  20.8008595   0.5518118
  16.6878929  20.9334774   1.5543141  72.0544434  65.2785950  88.9885864
  71.9823761  64.3751755  88.6805725  72.9888153  65.4004593  89.1568680
  30.3627930  61.2839890  65.0218201  29.7290802  61.9936714  64.9169769
  30.0350399  60.5847282  64.4562683  77.0722198  37.0866928  35.1119308
  77.8289566  36.5245361  35.2779503  76.3172913  36.5487747  35.3505974
  37.1937447  49.2886658  86.7654800  36.9508209  49.6276512  85.9039078
  36.5295181  49.6413651  87.3576279  78.8527298  32.5844955  31.7235813
  78.7151718  33.3865662  32.2275543  78.1578064  31.9951839  32.0168915
  39.5875053  53.4602814  75.3706589  38.8641129  53.1674652  74.8164139
  39.1620407  53.8296394  76.1444702  84.0728683  20.3292122  30.3585320
  83.7569351  19.7415504  29.6721859  84.1573563  21.1789722  29.9260960
  54.6108055  13.8255329  63.3559608  54.1368675  14.2184381  62.6229935
  54.0349045  13.9535398  64.1097412  17.8680077  66.3807373  71.0032730
  18.4562511  65.6259079  71.0242462  17.0166836  66.0282211  71.2625275
  54.8507423  65.6937408  73.6441727  54.2062607  65.4416504  74.3054810
  55.6415596  65.8944931  74.1447144  48.4838829   3.6900132  74.9387360
  47.8896866   4.2974224  74.4980392  48.6777802   3.0238204  74.2793274
  73.9442444  20.1074696   3.4287794  74.1312790  19.7861557   4.3108268
  74.1374664  21.0440960   3.4690850  36.3167000  14.5715151  77.8858414
  36.7052498  15.4243450  78.0806274  36.6176147  14.3678579  77.0002823
   5.6858225  17.2445717  61.4202614   5.9974580  17.3206158  60.5184135
   5.8135033  16.3219147  61.6407967  60.4663658  20.4509754  50.4748955
  60.6429520  21.3433132  50.7728653  59.5445900  20.4625282  50.2171555
  67.4552002  48.5572739  38.8154831  66.5966797  48.7192841  38.4244270
  67.3312836  47.7718506  39.3483887  65.1805801  28.3272610  59.4048424
  64.2463837  28.5358410  59.4051590  65.2797165  27.6731663  58.7130585
  57.3671074  34.7331581   1.1468709  56.5988045  34.2091904   0.9201533
  57.7809334  34.2534370   1.8643976  72.3269043  31.2408066  78.6911240
  72.4035110  31.6143188  79.5691071  71.6707611  30.5497303  78.7812500
  17.4971008  29.6040936   3.5910401  17.1360645  29.7716618   2.7205200
  17.9906940  28.7898598   3.4929569  56.5553665  28.6794033  44.9077339
  56.4383011  29.5259266  44.4765434  56.4118462  28.0354691  44.2142067
  10.5088110  64.5375977  58.9749718  10.9126415  65.3991928  58.8709679
  11.1515265  64.0300903  59.4705315  46.8626099  17.8566208  69.8169937
  46.2153206  18.5609531  69.8510971  47.6254997  18.2526245  69.3957901
  36.2397385  45.6923485  68.1351624  36.5448608  45.3790703  68.9866257
  35.4528313  46.1995621  68.3345184  21.1896114  30.7443447  87.7975235
  21.1470470  30.6634331  86.8446960  20.9575443  29.8743744  88.1223755
  44.7512245  66.5887604  49.0377426  44.6472511  66.3424683  49.9568481
  45.5839005  66.1951752  48.7770271  86.5201874  32.5581131  77.4334869
  85.5863419  32.7559586  77.3626938  86.7351074  32.1192703  76.6104050
  81.9633713  24.8968010  54.9328499  81.5359039  25.6132622  55.4020844
  82.5127869  24.4728355  55.5921173  84.0784607  40.9545631  80.6460724
  84.8216171  40.8179398  81.2336807  84.3017349  40.4588318  79.8582764
  59.6068459   9.0704470  22.4747105  60.2499084   8.8862686  23.1593876
  58.7662392   9.0816851  22.9324055  77.8118591  16.8055782  46.6987381
  76.8921127  17.0340176  46.8333092  77.7854080  15.9681339  46.2358971
  49.4001350  30.5251217   3.8344953  50.2169113  30.0535641   3.9980233
  49.5497437  30.9837227   3.0077336  71.6820221  30.2311497   3.2041886
  72.3868942  30.8706512   3.1021063  72.1130676  29.3820362   3.1070354
  55.5548744  19.6800861  10.6264267  56.0423546  19.0067825  11.1010456
  56.1713371  20.4074764  10.5421124  19.5071297  43.0693398  75.4773178
  18.9501438  43.5400696  74.8573074  20.2611580  42.7903252  74.9578705
  38.2166939  27.9397812  79.3508606  38.8011169  27.3091717  79.7715912
  37.6382790  27.4046955  78.8073959   1.1778098   9.6855412  87.6935577
   1.3175888   8.7389364  87.6683884   1.6019970  10.0114756  86.8997879
  64.5743561  17.8158760  12.2518139  64.7058029  18.5482941  11.6497202
  64.3405914  17.0798702  11.6862345  79.3685532  71.3856277  72.3973389
  80.2872772  71.3733597  72.1289597  78.9710770  70.6545258  71.9243317
  86.7458590  71.5739563  89.1054925  90.0000000  90.0000000  90.0000000
