QMMM reactant CHA#2 frame 57397
 55680
  28.9527340  45.9251671  41.9063721  29.4404774  46.7701912  41.6453247
  28.0731487  46.1888199  42.3269958  29.5223846  45.3661919  42.5253563
  28.6810760  45.0747032  40.7237625  27.8828011  45.5716438  40.1724854
  29.9632053  44.8903427  39.8609962  30.3142853  45.8817215  39.5746231
  30.7535706  44.3733711  40.4052048  29.5763245  44.2396736  38.5306740
  28.6765575  43.6253242  38.5637321  29.3738232  45.0110779  37.7876816
  30.8874359  43.2057533  37.9008179  32.2259712  44.3211899  37.7811584
  32.9622498  43.8992004  37.0971031  31.8043289  45.2776413  37.4720955
  32.8090019  44.4785385  38.6885796  28.1077118  43.7323303  41.2230301
  28.4134293  43.3165398  42.3279610  27.2798424  42.9760246  40.4987335
  26.9890957  43.2891808  39.5835800  26.4995575  41.8490639  40.9903831
  26.2165871  41.8791389  42.0425835  25.2029953  41.8373947  40.1217537
  24.7136517  42.7984428  40.2799606  25.4911289  41.7729950  39.0724983
  24.1973152  40.7193375  40.4112549  24.5104942  39.7776794  39.9603653
  23.2605190  40.8372421  39.8666344  23.6878166  40.6909180  42.1179123
  22.1894016  39.6983109  41.9594955  22.3667355  38.7751694  41.4077110
  21.3917503  40.3348846  41.5765762  21.8001480  39.1946945  42.8443413
  27.2466812  40.4939651  40.8521385  28.0590992  40.2250519  39.9437904
  26.8429375  39.5532341  41.7299080  26.1158085  39.8582916  42.3610344
  27.2029762  38.1720238  41.6603012  28.1262150  38.1404457  41.0817413
  27.5230236  37.5817108  43.0648270  26.6089954  37.3761940  43.6219749
  28.2142086  36.1570892  43.0398102  28.6228447  35.8788605  44.0112534
  27.4795856  35.4851952  42.5959740  29.0151711  36.1945534  42.3014641
  28.3680668  38.4728050  44.0005302  27.6839695  39.2653923  44.3037071
  28.6107273  37.9465599  44.9237213  29.6866646  38.9147263  43.3316994
  30.3399258  39.3108673  44.1091423  30.1666203  38.0853844  42.8121452
  29.4592476  39.5372696  42.4663506  26.1231403  37.3808861  40.8122025
  24.9518642  37.7167931  40.8992691  26.4712315  36.3650017  40.0248985
  27.4635239  36.1849670  39.9697075  25.5922203  35.3568268  39.3585892
  24.5754414  35.4144211  39.7471008  25.4334316  35.9177589  37.9051933
  26.2723389  36.5108223  37.5410309  25.3972340  35.1088638  37.1754761
  24.3294716  36.9143982  37.7343483  23.8187599  36.6265793  36.8154182
  23.5682640  36.7637901  38.4998474  24.7563629  38.3737679  37.5801506
  25.2656097  38.6475983  38.5041542  25.4960823  38.5546608  36.8002815
  23.4585419  39.2306328  37.4189453  22.5366707  38.8699341  37.6193275
  23.4907379  40.4518280  36.7948570  24.5922279  41.0891800  36.5684776
  24.4772511  42.0754967  36.3839149  25.4965324  40.6448441  36.6384697
  22.4405537  41.1609917  36.5449448  21.5747585  40.7677574  36.8853416
  22.4559116  42.1133690  36.2090263  26.2385082  33.9032822  39.3555794
  27.4250927  33.7635803  39.6279716  25.4551315  32.8465767  39.1560936
  24.4953766  33.0441055  38.9112396  25.8896332  31.4958763  39.0842705
  26.9295368  31.4740715  39.4101982  25.2939377  30.9016132  39.7771606
  25.9963551  30.9334774  37.6120987  25.1195316  31.2052898  36.7260284
  26.9637070  30.0320988  37.4218025  27.6533127  29.9986305  38.1589737
  27.0872726  29.2654686  36.2182579  26.2431927  29.4306946  35.5486832
  28.3196964  29.6816502  35.4253883  29.1112385  29.0339775  35.8023224
  28.0627995  29.3556461  33.9916229  28.7891674  29.7150631  33.2627144
  27.8831978  28.2951508  33.8150024  27.0874348  29.7776451  33.7493706
  28.8000336  31.1523285  35.6545143  27.9891853  31.8752937  35.7436676
  29.2897320  31.1149445  36.6276016  29.8643589  31.7022247  34.6965103
  29.3334064  31.9821472  33.7866592  30.6547699  32.3618584  35.0546112
  30.4799023  30.8322010  34.4679031  27.0041771  27.8069706  36.5819778
  27.4913807  27.3693657  37.5987206  26.3330841  27.0376930  35.7525635
  25.9190960  27.4606247  34.9341240  26.2421169  25.5240650  35.8041573
  26.9170647  25.1412258  36.5696487  24.7847233  25.1149521  36.2341003
  24.0841160  25.2335091  35.4075470  24.8982258  24.0692196  36.5198784
  24.2286663  25.8379192  37.4976616  25.1283798  25.9119663  38.1085091
  23.9519882  26.8575764  37.2296219  23.1206036  24.9998569  38.2440071
  23.7090549  24.1912079  38.6774940  22.8262367  25.7874241  38.9376831
  22.1135921  24.6134148  37.3277740  21.3955402  25.2972622  37.1357956
  21.7950001  23.3891182  36.8769493  22.4119358  22.2992153  37.2512550
  23.3191891  22.4616127  37.6643143  22.2068233  21.4260082  36.7869911
  20.8238125  23.3617363  36.0497360  20.4746780  22.5529728  35.5556602
  20.4878216  24.2512341  35.7091446  26.5685940  24.7807846  34.5123444
  26.7416172  25.4161434  33.4653816  26.8106689  23.5497990  34.6387444
  26.6943836  23.0094070  35.4840584  27.1443405  22.7489834  33.3829727
  26.2171574  22.7370529  32.8100014  27.9729023  23.2475700  32.8799858
  27.4701233  21.2474709  33.5924721  27.7873440  20.9193668  34.7461586
  27.3908348  20.4289284  32.5312729  27.4140377  20.9243088  31.6514072
  27.5466709  18.9627438  32.5800400  28.1293106  18.5373573  33.3971558
  26.1020660  18.4623413  32.6784592  25.5480652  19.1565323  33.3103485
  25.7501965  18.5181980  31.6483269  26.0944920  17.4568005  33.0990868
  28.2951450  18.3527908  31.3640461  28.3949280  18.9265633  30.2883892
  28.8830223  17.1763802  31.6012440  28.9273033  16.8840237  32.5669899
  29.6497860  16.3877068  30.6824589  29.1709385  16.5490665  29.7166595
  31.1033440  16.8526936  30.6432514  31.1300201  17.9303665  30.4819527
  31.9628315  16.4409466  31.9025192  32.0149803  15.3596706  32.0298691
  32.9878159  16.8097973  31.8643608  31.5209846  16.9385052  32.7658348
  31.7872028  16.1671753  29.6350479  32.3826408  16.7547588  29.1640892
  29.6273746  14.8732004  31.1826763  29.2646980  14.5723372  32.3325653
  30.0745468  13.9202642  30.3258324  30.5481949  14.2583103  29.5003128
  30.0060005  12.4030170  30.5257072  29.9100456  12.2835569  31.6048832
  28.7496681  11.8062267  29.9554710  28.8785629  10.7246037  29.9952812
  27.4921780  12.0314417  30.8140373  27.0470238  13.0262251  30.7954521
  26.6511097  11.4199305  30.4872932  27.5560665  11.7120142  31.8542213
  28.5725346  12.2433100  28.6384983  29.2977047  11.8883028  28.1191711
  31.2575684  11.6077394  30.0757370  32.0244293  12.0918608  29.2073975
  31.5927372  10.4567671  30.7387981  30.9482708  10.1526613  31.4545383
  32.8844337   9.7296247  30.4432392  33.3359375  10.1902409  29.5645599
  33.8887672   9.7064095  31.6374569  34.4617195   8.8017254  31.4340439
  34.8486481  10.8791084  31.4743938  35.6565475  10.9312515  32.2042503
  35.4030876  10.7985220  30.5394039  34.2804718  11.7853050  31.6843491
  33.2747269   9.7411041  33.0362587  32.4246864   9.0697145  33.1577911
  34.0490456   9.6124086  33.7925415  32.8170624  10.7277489  33.1081772
  32.5024796   8.2805882  30.2080536  31.4955139   7.8216085  30.7094059
  33.3382797   7.4932604  29.4519367  34.2658310   7.7977619  29.1930447
  33.1008644   6.1442423  29.0547428  32.0412788   5.9824038  28.8567982
  33.8239021   5.7716975  27.7587776  33.7018280   6.5499182  27.0054054
  34.8902512   5.8473916  27.9715500  33.6427307   4.4759941  27.0494900
  34.3439636   4.3329096  26.2273579  33.6342087   3.7431123  27.8562813
  32.3468208   4.4916511  26.2952728  31.2575207   4.6942186  26.9429550
  32.3999901   4.4738202  25.0140839  33.5621338   5.0985999  30.0856533
  32.9459915   4.0532026  30.3738670  34.6460762   5.4089470  30.7703934
  34.9853020   6.3258395  30.5167561  35.2932777   4.6460557  31.8148727
  34.7236061   3.7562771  32.0829544  36.7609634   4.3353815  31.4126129
  37.2443733   5.2472186  31.0619469  37.2907028   3.9269128  32.2732124
  37.0183716   3.4124734  30.2889729  36.4411011   2.5094500  30.4874897
  36.5876045   3.9415116  29.4388790  38.5372620   3.1141872  30.1107998
  38.6329384   2.6670110  29.1213665  39.0912018   4.0323195  29.9151382
  39.0723228   2.2401836  31.0879898  39.3510780   2.7586081  31.9087410
  39.3845596   0.9538918  31.0278683  39.1656609   0.2032975  29.9894867
  39.3598099  -0.7872665  30.0239964  38.8256798   0.7100974  29.1847115
  39.9800491   0.4286474  32.0218086  40.4529076  -0.4417904  31.8247261
  40.3741112   1.0422378  32.7206154  35.5029259   5.3826456  33.1233253
  35.7622833   6.5917339  33.1708488  35.5312386   4.6865149  34.2352104
  35.3668900   3.6954460  34.1309395  35.8793449   5.1716828  35.5980339
  35.7353249   6.2449155  35.7226791  34.9474869   4.5218954  36.6104393
  33.9176636   4.8743010  36.5523148  34.9238853   3.4390621  36.4879036
  35.4368668   4.8569336  38.0253944  35.5366249   6.0643787  38.2451782
  35.5559196   3.9722798  38.8855934  37.4056129   4.9022408  35.7086716
  37.8803024   3.8030610  35.9305611  38.1693649   5.8896055  35.2891464
  37.7022591   6.7433853  35.0190163  39.6348495   5.8990102  34.9902763
  40.1209335   5.3203058  35.7757187  39.7538261   5.4345322  33.4946175
  39.0422745   5.9463563  32.8466721  41.0933723   5.7168927  32.8087082
  41.0583115   6.7027292  32.3450165  41.9524307   5.7530813  33.4786415
  41.2567406   4.9773693  32.0247955  39.6146889   4.0293937  33.3883362
  39.0025635   3.8293254  34.1002884  40.1020813   7.3824944  35.0852547
  39.3401260   8.2219334  34.5540504  41.2673454   7.6551518  35.7262573
  41.7049026   6.9392238  36.2884750  41.4817467   9.0403128  36.1939659
  40.5930595   9.4276590  36.6922684  42.7541237   9.1764126  37.1103172
  43.6453400   8.6567307  36.7585106  42.8801689  10.2515974  37.2375603
  42.2781258   8.5002499  38.4338036  42.6539192   9.0899935  39.2699165
  41.2045021   8.5146236  38.6215019  42.8842812   7.0542903  38.6468811
  42.8674240   6.2678347  37.6594124  43.5119781   6.7687540  39.6941071
  41.6937523   9.9834204  35.0006104  41.2617149  11.0904808  35.0004120
  42.4215240   9.5303936  33.9268951  42.7601776   8.5824270  34.0092049
  42.9407310  10.3353472  32.8382950  43.3430099  11.2524567  33.2686234
  44.0941048   9.6774807  32.0621910  43.8982506   8.7015247  31.6180706
  44.4468613  10.2992392  31.2393417  45.3633003   9.3966713  32.8881226
  46.2157784   9.1120281  32.2713928  45.5394516  10.3501539  33.3860626
  45.1728363   8.3651276  33.9723663  46.0022507   8.1546803  34.8825264
  44.2221527   7.6039853  33.8538857  41.7901726  10.8138838  31.8729286
  41.7156563  11.9335766  31.3973656  40.7716064   9.8922606  31.7581482
  40.9315643   8.9669476  32.1300507  39.4800758  10.1911068  31.1296272
  39.7457199  10.6007214  30.1550770  38.6676407   8.9174366  31.0672855
  38.5371132   8.6015596  32.1023140  37.6899452   9.0948753  30.6192608
  39.2599945   7.7788634  30.2119007  40.1590462   7.5538554  30.7856464
  38.6407127   6.8906698  30.3372021  39.6632767   8.1221962  28.8225803
  38.8758621   8.7659855  28.1565342  40.7319031   7.7688985  28.2326679
  38.7006531  11.2575607  31.8548145  38.0440979  12.0547171  31.1779613
  38.7079353  11.2381639  33.2555656  39.2040710  10.4663515  33.6777687
  37.8264503  12.1258402  34.0551109  36.8750381  12.2346582  33.5344620
  37.5647736  11.5548067  35.5083427  38.5115738  11.2468939  35.9520302
  36.8962173  12.5735197  36.3968620  36.6626930  12.1059418  37.3533897
  37.5254669  13.4535408  36.5299301  35.9150696  12.7182798  35.9446411
  36.7215538  10.2683935  35.3156586  35.8161430  10.5100775  34.7589569
  37.2301369   9.4691477  34.7765388  36.4638901   9.5511589  36.6882095
  37.4344139   9.2793503  37.1033173  35.7960892  10.1978931  37.2573166
  35.9385376   8.6025963  36.5771561  38.4744148  13.5470266  34.0554695
  37.8724251  14.5959911  33.8093300  39.7686005  13.5980806  34.3640862
  40.2187004  12.7001667  34.4702072  40.6059189  14.8401880  34.4280586
  40.0514450  15.4654827  35.1278229  41.9679298  14.5211582  34.9748383
  42.4519272  13.7412767  34.3869324  42.5356407  15.4451256  34.8648872
  42.0429001  13.9576664  36.4539719  41.5387726  12.9931774  36.5149956
  43.5445061  13.8709393  36.8133240  44.0867004  13.2947540  36.0635719
  44.0581932  14.8230162  36.9466515  43.4962997  13.2609835  37.7153969
  41.3705826  14.8153734  37.5242424  40.2975998  14.6689157  37.4003601
  41.8093262  14.4660997  38.4589157  41.7219429  15.8167524  37.2754631
  40.5570107  15.5877495  33.0300179  40.2807999  16.7834568  32.9787216
  40.5652847  14.8450708  31.8742962  40.7676163  13.8565693  31.9193516
  40.5324974  15.4444685  30.5177288  41.2200394  16.2901726  30.5045757
  40.8735237  14.4269199  29.4160767  41.8028870  13.8911905  29.6093941
  40.0615082  13.7003450  29.3873577  40.9871864  14.9757872  27.9456024
  40.8915710  14.0732126  27.3420162  40.1129646  15.5664463  27.6718216
  42.2729416  15.6427221  27.5945206  43.0604515  16.0716438  28.4506664
  42.4670334  15.6854734  26.2432270  41.6911774  15.5028305  25.6229095
  43.2643700  16.2204266  25.9298897  39.1494598  16.1085129  30.2189465
  39.1093483  17.2007980  29.6129799  38.0487175  15.4213486  30.5998135
  38.2326622  14.5558100  31.0867500  36.7476730  15.7854099  30.2755337
  36.8572845  16.1602306  29.2578907  35.7584648  14.5892649  30.5257645
  36.2250481  13.6714668  30.8836021  35.0668182  14.8002768  31.3413639
  34.8375435  14.1348457  29.3573418  33.9855461  13.5799170  29.7500973
  34.3910675  15.0332260  28.9311142  35.5146866  13.2615643  28.3207111
  36.2828064  13.8693476  27.8424911  36.0356216  12.4713955  28.8614159
  34.5966263  12.7413120  27.2866669  33.9696846  11.9544554  27.7060738
  33.9560394  13.5486593  26.9317722  35.4221382  12.0424919  26.3128052
  35.8197556  12.6151943  25.5820446  36.2026787  11.5725222  26.7486820
  34.8226471  11.3533573  25.8817520  36.2089386  16.8642006  31.0826035
  35.5427132  17.7975159  30.5793991  36.5659599  16.8411732  32.4122887
  37.1166801  16.0512047  32.7168541  36.3258553  17.9593754  33.3317451
  35.2420692  18.0711250  33.3637848  36.8036613  17.6886349  34.7901573
  37.8878937  17.6900616  34.9021339  36.2174110  18.7383251  35.7331161
  35.1293640  18.7439709  35.7981071  36.5531158  18.6246948  36.7638893
  36.5090065  19.7647800  35.5107002  36.3134766  16.4421463  35.1879196
  37.0040131  15.8038349  34.9947395  36.9471855  19.2536011  32.8333130
  36.2230911  20.2470036  32.6902962  38.2659912  19.2550735  32.5629501
  38.8174744  18.4262371  32.7332306  38.9860039  20.3784332  31.9055729
  39.0018959  21.2529964  32.5559425  40.3890877  19.9411926  31.6779079
  40.8150253  19.2834892  32.4356041  40.4912300  19.2782955  30.8187027
  41.3340683  21.1924629  31.6480885  41.1280975  21.8300343  30.7883339
  41.0428848  21.7874393  32.5137253  42.8469658  20.8713131  31.7447414
  43.3251762  21.8471718  31.6603928  43.0568390  20.6861763  32.7982025
  43.5508308  19.8679962  30.8039055  44.6167717  19.8162155  31.0256882
  43.2291031  18.8349037  30.9354916  43.3514366  20.2530613  29.3609543
  42.4060860  20.4369640  29.0566635  43.8468132  21.1155148  29.1852303
  43.8479996  19.5621357  28.8167610  38.3063660  20.8424034  30.6181087
  38.1577911  22.0165596  30.4499855  37.8124619  19.9166489  29.8282433
  37.9596939  18.9524479  30.0904255  37.2008247  20.3067131  28.5451984
  37.7799759  21.1381836  28.1435261  37.2480698  19.1377277  27.5130062
  38.2406540  18.6928806  27.5836086  36.6035957  18.3043461  27.7926998
  36.9995422  19.5099373  26.0845413  35.9209175  19.5999470  25.9558315
  37.3684006  20.5052948  25.8369217  37.3878136  18.4936104  25.0596905
  37.1737061  17.3655090  25.2110806  37.9628525  18.9707565  24.0015831
  38.2371025  18.3810520  23.2288399  38.3548813  19.8994846  23.9392891
  35.8186646  20.9399452  28.6562843  35.5758514  21.8764992  27.9744644
  35.0702438  20.5834999  29.7151375  35.2793274  19.7492943  30.2447472
  33.9944839  21.4248028  30.2214069  33.2701035  21.6387997  29.4355450
  33.2629356  20.4905548  31.2764988  32.9855576  19.5906696  30.7275238
  33.9831848  20.2480812  32.0578728  32.0894775  21.1651859  32.0196152
  32.4048538  22.0196781  32.6183510  31.0043755  21.4539871  31.0429001
  30.0953045  21.7959061  31.5376568  31.3408337  22.2729702  30.4071617
  30.6826992  20.5791855  30.4777889  31.4659119  20.2319622  33.0694885
  30.7486286  20.8171062  33.6450081  30.9155674  19.4416809  32.5589256
  32.2221985  19.8559914  33.7585297  34.2499924  22.7714500  30.8342133
  33.7361946  23.8110313  30.3968716  35.2788506  22.8091278  31.6915035
  35.7457581  21.9317722  31.8713474  35.6887932  23.9943790  32.4299355
  34.7536125  24.3284836  32.8792801  36.6231270  23.5711803  33.6362648
  36.2089043  22.7138729  34.1668701  37.4947281  23.2077942  33.0918770
  36.9639854  24.6904545  34.6544762  37.4855995  25.5039349  34.1502266
  35.7117767  25.2856426  35.3072548  36.0004654  25.9807434  36.0956650
  35.1839714  25.8746624  34.5572052  35.0029449  24.5435123  35.6745453
  37.7906456  23.9882069  35.7990837  38.1914902  24.7569370  36.4597473
  37.1266861  23.2538013  36.2550507  38.6330757  23.3680840  35.4927177
  36.3171768  24.9830055  31.4539928  35.8594093  26.1233654  31.5122395
  37.1735992  24.6150799  30.5271111  37.4915657  23.6570358  30.4932518
  37.7278099  25.5670471  29.5208340  38.2220535  26.3216705  30.1326885
  38.9625893  24.9153919  28.8292999  38.6044235  23.9935455  28.3710270
  39.2259789  25.6095638  28.0312691  40.2122078  24.8024158  29.7214012
  40.3876457  25.8390541  30.0089817  40.1348686  24.3003063  30.6857738
  41.3635979  24.0776768  29.0418549  41.1620483  22.9996967  28.4478569
  42.4464455  24.7286854  28.9450855  36.7226830  26.0924301  28.4756107
  37.0017471  27.2461205  28.0787048  35.6158981  25.3539467  28.1785355
  35.5959625  24.4334641  28.5937614  34.5313644  25.9268646  27.4214401
  34.9817429  26.3908119  26.5439377  33.7161407  24.7365227  26.9017906
  34.3380013  23.9730434  26.4343662  33.2333221  24.3255024  27.7883873
  32.4388466  25.0582371  26.0794411  31.9015770  24.1269093  25.9003658
  31.6365395  25.6061096  26.5736485  32.8337288  25.7322674  24.7521095
  33.2489967  26.7192574  24.9558411  33.5115166  25.0838966  24.1968441
  31.5790367  25.8775082  23.8555088  31.0694885  24.9156990  23.7973003
  30.9138241  26.6412029  24.2584515  31.9507675  26.4287167  22.5300770
  31.3140259  26.1996231  21.7802944  31.8840008  27.4364109  22.5160561
  32.8704987  26.1844788  22.1916332  33.7317963  26.9273529  28.1957664
  33.3915977  27.9428101  27.5672874  33.4603271  26.7367973  29.4696217
  33.8177757  25.8622475  29.8266830  32.8076134  27.7037029  30.3873348
  31.8331203  27.9974308  29.9972229  32.5740700  27.0807934  31.7897148
  33.3479652  26.3483772  32.0194054  32.5549240  28.0643940  32.9127350
  31.7999001  28.8460598  32.8288612  32.5501785  27.6255035  33.9104576
  33.5215378  28.5668068  32.9493179  31.2515583  26.2472382  31.6588020
  30.5015335  26.8869286  31.1936531  31.3622189  25.4267502  30.9498234
  30.8624210  25.4899273  32.8927498  31.6899338  24.9262085  33.3235054
  30.5983047  26.1801872  33.6939278  29.9975224  24.8672333  32.6640511
  33.6447258  28.9964333  30.5069771  33.0246048  30.0737362  30.4268932
  35.0057068  28.8627777  30.7034454  35.3819122  27.9335976  30.8267059
  35.8718147  29.9703846  30.8330040  35.4184570  30.5940495  31.6034641
  37.3536148  29.5855122  31.1642170  37.7079544  28.7346287  30.5823727
  38.3631706  30.6153488  30.8838730  39.2282715  30.2917442  31.4626541
  38.4511909  30.5717182  29.7983074  38.0918007  31.6172829  31.2164173
  37.4503136  29.2390766  32.6240044  37.6460075  30.2011719  33.0974770
  36.5203362  28.8310795  33.0199623  38.5453033  28.2037220  32.9239273
  39.5445175  28.6359959  32.8709145  38.4277954  27.7399540  33.9033203
  38.4479141  27.3866425  32.2090874  35.8383598  30.7818947  29.5383110
  35.8736229  32.0413361  29.5963478  35.7145996  30.1579647  28.3626404
  35.7469826  29.1487312  28.3403263  35.5384216  30.8333950  27.0794048
  36.2615929  31.6476212  27.0329533  35.8434334  29.7480850  26.0257530
  36.7955818  29.3001003  26.3100510  35.0790749  28.9710350  26.0185776
  35.7994499  30.3127460  24.5893517  36.0553589  29.4857998  23.9269543
  34.7642136  30.5850964  24.3838882  36.6106796  31.5736084  24.3424797
  36.1133003  32.5080948  23.6601925  37.7869148  31.6819954  24.7478962
  34.2596512  31.6488857  26.8996258  34.2310295  32.8048744  26.4339294
  33.1253929  31.0491142  27.1197510  33.2235146  30.0759411  27.3715553
  31.8173599  31.5028973  26.6664791  31.9289455  31.8647156  25.6443520
  30.7241726  30.3962994  26.5893288  30.6863346  29.8930702  27.5554695
  29.7613602  30.8549309  26.3640537  30.9206085  29.3593845  25.4939804
  31.9829559  29.1154308  25.4952850  30.3209629  28.4936924  25.7752361
  30.5293083  29.7577991  24.1180935  30.7240028  28.9314747  23.1634560
  29.9709396  30.8421974  23.9441528  31.2195816  32.6608200  27.5172100
  30.5622501  33.5348244  26.9295845  31.5999184  32.8039780  28.8197403
  32.2873611  32.1152954  29.0903645  31.2731838  33.8729973  29.6760216
  30.3640728  34.2985497  29.2511444  30.8356514  33.3057480  31.0710239
  31.6840382  32.8142128  31.5471897  30.5943985  34.1099358  31.7661324
  29.6529694  32.3469620  30.9347534  28.5413551  32.8417664  30.6083870
  29.8326836  31.0529175  31.1103668  28.9778957  30.5365849  30.9592457
  30.7678242  30.6787281  31.1851578  32.4127960  34.8320274  29.8796082
  32.1879921  35.9655647  30.2917252  33.5875282  34.5270920  29.3253651
  33.7154770  33.6304131  28.8784847  34.7891769  35.3351326  29.5054226
  35.6145096  34.7974396  29.0387173  34.6179390  36.6987343  28.8326168
  34.1212997  37.4168549  29.4851170  35.5992203  37.1522293  28.6928482
  33.8591881  36.6564217  27.5124683  34.0956001  35.6554375  26.5582714
  34.7339020  34.8734589  26.5239124  33.4559937  36.0848732  25.3938675
  33.5137062  35.5022736  24.4863167  32.9102287  37.2690392  25.5555077
  32.5839615  37.8622742  24.8060265  33.2368889  37.6924934  26.8490925
  33.0409622  38.7129974  27.1433392  35.4343567  35.5140877  30.9567127
  36.1244774  36.4923248  31.2414742  34.9897652  34.5937386  31.8669891
  34.2188797  34.0541344  31.5000191  35.3910866  34.4521294  33.2696419
  35.0034256  35.3442612  33.7614937  34.7179832  33.2729607  34.0225716
  35.2291451  32.3254662  33.8520737  34.8928757  33.5045052  35.5012589
  34.7249298  34.5266228  35.8406296  34.2003441  32.8658867  36.0495872
  35.8940811  33.1361313  35.7248230  33.3168945  33.2363434  33.7830620
  32.8279076  33.9684982  34.1657410  36.8877792  34.4896088  33.5558624
  37.5934753  33.5495796  33.1605072  37.4048576  35.4162102  34.4057159
  36.6639404  36.0426788  34.6862183  38.7046776  35.6309814  35.0369873
  39.5098419  35.2326202  34.4196396  38.9808998  37.1286201  34.9913902
  38.9301147  37.4099426  33.9395447  38.2425766  37.6773911  35.5760498
  40.3198204  37.6145744  35.5671120  40.4442101  37.3677559  36.6214867
  41.1111679  37.2633667  34.9048996  40.2883759  39.1308517  35.4597893
  39.9408798  39.5622101  34.5210266  39.5025253  39.5504951  36.0878372
  41.6085434  39.7041092  35.9337654  42.4663773  39.2774048  35.4140091
  41.6142769  40.7697716  35.7047844  41.7645493  39.5855789  37.4125977
  42.1597252  38.6783752  37.6148949  42.3378830  40.3152504  37.8113060
  40.8435707  39.6126328  37.8263168  38.7487831  34.9882774  36.4794426
  37.8436241  35.2514534  37.2053146  39.7643242  34.2094193  36.9225960
  41.0873566  33.9723587  36.3138390  41.6376114  34.8508377  35.9767990
  41.0962906  33.1551628  35.5925827  41.9530220  33.3679314  37.4156876
  42.4643440  34.1548347  37.9701538  42.6684113  32.5879440  37.1550369
  40.9059830  32.6865501  38.2749939  41.2770920  32.3498383  39.2429810
  40.5121536  31.8073120  37.7651520  39.6583710  33.5284157  38.2317696
  38.8108635  32.8431702  38.2151871  39.4147148  34.3322067  39.5020866
  38.5073624  34.0127640  40.2781105  40.1476097  35.4629707  39.7840004
  40.7459564  35.8020134  39.0443192  39.8775291  36.3377533  40.9282761
  40.2771034  35.8894119  41.8379097  40.6855392  37.6669807  40.7530365
  40.5735931  38.0779152  39.7496910  40.4131012  38.4215889  41.4909058
  42.2494164  37.5381470  40.8095055  42.5562134  38.5609093  41.0284386
  42.5053673  36.9851952  41.7132950  42.9354248  37.1336479  39.5287361
  42.3419724  37.2257957  38.5174179  44.1867561  36.8194389  39.5067177
  38.4020844  36.7741318  41.1869469  37.9927444  36.9930611  42.3286743
  37.5971031  36.9539261  40.1022339  37.9696808  36.7077637  39.1963158
  36.1922722  37.3566856  40.2302055  36.1277351  38.1850166  40.9357567
  35.6108131  37.9458961  38.9168396  35.7091789  37.2297668  38.1010094
  34.6043854  38.2591515  39.1944580  36.2648773  39.2120628  38.4308167
  36.0129242  39.6401138  37.2586212  36.9187698  40.0057869  39.1948204
  35.2362328  36.3090134  40.8406448  34.1662598  36.6059570  41.2744179
  35.7219353  35.0401802  40.8533821  36.6943283  34.9648933  40.5909271
  34.9618301  33.8702812  41.2951355  33.9461670  34.0941391  40.9689217
  35.5632324  32.5220222  40.7663002  36.6133537  32.5179901  41.0584183
  35.0345535  31.2372303  41.4663239  35.1011848  31.3695736  42.5462036
  33.9871254  31.1553802  41.1759796  35.5847435  30.3790646  41.0804062
  35.5610046  32.4653549  39.2619438  34.5512314  32.4078369  38.8555450
  36.1446915  33.2732048  38.8205986  35.9851875  31.5276165  38.9030342
  34.9742584  33.8680992  42.8971329  36.0394859  33.7733498  43.5500679
  33.7586899  33.7266502  43.4459686  32.9678154  33.6483383  42.8226852
  33.4083900  33.5478363  44.7954330  33.9668427  34.2104454  45.4566307
  31.8871021  33.9440536  45.0209236  31.3485928  33.2438469  44.3823128
  31.4868870  33.7606659  46.5336075  31.7655125  32.7711639  46.8960381
  32.1008720  34.4262848  47.1402969  30.4198914  33.9198189  46.6894608
  31.6530247  35.3331909  44.6325569  30.6185036  35.5617599  44.8887405
  32.3954430  35.9540367  45.1340218  31.8063641  35.5119667  43.5683098
  33.7182770  32.0998611  45.3856049  34.6224480  32.0702324  46.1606293
  33.0317001  31.0495949  44.9661446  32.2691078  31.3237114  44.3633080
  33.3223076  29.6317921  45.1392937  34.3997154  29.4786110  45.0774040
  32.8360138  29.2855663  46.5954361  33.1471252  28.2484589  46.7208176
  33.3303452  29.9056034  47.3432922  31.3198490  29.2917004  46.9948387
  31.2705307  28.8167057  47.9746590  30.8489532  30.2618065  47.1537476
  30.3588009  28.3583336  46.0444031  30.1473694  27.1493034  46.1867180
  29.7251053  29.0421753  45.1482430  28.9109402  28.6121712  44.7331200
  29.8503819  30.0018616  44.8594360  32.7226982  28.7196598  44.0973206
  32.0533791  29.2029209  43.2267265  33.0682869  27.4504280  44.1216087
  33.7073669  27.1743755  44.8533630  32.6881561  26.3417015  43.1977844
  31.8098698  26.6239166  42.6172066  33.9152527  26.0062962  42.2873726
  34.2271614  26.9000988  41.7470665  34.7350845  25.6361732  42.9029922
  33.5793571  24.9399338  41.2439919  33.1550064  24.0745926  41.7531204
  32.7918205  25.3753757  40.6289482  34.9280472  24.5084801  40.1824188
  34.9010239  25.9592438  39.0768585  35.5324516  25.6672821  38.2377205
  33.9294357  26.2531643  38.6797066  35.1628799  26.8625507  39.6278229
  32.2660789  25.0566311  43.9435120  33.0675087  24.6150208  44.7885056
  31.1698399  24.3550854  43.5254250  30.6296501  24.6654778  42.7304688
  30.9151821  22.9458313  43.9088974  31.7710915  22.6060677  44.4920654
  29.6391201  22.6696491  44.7201500  28.7303619  22.8441410  44.1441154
  29.7778168  21.6122169  44.9453087  29.4569244  23.3885098  46.0848465
  29.2800045  24.4525528  45.9279633  28.2453556  22.7201004  46.9007149
  28.5651264  21.7037697  47.1307602  28.1234093  23.2652512  47.8366852
  27.3173962  22.7797203  46.3319969  30.5902195  23.3791046  46.9937859
  31.4615459  23.8681908  46.5582619  30.2476101  23.8078632  47.9355278
  30.8182106  22.3247719  47.1503334  30.9705448  22.0507526  42.6464043
  30.6886482  22.5864067  41.5342789  31.1833916  20.7011070  42.6929741
  31.3513718  20.2720127  43.5917282  31.3564053  19.7540531  41.5777817
  30.9120369  20.1309872  40.6566086  32.9265556  19.5878506  41.3933144
  33.4222679  19.5147800  42.3613167  33.1154633  18.6276569  40.9132690
  33.4509010  20.7231827  40.4986763  33.1801910  21.7054863  40.8858337
  35.0078354  20.7122402  40.4142685  35.3057480  19.7362556  40.0311203
  35.3923569  21.5164032  39.7869225  35.3871994  20.9993896  41.3949471
  33.0838165  20.5981789  39.0129738  33.4658623  19.6983490  38.5308342
  31.9985161  20.5698814  38.9158936  33.4719734  21.4662724  38.4802017
  30.6228256  18.5336475  42.1116943  30.7914009  18.2310905  43.3376045
  29.8314457  17.8083420  41.3537292  29.7207737  17.9787884  40.3643837
  29.4422016  16.4450989  41.7054405  30.1564350  16.1121788  42.4585228
  28.0870380  16.2583122  42.1702881  27.9295273  15.1804829  42.2099876
  27.8680325  16.7659378  43.1096764  27.1827183  16.6949177  41.1345978
  26.4113750  16.9966717  41.6199608  29.7439976  15.5245199  40.5073700
  29.8792000  15.9391155  39.3320274  29.7560482  14.2329111  40.8310547
  29.8206501  13.9463911  41.7974052  29.9176331  13.2179966  39.7863884
  29.6344318  13.5413122  38.7847099  31.3635063  12.8697176  39.6232109
  31.6057892  12.3854074  38.6772499  31.9248447  13.7990103  39.7202339
  31.7158527  12.2604322  40.4555092  29.1483364  11.8874044  40.1322784
  28.9443970  11.5924559  41.2623253  28.5711231  11.2177143  39.1729851
  28.7781353  11.3666391  38.1957092  27.4313469  10.2687798  39.5106888
  26.8239193  10.8974724  40.1617470  26.6389275   9.8694191  38.1904755
  25.9784374   9.0526209  38.4814987  25.7961845  11.0488787  37.7423744
  24.8148918  11.1765499  38.1993904  26.3488636  11.9882011  37.7244797
  25.5921803  10.8197670  36.6964340  27.6097355   9.6497707  37.2415428
  27.8382301   8.7173834  37.2347412  27.9472179   9.0615740  40.3487549
  29.1000900   8.6532145  40.1883087  26.9691715   8.4236174  41.0000458
  25.5870743   8.8683777  41.2057152  24.9468288   8.6216755  40.3587646
  25.6222038   9.9368906  41.4181900  25.0975590   8.1415482  42.4668579
  24.0111237   8.0833874  42.5329781  25.4393291   8.7108774  43.3312416
  25.8630085   6.8447556  42.2978516  25.4091682   6.3007951  41.4694595
  25.9172421   6.2713437  43.2232475  27.2489624   7.2914848  41.8361015
  27.8029747   7.6434116  42.7063408  28.0582924   6.0988150  41.2371483
  28.4662476   5.2625046  41.9827499  28.1849823   6.0128841  39.8916168
  27.8159637   6.7774525  39.3444786  28.9180565   4.9793100  39.0878754
  29.0225296   4.0255899  39.6051788  28.1369495   4.7780275  37.7307930
  28.7152214   4.2072177  37.0042381  27.2269897   4.2263484  37.9668503
  27.6239071   6.0887427  37.0473709  26.6566391   6.0352721  36.3166962
  28.0451317   7.1441693  37.4482498  30.4098434   5.3360538  38.8036842
  31.1362896   4.4024014  38.4537354  30.8723965   6.6091790  38.9057083
  30.2732697   7.3342867  39.2736282  32.3350105   6.8664308  38.9890785
  32.9110184   6.0231409  38.6080551  32.6824074   8.2279816  38.3532372
  32.3025131   9.0000029  39.0223885  33.7491684   8.4480553  38.3121490
  32.1609230   8.3928137  36.9213524  31.0719509   8.4364586  36.9030380
  32.5571175   9.7365408  36.3450356  33.6435509   9.7239981  36.2578430
  32.1447182  10.0152483  35.3753204  32.2088928  10.5586452  36.9703217
  32.6112289   7.3435917  35.9578667  33.6843910   7.4680552  35.8131905
  32.1646767   6.4213872  36.3296623  32.1975403   7.5440683  34.9695511
  32.7835884   6.8213854  40.4672470  32.0057220   7.0551200  41.3687210
  34.0689659   6.5156918  40.7084465  34.6714363   6.4667473  39.8992882
  34.6619987   6.4964161  42.0344734  34.1550369   7.2981577  42.5714073
  34.2223969   5.1417589  42.7705574  33.1445236   5.0053139  42.6829491
  34.7264328   4.3286157  42.2482071  34.5421181   4.9120116  44.2796440
  34.8856010   3.6810904  44.8925133  34.9884605   2.7846363  44.4387589
  34.9093399   3.8612936  46.2015152  35.3282242   3.1531332  46.9011192
  34.6265602   5.1453733  46.5020638  34.1486511   5.4250350  47.3467484
  34.3636322   5.7935762  45.3187637  33.9269447   6.7749968  45.2068787
  36.1635399   6.7691998  42.1367836  36.7076912   6.8477316  43.2969055
  36.8219299   6.9362931  40.9722939  36.3619385   6.9649448  40.0735779
  38.3257980   6.8557615  40.8042259  38.7371635   5.9617453  41.2728615
  38.5647469   6.7382026  39.3216743  38.1639404   7.6683803  38.9188995
  39.6421432   6.6826944  39.1660080  38.1105156   5.8304105  38.9245758
  39.0787086   8.0763483  41.4765892  40.1613655   7.9676695  41.9971771
  38.5604668   9.2764044  41.1491814  37.6653862   9.2107162  40.6859131
  39.2702141  10.5903673  41.4065018  39.7926750  10.3659286  42.3364258
  40.3080368  10.8669434  40.3273506  40.8151093   9.9268570  40.1100616
  39.5876007  11.3448343  39.0380821  39.1581459  12.3271551  39.2348328
  40.2632141  11.5013542  38.1971588  38.7530403  10.7174730  38.7249870
  41.3938293  11.8745031  40.7021675  40.9341774  12.8253717  40.9717255
  41.9262466  11.3975163  41.5250359  42.1167984  12.0215797  39.8997955
  38.2877960  11.7983923  41.6844215  37.1857719  11.9037924  41.1339264
  38.6356049  12.7397432  42.4716759  39.2676392  12.4961033  43.2208595
  37.9308586  14.0017996  42.6205254  36.8807030  13.7375154  42.7447395
  38.3216438  14.8678770  43.8258553  39.3710785  15.1521435  43.7484856
  37.7968445  15.8215628  43.7695580  38.0918808  14.2446623  45.1524696
  36.8541145  14.4181156  45.7742271  36.0666962  14.9385157  45.2492905
  36.5852203  13.8351660  47.0366669  35.5859756  13.9367781  47.4336395
  37.5735130  13.0437689  47.6238174  37.4261131  12.5295038  48.5620155
  38.8794556  12.9402561  47.0738792  39.7335205  12.5280514  47.5906563
  39.1341553  13.5035896  45.8023949  40.1192360  13.3567657  45.3847084
  38.0678978  14.9237118  41.3638115  39.2664909  15.0875053  40.9037323
  36.9388847  15.3956394  40.7948303  35.5890923  15.0915575  41.1140785
  35.2247009  15.6538010  41.9738464  35.4211082  14.0734501  41.4652901
  34.7875557  15.3597927  39.8297081  33.8002853  15.7147875  40.1253014
  34.6911392  14.5188856  39.1429176  35.6706009  16.3614502  39.1033478
  35.2406769  17.3071785  39.4333000  35.6146927  16.2306328  38.0226746
  37.0873795  16.3190289  39.6534882  37.7695465  15.8083448  38.9738197
  37.7874832  17.6822853  40.0537796  38.3003654  18.3669300  39.1870499
  37.8504829  17.9327507  41.3749390  37.4960480  17.2224026  41.9993401
  38.5381546  19.1133957  41.8569260  38.0449486  19.9542084  41.3691902
  38.3349457  19.2725945  43.3378296  38.5510254  18.3309402  43.8425140
  39.0743980  19.9838047  43.7059212  37.3026543  19.5906963  43.4837151
  39.9859924  19.3152351  41.4350700  40.5797462  20.3773689  41.5421867
  40.5927925  18.2676888  40.8389893  40.1283684  17.3713284  40.8082085
  41.9380531  18.2517929  40.3285980  42.7455025  18.6104183  40.9669647
  42.3287735  16.7983341  39.8156204  41.4055786  16.2403316  39.6592903
  42.7729607  16.8263531  38.8206253  43.1726990  15.9369478  40.7495461
  43.4073372  14.9792881  40.2848587  44.0503845  16.5068035  41.0545616
  42.4007874  15.5638685  42.0693855  41.9896393  16.4490757  42.5546341
  41.5624695  14.9458666  41.7478104  43.4265938  14.7647905  42.9061165
  43.8451881  13.9035320  42.3854294  44.2339134  15.4255104  43.2219925
  42.6891708  14.2101841  44.0939026  42.1723595  14.9595766  44.5314140
  42.0739059  13.5434256  43.6500702  43.3646965  13.8271942  44.7397270
  42.0176048  19.1682320  39.0957985  42.9078827  19.9431324  39.0101967
  41.0080299  19.0343628  38.1738358  40.1898460  18.5197926  38.4669075
  41.0109062  19.7340641  36.8951988  42.0278511  19.6690044  36.5083046
  40.0688705  19.0189228  35.9339027  39.8144951  19.6197548  35.0607452
  40.5997887  18.1194115  35.6222839  39.1665497  18.7229080  36.4689674
  40.6338501  21.2474327  37.0202484  40.6504631  21.9335747  35.9921379
  40.3860550  21.7783623  38.2637978  40.3395996  21.1386337  39.0439835
  40.3198013  23.2294197  38.6349792  39.9464111  23.6939487  37.7223473
  39.2892494  23.5063934  39.7178078  39.7621040  23.1138706  40.6180534
  38.9311371  24.9349213  39.8916321  38.5327530  24.9075909  40.9058533
  39.7719269  25.6239357  39.8114357  38.1244507  25.2356796  39.2231331
  37.9253044  22.7970009  39.5623627  37.5271912  23.2111454  38.6360321
  38.0272636  21.7184639  39.4421043  37.3354073  23.1896496  40.3905869
  41.7251587  23.7726173  38.8855629  42.1347542  24.6307049  38.1322060
  42.5557556  23.1829319  39.7626038  42.2005615  22.4957638  40.4120140
  43.9464417  23.5964756  39.9925842  43.9728737  24.6861191  40.0020218
  44.4884567  23.1679497  41.3906021  45.5229836  23.5082378  41.4360313
  44.0570984  23.7179585  42.2269783  44.5063629  21.6742554  41.6145020
  43.4891090  21.3163624  41.4557457  45.2353821  21.1436863  41.0020180
  44.8428535  21.3906326  43.0507393  45.8821335  21.6592636  43.2400398
  44.1808090  21.9915504  43.6741943  44.7140732  19.9764538  43.4603271
  45.5913811  19.4787178  43.5121613  43.6064873  19.3046398  43.7274971
  42.4538383  19.9112625  43.7984924  41.7375488  19.3378830  44.2207069
  42.3671379  20.8770924  43.5160828  43.5674362  18.0731430  44.0591354
  42.6530457  17.6632481  44.1855354  44.4236717  17.5497570  43.9449768
  44.8680077  23.3634567  38.7578812  45.9243736  23.9789371  38.6933365
  44.4951248  22.6087685  37.7689629  43.6996536  21.9945946  37.8695793
  45.3055000  22.4079762  36.5442581  46.3112373  22.0774918  36.8038406
  44.7267952  21.2731705  35.6977119  44.7031670  20.3875217  36.3326683
  43.6927528  21.5446281  35.4851952  45.2650604  20.9153194  34.3295860
  44.8273544  19.9846268  33.9685783  45.0285683  21.7224503  33.6362495
  46.7849922  20.6569767  34.2142448  47.4506874  21.0872478  33.2158241
  47.4217110  19.9726486  35.0569267  45.3771133  23.6688538  35.6772270
  46.2814980  23.7719326  34.8331108  44.4636765  24.6166058  35.7981987
  43.6810837  24.3480053  36.3774223  44.3492393  25.8801460  35.0750656
  44.8431396  25.8354549  34.1044159  42.7934837  26.1280327  34.7715607
  42.2119980  26.4249992  35.6443634  42.7045326  27.0375710  34.1774712
  42.1567802  24.9246712  33.9293976  42.6107864  23.9721241  34.2025948
  40.5993042  24.7589645  34.2097321  40.1515579  25.7452774  34.0880547
  40.1980057  24.0381851  33.4973183  40.4664726  24.4124947  35.2346268
  42.4729195  25.1601410  32.4281425  43.5333405  25.1340141  32.1772766
  42.1114845  24.2554874  31.9391956  41.9445839  26.0413837  32.0643082
  44.9615784  27.0594463  35.9237175  44.8071747  27.1618176  37.1159782
  45.6546745  27.9684181  35.2324905  45.7975121  27.8316193  34.2420425
  46.4506836  29.0541401  35.8915825  47.0518532  28.4942417  36.6079712
  47.3490944  29.6981220  34.8391914  48.0448380  28.9779949  34.4085388
  46.7375793  29.9290352  33.9669380  48.0376129  30.8937435  35.1822014
  47.4335327  31.6060963  34.9602928  45.5627632  30.0426483  36.4895363
  44.5712585  30.4747868  35.8682899  45.8151817  30.3975677  37.7581520
  46.5793304  29.9302368  38.2248192  44.9228363  31.2993927  38.4436073
  45.5146561  31.7117596  39.2607994  44.5009003  32.0650101  37.7925301
  43.7002792  30.5864201  39.1145439  43.2020607  31.0875988  40.0812683
  43.2479668  29.4131813  38.6517563  43.8130836  28.8903770  37.9979820
  42.1476784  28.6543407  39.2372475  41.3554916  29.3261204  39.5677834
  41.6332054  27.7132435  38.0845451  42.5292397  27.2088680  37.7228432
  41.0133629  26.9706230  38.5869522  40.8532066  28.3840008  36.9544754
  41.4454269  29.0046654  35.9076691  42.4694443  28.8725376  35.5909042
  40.4543533  29.7402992  35.2451591  40.7217903  30.4786072  34.6099625
  39.2390709  29.6988697  35.9492722  37.9815712  30.3455124  35.8385124
  37.8652077  31.1662827  35.1462746  36.9126434  29.9582825  36.7386322
  35.9290924  30.3989944  36.6693954  37.1589470  29.0056992  37.7507896
  36.3791618  28.7867146  38.4652023  38.3869629  28.4418011  37.8489571
  38.5868301  27.7608299  38.6630402  39.4152527  28.7093239  36.9487877
  42.4628258  27.8020592  40.4591026  41.6455841  27.4909515  41.2703934
  43.7763214  27.6423054  40.6626434  44.4619637  27.9772148  40.0009499
  44.2193298  26.9444199  41.9187889  43.6724777  26.0055389  42.0057106
  45.6753044  26.5142841  41.8802109  45.8487625  25.7866230  42.6730042
  45.8826332  25.9574146  40.9664192  46.6834526  27.6919289  41.9463806
  46.4532127  28.4769707  42.6666565  47.5471535  27.2379036  42.4321556
  47.1469536  28.3069191  40.5976562  46.4072456  28.1938114  39.6538582
  48.3109245  28.8900738  40.5022125  48.6485748  29.4037437  39.7008171
  48.8946838  28.8092480  41.3224525  43.9260445  27.7582588  43.1434746
  43.9983864  27.2890472  44.2470779  43.5076904  29.0135002  43.0958672
  43.4038620  29.4233818  42.1786346  43.0721893  29.8330116  44.2199249
  43.4251900  29.3305511  45.1204987  43.8299522  31.1787052  44.1455536
  43.5481033  31.6635265  43.2108841  43.3979912  31.9253273  44.8119392
  45.3218002  31.2086277  44.3172989  45.8392792  30.9199142  45.5871620
  45.1435089  30.7627182  46.3980827  47.1861572  31.0654526  45.7920227
  47.6173058  31.0989933  46.7816658  48.0345688  31.4246674  44.7248459
  49.3825607  31.5967865  44.8801956  49.6711082  31.7214031  45.7872849
  47.5493584  31.7112656  43.4475937  48.1707687  32.0456543  42.6300125
  46.1395988  31.6881046  43.2843246  45.6899147  32.0763779  42.3824158
  41.5358391  29.9368362  44.4263153  41.0700035  30.4456749  45.4281769
  40.7452812  29.3776608  43.5346527  41.2354889  28.9884338  42.7419968
  39.3085175  29.2328911  43.6106796  38.8175545  30.1728325  43.8628044
  38.7037773  28.7866993  42.1871185  39.2396469  27.9299126  41.7786217
  37.1747589  28.4030666  42.3656235  36.6561279  28.2975349  41.4127388
  37.0577011  27.5407829  43.0220299  36.6098251  29.1849728  42.8731384
  38.8688889  29.9641438  41.2128944  39.9261169  30.1370583  41.0117302
  38.2618790  29.6499920  40.3638077  38.2978134  30.7889824  41.6390419
  38.9308739  28.1946831  44.6569328  39.3742180  27.0368843  44.6223221
  38.1022415  28.4327831  45.7075653  37.5603447  29.7403774  46.0376205
  36.9834442  30.2145061  45.2435837  38.3448601  30.3922482  46.4219360
  36.5162354  29.4387589  47.1674080  35.5452652  28.9987926  46.9399338
  36.3529968  30.3428555  47.7539787  37.1593704  28.2549324  47.8560066
  36.3965988  27.7415104  48.4413948  38.0170555  28.5998306  48.4335175
  37.8263359  27.4300098  46.7120399  38.7615318  26.9688797  47.0296402
  36.7940445  26.4493580  46.1973724  35.6413879  26.8384113  45.8755302
  37.1449280  25.2215500  46.0544586  38.1341133  25.0512447  46.1667709
  36.3550262  24.0378742  45.6193047  35.3945312  24.4699020  45.3384171
  37.0187149  23.4234123  44.3760109  37.3750305  24.1889629  43.6867561
  38.2126465  22.5454006  44.8048286  38.9598923  23.0790844  45.3921242
  37.7973213  21.6563168  45.2793121  38.7026787  22.2335262  43.8824959
  36.0774651  22.4876137  43.6646004  35.1831169  23.0512486  43.3989754
  36.6091766  22.1670551  42.7687073  35.6972160  21.6127682  44.1920052
  36.1654854  23.0094395  46.7188225  37.0564537  22.7792892  47.5638390
  35.0401115  22.2579517  46.7662926  34.2521362  22.5331211  46.1975403
  34.9508858  21.0227356  47.5051193  35.8369827  20.3962650  47.4027977
  34.5355148  21.2911472  49.0210075  35.1151733  22.0955372  49.4738350
  32.9694138  21.5375481  49.2673988  32.5113640  20.6106529  48.9222031
  32.7541084  21.6109886  50.3333969  32.4995766  22.3788834  48.7579765
  34.8632431  20.1784344  49.8226318  34.2899780  19.4324989  49.6314583
  33.8219872  20.1664581  46.8320847  32.9932938  20.7174988  46.1357651
  33.6994629  18.8605614  46.9414978  34.2763023  18.2983418  47.5508118
  32.8627968  18.0933075  46.0226479  32.5524483  18.6110115  45.1150322
  33.6690598  16.9710808  45.4439964  33.9885559  16.2672462  46.2125282
  33.0187836  16.3674221  44.8108826  35.0039864  17.5757332  44.3711739
  35.8600082  17.9313450  45.3332825  31.6758308  17.5272026  46.7324486
  31.8163681  16.7268925  47.6276779  30.4909267  17.8111000  46.1869087
  30.4548817  18.2055130  45.2578011  29.2535324  17.3811531  46.8542862
  29.4605637  17.1490059  47.8989601  28.2819080  18.4743900  46.5818176
  27.4076881  18.3634472  47.2233238  28.7339249  19.4580078  46.7093964
  27.7656593  18.5821705  45.1035156  28.6274376  18.4090519  44.4589462
  27.0740166  17.7870216  44.8251686  27.2338028  20.3270245  44.7375793
  27.7419930  20.4539261  42.9561386  27.7599888  19.4542732  42.5220070
  27.0726891  21.0337696  42.3205948  28.7446880  20.8779526  43.0100174
  28.6721535  16.1148605  46.2617836  28.9211273  15.7859545  45.0818520
  28.0625725  15.2824554  47.1104889  28.0230999  15.5078650  48.0942230
  27.5856800  13.9806461  46.6978035  28.3568020  13.6073914  46.0238953
  27.3691559  13.0473890  47.8178940  28.2608738  12.9646950  48.4392624
  26.5441494  13.4958878  48.3713570  26.9777851  11.6549044  47.4316483
  26.7251911  11.1645403  48.3717766  26.1064301  11.7611122  46.7854576
  27.9891758  10.8175993  46.6564293  29.1821270  10.8456755  46.8361397
  27.5406551   9.8868179  45.8146286  26.5630360   9.8478355  45.5639420
  28.2806149   9.4562721  45.2787247  26.3319836  14.0767088  45.8194580
  25.3276405  14.7254467  46.1671486  26.4046593  13.4754782  44.6144676
  27.2535362  12.9752417  44.3924942  25.2548428  13.3163605  43.7781982
  24.8924656  14.3303843  43.6092567  25.7106647  12.9569521  42.3861618
  26.5329914  13.5801516  42.0347328  26.2272091  12.0005198  42.4669037
  24.6777668  12.7796774  41.2272186  25.1358814  12.3649769  40.3293037
  23.8817005  12.0769415  41.4732666  23.8823738  14.0856218  40.9123993
  22.9947319  14.0165510  39.9936714  24.2211952  15.1725121  41.3102837
  24.1723442  12.3698988  44.2324486  24.4430561  11.1642981  44.5901871
  22.8947239  12.7837391  44.4111824  22.6718044  13.7496576  44.2177734
  21.7746239  11.9111805  44.7283211  22.1135178  11.2154760  45.4959488
  20.5854759  12.7711506  45.1767426  19.9463463  11.9802055  45.5692024
  20.7982368  13.4699841  45.9857330  19.8167458  13.4519634  44.0136223
  20.5487709  14.1888628  43.6831360  19.5534382  12.7341833  43.2367287
  18.2485600  14.3729019  44.4040337  17.1645260  12.9610052  44.6886368
  16.1494999  13.3465462  44.5928345  17.2957840  12.1957378  43.9236298
  17.3782692  12.6260986  45.7036514  21.4557743  11.0345793  43.4819870
  21.5835590  11.3850098  42.3334618  21.0252094   9.7851982  43.7948303
  20.9021664   9.5911922  44.7783546  20.6666222   8.8609228  42.6800575
  21.2821827   9.0786419  41.8072548  20.7112293   7.4184036  43.0701218
  21.5937099   7.1472631  43.6496162  19.8389721   7.2161584  43.6917038
  20.8043346   6.5181551  41.8232803  19.7784328   6.0170674  41.3271675
  21.9563026   6.3867717  41.3438568  19.2718449   9.2026777  42.2022781
  18.4045448   9.4506569  43.0648422  18.9332066   9.1136608  40.9276581
  19.5135155   8.6374884  40.2519341  17.5633469   9.2266636  40.3557129
  16.8024559   9.1378098  41.1311188  17.2886543  10.6975927  39.8348503
  18.0405788  10.9722061  39.0950546  15.9373951  10.8026304  39.0340233
  15.1430817  10.6986666  39.7731857  15.9073982  11.8238144  38.6540451
  15.9338570  10.1308193  38.1756783  17.3408432  11.8763933  40.8883362
  18.1624069  11.6975451  41.5819855  17.5263462  12.7425337  40.2531281
  16.3748627  11.9692926  41.3846741  17.3057175   8.0296535  39.4064522
  18.1279678   7.5759110  38.6246071  16.0198631   7.5961452  39.3748894
  15.2840977   8.0139627  39.9264107  15.6997137   6.4464679  38.5124245
  16.4576111   5.6757927  38.6529961  14.4564180   5.7248292  38.9628830
  14.2387695   4.9471984  38.2307396  14.3509140   5.1700540  40.4130707
  13.4036140   4.6402483  40.5131836  15.2230310   4.5499368  40.6203537
  14.3506365   5.9738111  41.1493340  13.3434553   6.5935283  38.9219360
  12.6303492   5.9535131  38.8631134  15.6876373   6.7685094  37.0325813
  16.1052532   5.9598465  36.1904373  15.3739347   8.0181503  36.6525307
  15.0223169   8.6679468  37.3411713  15.6187677   8.5253878  35.3034210
  15.3757181   7.7504792  34.5764122  15.0054770   9.4216013  35.2097130
  17.0310535   9.0394125  35.0412750  17.2098293   9.8819351  34.1864471
  17.9420052   8.8823719  36.0725403  17.7255135   8.2740278  36.8491669
  19.2172565   9.6211443  36.1423225  19.0000610  10.6665964  35.9233360
  19.6441994   9.4878712  37.1363373  20.2454777   9.1775322  35.0806618
  20.1216373   8.1569901  34.4473114  21.2369061  10.0461769  34.6841316
  21.4161911  10.9316330  35.1357117  22.0701466   9.8581467  33.4908905
  21.5610256   9.1618929  32.8244629  22.2171803  11.1346798  32.6979599
  21.2053623  11.3136587  32.3342400  22.5043755  11.9130669  33.4048767
  23.2700138  11.0529394  31.5089340  24.1620464  10.4823799  31.7674675
  22.6641273  10.3807898  30.2703381  21.6410885  10.0338774  30.4157333
  22.6441212  11.0483589  29.4089146  23.1312237   9.4024162  30.1576138
  23.8042412  12.4396505  31.0604954  24.3887253  12.9948864  31.7941074
  24.4273300  12.2284641  30.1914387  22.8458443  12.9117193  30.8443222
  23.3896523   9.2781649  33.9240952  24.0296230   9.8037710  34.8435402
  23.8561172   8.2081480  33.2753105  23.3119411   7.8761835  32.4918747
  25.0510292   7.4847260  33.7392387  25.0152607   7.4057531  34.8257866
  24.9359570   6.0743275  33.1879272  24.8569145   6.0973144  32.1010399
  25.8477859   5.5553212  33.4833908  23.6935425   5.3174028  33.6254196
  22.9074249   5.9190226  33.1691589  23.4489784   4.3927507  33.1026306
  23.3719521   5.2638550  35.1193237  24.1564217   4.6800232  35.6008339
  23.2377205   6.2730360  35.5087280  21.9925861   4.5257850  35.4503250
  21.1878815   5.2572742  35.3763199  21.7562981   3.7199979  34.7553596
  21.9829617   4.0032697  36.8481026  22.7771397   3.4237332  37.0794411
  21.7115498   4.7108984  37.5157089  21.2657986   3.2924910  36.8719749
  26.3851986   8.1537724  33.2913246  26.3852043   8.8150721  32.3019600
  27.3100052   8.0537739  34.2174606  27.0980778   7.4164443  34.9717789
  28.6607704   8.5441465  34.2780037  29.0404987   8.3857880  35.2873764
  29.5962658   7.7323031  33.3657951  29.4195175   7.8789620  32.3002663
  30.6151123   8.0782843  33.5399971  29.5406857   6.1730437  33.7827759
  29.9370251   5.9862475  34.7808342  28.4957638   5.8628531  33.7780914
  30.4184532   5.3825216  32.8133392  29.9743137   5.4525461  31.8203964
  31.4606342   5.7012038  32.8333054  30.3251171   3.9052012  33.2210503
  30.8422604   3.7876441  34.1733322  29.2688980   3.6415486  33.2757072
  31.1697598   3.1878457  32.2298737  30.9664345   3.5652871  31.3153763
  32.1519203   3.3659525  32.3839378  31.0581264   2.1871209  32.3085365
  28.7703896  10.0411158  34.0061874  29.5836086  10.4476614  33.1279335
  27.9982738  10.8853703  34.6617355  27.5954781  10.4734240  35.4912872
  27.9608440  12.3729372  34.5201035  28.3925438  12.5811262  33.5411263
  26.4987602  12.7348013  34.4293289  26.0585213  12.1548681  33.6181755
  26.0334454  12.5788212  35.4025993  26.4232121  14.5414400  33.9787331
  27.3329201  14.4713669  33.0028114  28.6441422  13.1888962  35.5947685
  28.5602989  12.9046602  36.8250771  29.3918571  14.1619978  35.1310272
  29.4143620  14.2527409  34.1253662  30.2157135  15.0855503  35.8719215
  30.0544167  14.8296623  36.9191093  31.6879997  14.8567781  35.4641762
  31.7504158  15.3495722  34.4939384  32.6368866  15.5863943  36.3920326
  32.1746941  16.2705765  37.1036339  33.2139130  14.9065084  37.0188446
  33.3373642  16.1293087  35.7574615  32.1976051  13.3563995  35.2887917
  32.4195099  12.9013958  36.2541046  31.4410706  12.7155151  34.8359985
  33.5171356  13.2890034  34.4860725  34.1339264  14.1016951  34.8697433
  34.0034142  12.3386688  34.7062950  33.2698517  13.3929148  33.4295921
  29.6023865  16.4740276  35.6826973  29.4978333  16.9411297  34.5151520
  29.3331509  17.2358074  36.7493744  29.6634903  16.8905182  37.6391792
  28.5689583  18.5229416  36.7374687  28.6061306  18.8745899  35.7064209
  27.0419178  18.3272190  37.1204910  26.9778347  17.8630848  38.1046524
  26.4844456  19.2593269  37.2126846  26.1334438  17.5181713  36.2457657
  26.2887669  17.7251911  35.1869392  26.4709358  16.4868622  36.3487320
  24.6529579  17.6008434  36.5457764  24.5384998  18.6805458  36.4496384
  24.0718994  16.9945545  35.8508759  24.3619614  17.2142391  37.8988419
  24.9242973  16.4808998  38.3063850  23.5564480  17.7256317  38.7962151
  22.8017178  18.7521172  38.6003761  22.4392014  19.4063244  39.2791214
  22.8001404  19.0270061  37.6285057  23.3626461  17.1835117  39.9339714
  22.4571648  17.4648705  40.2818832  23.8292503  16.3352203  40.2216949
  29.0984135  19.5486660  37.7458038  29.3381042  19.2203026  38.9138451
  29.0369225  20.8321800  37.3457375  28.6108646  20.9664440  36.4398956
  29.5316753  21.9614525  38.1091194  30.0362701  21.5592308  38.9875870
  30.6903267  22.7342491  37.3587723  31.4855556  22.0087070  37.1875763
  30.1126137  23.5740910  36.0932388  30.9626980  24.0752144  35.6302757
  29.7239876  22.9270382  35.3068542  29.4867249  24.3601971  36.5156136
  31.4507599  23.8429947  38.2016830  31.8507652  23.4950752  39.1540794
  32.3746910  24.1497707  37.7114334  30.9546299  24.7977295  38.3761520
  28.4313240  22.8718548  38.5442429  27.3596745  22.9177265  37.9300957
  28.6707668  23.5788250  39.6544952  29.4505939  23.3182163  40.2410545
  27.8304424  24.6742420  40.1761627  27.3209972  25.1586571  39.3431511
  26.8399620  24.0775642  41.1696434  26.0377617  23.6114826  40.5975037
  27.3805256  23.2966061  41.7044296  26.1350708  25.0539417  42.1488762
  25.8549500  24.3434010  42.9265404  26.8902340  25.5278969  42.7759285
  24.7977371  26.2923889  41.7534447  25.6544971  27.7080002  41.0135994
  26.3456707  28.1046143  41.7572937  26.1537895  27.3754158  40.1035461
  25.0223598  28.5462685  40.7206535  28.7505550  25.7843380  40.7392654
  29.4569702  25.5460205  41.7412376  28.8425617  26.9994793  40.1359138
  28.2073460  27.1826134  39.3723297  29.8644886  28.0370941  40.4988518
  30.3294754  27.7879810  41.4527016  31.0132980  27.9440670  39.4974670
  31.6019249  27.0321751  39.5978279  30.5645924  27.9561920  38.5041809
  32.0177536  29.0720482  39.6119614  31.4853115  30.0177555  39.5107460
  32.4115982  29.0946331  40.6280746  33.2970238  28.9971428  38.3643036
  32.3621445  29.5826378  36.8837128  32.5194626  28.8805485  36.0649185
  31.3483009  29.8581390  37.1740875  32.8598595  30.5151958  36.6177902
  29.3294258  29.4379063  40.6224670  28.3752098  29.7248058  39.9025650
  29.8918381  30.3224697  41.4337502  30.6193600  30.1631870  42.1159821
  29.3996010  31.6905689  41.5178299  28.7814865  31.8606186  40.6362877
  28.5629559  31.8278408  42.8163795  28.1009483  32.8146362  42.8462334
  27.2964821  31.0152760  42.8300591  26.9272366  30.7413082  41.8417816
  27.3026505  30.1550465  43.4994392  26.5483646  31.6855831  43.2532692
  29.3444386  31.6441212  43.9572792  28.7712402  31.8777447  44.6910820
  30.4422436  32.8165512  41.4508362  31.5953503  32.5868759  41.8119965
  30.0858440  33.8868942  40.7445564  29.1335888  33.9466705  40.4132957
  31.1050358  34.8253326  40.1712990  31.9913044  34.7110481  40.7954521
  31.4876251  34.2820969  38.7474518  30.7397766  34.5634918  38.0060768
  32.8520088  34.9529533  38.2635117  32.7141075  36.0340004  38.2429848
  33.7032509  34.7036896  38.8970413  32.9312439  34.6933289  37.2078514
  31.5618610  32.7506599  38.4399109  30.5712166  32.3010101  38.3724785
  31.8263836  32.6645164  37.3860092  32.0452957  32.1814499  39.2338829
  30.5881062  36.3336983  40.0531654  29.4536438  36.5273094  39.6736526
  31.4260921  37.3402634  40.3065224  32.3772888  37.1442947  40.5838737
  31.0060406  38.7095070  40.0650253  29.9579735  38.7940636  40.3522606
  32.0019493  39.6999779  40.8274803  31.9995975  39.3711662  41.8666992
  32.9870949  39.5975533  40.3723984  31.5042400  41.1454048  40.7587585
  31.6493454  41.6371841  39.7968864  30.4365978  41.0546341  40.9587860
  32.1167984  42.0051308  41.8853683  31.4958858  42.2639961  42.8927422
  33.2967644  42.5625954  41.6314812  33.8164330  42.9552269  42.4034195
  33.8434448  42.1263351  40.9028397  31.0184917  39.0033569  38.5553360
  32.0743713  38.9187546  37.8759308  29.8768082  39.4701118  38.0226784
  29.1549339  39.6903572  38.6938667  29.7220898  39.8755569  36.5801620
  30.6664104  40.3662720  36.3444443  29.5937290  38.6523018  35.6577835
  30.5868378  38.2241745  35.7939644  28.5059071  37.6942482  36.0954475
  28.4304676  36.9681168  35.2860451  28.8914146  37.0686417  36.9004936
  27.5250072  38.0831223  36.3687859  29.5310059  38.8778648  34.3121185
  30.1634235  39.5341454  34.0105400  28.4219532  40.7878113  36.3800468
  27.2969894  40.4884529  36.7901077  28.6625099  41.8339615  35.6196976
  29.6469517  42.0596390  35.6261520  27.6432362  42.7499161  35.1481133
  27.0131092  43.1344147  35.9501076  28.2863483  44.0509033  34.4626350
  27.5182018  44.7961693  34.2561607  28.9122982  44.3517418  35.3027534
  29.2317543  43.7721329  33.2010918  29.3702374  42.6576195  32.7002602
  29.8375263  44.7253227  32.6881523  26.7362461  42.0303917  34.1495895
  25.6326752  42.5687790  33.8953590  27.0604935  40.8853264  33.5746193
  27.9637527  40.4727821  33.7590942  26.1871624  40.1117783  32.7214966
  25.9096470  40.8601761  31.9792137  26.9636154  39.0108643  31.9661541
  27.4663296  38.4020157  32.7176094  26.1181870  38.1212425  31.1026859
  25.7597122  38.7748451  30.3074512  26.6656933  37.3223152  30.6026287
  25.2002907  37.7583351  31.5651398  28.1081696  39.5760307  31.2056370
  28.7807980  40.2585526  31.7250938  28.7291317  38.8105659  30.7402649
  27.8528748  40.3043098  30.4358730  24.8683701  39.4863663  33.3888245
  25.0121899  38.9617538  34.5235100  23.6475201  39.6391678  32.7879677
  23.4070129  40.3421822  31.5958443  23.4689980  39.7180290  30.7043896
  24.0010662  41.2424240  31.4384670  21.9718418  40.9128532  31.6961937
  21.5964622  41.0429726  30.6811771  21.9349003  41.8234863  32.2941017
  21.2219391  39.8487854  32.4348679  20.7890530  39.0893250  31.7837715
  20.4000397  40.2472458  33.0296898  22.3296356  39.2157784  33.3249702
  22.0905552  39.6306496  34.3041687  22.1744900  37.7306099  33.5188713
  22.6069412  36.9610138  32.6841393  21.4674053  37.2302437  34.5620956
  20.9945889  37.8891373  35.1641006  21.2460175  35.8049088  34.9560890
  22.1166668  35.4511528  35.5083008  20.0472088  35.8540268  35.9986305
  20.2715473  36.5379257  36.8172035  19.2135887  36.2029228  35.3891602
  19.5527763  34.5713005  36.6879845  19.2955112  33.8887634  35.8780136
  20.3514786  34.1199722  37.2766113  18.3871765  34.8748093  37.5760841
  17.1861477  34.9922714  37.1802711  18.6140442  34.8988533  38.8303719
  19.5768909  34.7401314  39.0908279  17.9202156  35.1776466  39.5093269
  20.9058113  34.8818436  33.7717628  21.4576740  33.8027306  33.6638489
  20.1156826  35.3522453  32.7927284  19.7142181  36.2708969  32.9152145
  19.7048702  34.5861320  31.5762329  19.6732044  33.5532112  31.9228859
  18.3122120  34.9081497  31.0055866  18.1445847  34.0784645  30.3188400
  17.5266514  34.8113937  31.7550087  18.3096809  36.3096962  30.3658943
  17.8203335  36.4450569  29.2036800  18.6727428  37.3219948  31.0378151
  20.7710342  34.6229668  30.4655113  20.8016930  33.6559410  29.6411781
  21.6016006  35.6764259  30.3053074  21.6868134  36.4027863  31.0018997
  22.7154083  35.7516479  29.2989349  22.4067135  35.3117218  28.3506336
  23.0872784  37.2049065  28.9210339  23.5211582  37.8314705  29.7003059
  23.7840958  37.2602692  28.0846806  21.8340225  38.0068703  28.5240307
  21.3689041  37.4012718  27.7462025  21.1474838  38.1066971  29.3647442
  22.2538185  39.3638000  27.9099693  23.3835049  39.8789978  28.0865421
  21.3507195  39.8922577  27.1666069  20.4656124  39.4084892  27.1150589
  21.4821320  40.8202858  26.7903137  23.9849052  35.0845032  29.7884197
  24.8941250  34.9375496  29.0259762  24.0140038  34.5493202  31.0062580
  23.1986084  34.6063156  31.5995426  25.0704288  33.5909615  31.5348473
  26.0196972  34.0042229  31.1939583  25.1653233  33.4635429  33.1185913
  24.2173748  33.1069221  33.5214729  26.0299244  32.3856773  33.7219391
  26.2762337  32.7366829  34.7240486  25.3838234  31.5177555  33.8537254
  26.8905239  32.1523933  33.0949936  25.5501518  34.8049049  33.7992706
  24.8566628  35.5859833  33.4876785  25.4124432  34.6414452  34.8681107
  26.8861237  35.4459419  33.5962219  26.8659611  36.4629517  33.9878540
  27.7216415  34.8487434  33.9614067  27.0605297  35.5735207  32.5278511
  24.8258896  32.2802582  30.7755928  23.6843910  31.9248524  30.3600636
  25.9087448  31.5507355  30.4295559  26.7445126  31.9242229  30.8562889
  26.0917377  30.4358597  29.5312424  25.1753292  30.1584339  29.0103474
  27.2304382  30.7267227  28.5019894  28.1476669  30.8640404  29.0746479
  27.2405396  29.8504601  27.8537922  26.8874969  31.9226913  27.6268463
  27.0159016  32.7964935  28.2656574  27.6201458  31.9856129  26.8222561
  25.5171890  31.8979321  26.9784756  25.5972614  31.2526054  26.1036968
  24.7078209  31.5183411  27.6021252  25.1545734  33.2470970  26.5101604
  24.6337471  33.7346039  27.2251301  25.5085640  33.8830872  25.4317513
  26.2013550  33.3591957  24.5243359  26.5418549  33.8432693  23.7059040
  26.4015942  32.3883362  24.7178135  25.2265167  35.1184731  25.2323380
  24.7522411  35.7524261  25.8594475  25.4919453  35.5829430  24.3756504
  26.3393784  29.1952496  30.3486023  27.3607292  29.1073933  30.9854221
  25.3589878  28.3086109  30.2829475  24.5595074  28.4992428  29.6959286
  25.4135914  27.0095749  30.9620361  26.1895466  26.9867420  31.7272015
  24.1114006  26.6331310  31.6483574  23.3462658  26.6327305  30.8720379
  24.1490250  25.6267834  32.0654411  23.7100925  27.6519394  32.6591148
  24.0555897  27.7941589  33.9659996  23.6028576  29.0192432  34.3303261
  23.7215805  29.3435822  35.3536072  22.8165627  29.5091782  33.2963562
  22.1359406  30.2444801  33.4235802  22.8734379  28.6149387  32.2401047
  22.3538265  28.7279434  31.3000870  25.8211899  25.9561195  29.9137878
  25.0306740  25.6031361  29.0662270  27.0475368  25.4297352  30.0536728
  27.5067081  25.3396206  30.9487362  27.6214924  24.5534401  29.0141258
  27.1317253  24.7877045  28.0689545  29.1673355  24.7346897  28.8188210
  29.5925369  24.6975880  29.8217812  29.8873596  23.6587620  27.9220486
  29.7349205  22.6847820  28.3870449  29.5177650  23.7206860  26.8984928
  30.9734821  23.7492847  27.9377003  29.4234238  26.1221199  28.1843948
  30.4809303  26.3537865  28.0574684  28.9101353  26.1116657  27.2228718
  28.9524345  26.8718071  28.8202000  27.2218056  23.0645447  29.2751560
  27.2054977  22.5628834  30.3729553  26.9229527  22.3413162  28.2044773
  26.8837376  22.7845383  27.2977676  26.4252834  20.9809361  28.2458572
  26.7087116  20.5112438  29.1877499  24.8809834  20.9883957  28.1773567
  24.5597668  21.7513027  27.4682026  24.4810829  20.0043468  27.9327583
  24.2214413  21.3904514  29.5431786  23.9900951  20.4030533  30.4724140
  24.2896004  19.3738594  30.3402672  23.1397419  20.6847954  31.6162834
  22.9400120  19.9357491  32.3682442  22.6738777  22.0142899  31.9199314
  22.0331860  22.4186325  33.0050125  21.6558208  21.7041111  33.5233307
  23.0135117  22.9919891  30.9569893  22.6276722  23.9897900  31.1050644
  23.7022877  22.6764412  29.7512074  23.8671646  23.4270821  28.9924221
  26.9920254  20.1767883  27.0399723  26.7716408  20.4527855  25.8539257
  27.9193172  19.3058300  27.3351841  28.1746407  19.1169624  28.2939548
  28.8118553  18.5442352  26.4343147  28.6666870  18.8377705  25.3946686
  30.2676353  18.8895931  26.8748055  30.2548332  18.6680412  27.9419746
  31.0302601  18.2781181  26.3925133  30.7010956  20.3536911  26.6589909
  30.0405273  21.0154419  27.2192020  32.1541176  20.6570263  27.0643101
  32.3955956  21.6477623  26.6793022  32.2328758  20.4294949  28.1273842
  32.7989502  19.9315929  26.5683022  30.6740227  20.8391037  25.2265301
  29.6862240  20.6273479  24.8172455  30.8769894  21.9069977  25.3072128
  31.4465408  20.4535255  24.5612144  28.6592903  17.0574551  26.5277309
  28.1991100  16.5134964  27.5658531  29.1307926  16.3640251  25.5125656
  29.3602848  16.8718967  24.6702461  29.0505505  14.9175911  25.3800926
  29.4362335  14.7364063  24.3768330  30.0290661  14.3902454  26.4356194
  29.6269779  14.5708046  27.4325256  30.0415821  13.3011055  26.3941841
  31.4730301  14.8725424  26.4208469  31.5369091  15.9307756  26.6741505
  31.9153957  14.2145729  27.1688385  32.2500763  14.5364208  25.1023941
  31.6946278  13.8003359  24.2996063  33.3855095  14.9816446  24.9557037
  27.6348019  14.2497473  25.4147530  26.6512222  14.9317446  25.0857506
  27.4922676  12.9848471  25.8276501  28.3411827  12.5019903  26.0851250
  26.2157898  12.3563137  26.0945053  25.5681515  12.3519526  25.2177792
  26.4157352  10.9104805  26.5275116  26.9112816  10.8332891  27.4952793
  25.4516087  10.4810467  26.7998104  27.1948338   9.9071569  25.5972290
  28.2284412  10.2388363  25.4985065  27.2512722   8.9799337  26.1674690
  26.5102310   9.6268148  24.2729759  26.4205494  10.6159725  23.8239498
  27.1622105   9.1452398  23.5442047  25.0877419   9.0656204  24.3254662
  24.5313282   9.7332640  24.9833088  24.7075710   9.1228895  23.3055191
  24.9192028   7.7559986  24.9400520  25.1221695   7.7855406  25.9290085
  24.0424328   7.3472757  24.6496716  25.5538502   7.1152434  24.4853516
  25.4233952  13.1336164  27.1661034  24.1803188  12.9936666  27.1310539
  25.9952583  14.0563803  27.9569588  26.9960632  13.9205265  27.9627628
  25.2490654  15.0129061  28.8133869  24.4794140  14.4217873  29.3096886
  26.2346249  15.6572819  29.9228439  25.7823772  15.7224207  30.9124565
  27.1156025  15.0166245  29.8836422  26.5995369  16.6292973  29.5909920
  24.4591179  16.1186638  28.1090622  23.7645569  16.8219414  28.8722649
  24.4470253  16.2966633  26.7511463  25.1251945  15.7446842  26.2456703
  23.6522808  17.2345772  26.0353012  24.0081215  18.2438183  26.2424450
  23.7603149  16.9686565  24.5074844  24.8026104  16.8932552  24.1975727
  23.2152462  15.6709204  23.9009495  22.1338253  15.7805166  23.9822655
  23.5380974  15.5768242  22.8641224  23.5945683  14.8150072  24.4591961
  23.2687187  18.0798683  23.6792049  23.6108189  19.0522385  24.0335522
  23.4908104  17.9340248  22.6220837  22.1840439  18.1283455  23.7752762
  22.1587315  17.2212124  26.3941517  21.4157867  18.1971264  26.5207920
  21.7217999  15.9701633  26.6843300  22.4384842  15.2585907  26.6731052
  20.3848705  15.5010643  27.1099129  19.7774944  15.9207144  26.3079853
  20.1800327  13.9888544  27.3216324  19.0927505  13.9133453  27.3367577
  20.6144714  13.1220646  26.1351242  21.6026630  13.4095469  25.7760525
  20.5694885  12.0967598  26.5023136  19.8144321  13.1177244  25.3948421
  20.6526241  13.4838037  28.6526432  20.1665573  12.5331268  28.8718567
  21.7405529  13.4177198  28.6646881  20.3253231  14.0273905  29.5389252
  19.9891148  16.2137222  28.3682156  18.8493729  16.2193146  28.6709309
  20.8266335  16.8997154  29.1939793  21.7989330  16.8683853  28.9223995
  20.4096794  17.5663719  30.3958817  19.4932194  17.1849232  30.8460999
  21.4780025  17.3032913  31.4340534  22.4208431  17.7213001  31.0813217
  21.1554489  17.8322983  32.3308334  21.7577419  15.9078302  31.9398479
  21.9069538  15.2286482  31.1004734  22.8933411  16.0113659  32.9012909
  23.2636585  15.1151648  33.3990707  23.7793388  16.2325058  32.3061371
  22.6704025  16.8112907  33.6073456  20.4955311  15.3589897  32.6541443
  19.6660595  15.3624096  31.9469910  20.6932831  14.3408594  32.9894142
  20.3411503  15.9838104  33.5338402  20.2296143  19.0726357  30.1660614
  19.6507702  19.7717323  31.0410881  20.4991646  19.5826950  28.9955730
  20.7504368  18.9283924  28.2683506  20.3904247  21.0260887  28.7240143
  20.7659321  21.3989849  29.6769276  21.2914524  21.3236885  27.5230904
  22.3053741  21.0285511  27.7932034  20.9251709  20.8224792  26.6271400
  21.2206116  22.8407822  27.2240639  20.1672859  23.0995331  27.1161175
  21.6205292  23.3417892  28.1056328  21.9551010  23.1988831  25.8924484
  22.3538704  24.2132435  25.8800106  22.8386154  22.5633183  25.8327351
  21.0634613  22.8741455  24.7633801  20.0992069  23.1523838  24.8769646
  21.3450813  22.1088848  23.7575550  22.5953922  21.7444229  23.4104805
  23.3818913  21.9702778  24.0025196  22.7074070  21.2713203  22.5251980
  20.4137383  21.6095142  23.0595531  19.4723625  21.7561169  23.3948574
  20.5881596  20.9533100  22.3118420  18.9340897  21.3819351  28.4816742
  18.2455654  20.7315731  27.7102547  18.3424339  22.2945576  29.2577934
  18.9471264  23.2004700  30.2860336  19.5811634  23.9562721  29.8225040
  19.5186882  22.6830978  31.0565815  17.7759037  23.9841328  30.9276333
  17.5745945  24.9146729  30.3969040  17.8956833  24.2428780  31.9796791
  16.6579037  22.9719238  30.7994537  15.6751451  23.4426594  30.8257618
  16.7017994  22.2031784  31.5709476  16.9174385  22.2838593  29.4728184
  16.4254341  21.3222523  29.6189117  16.1154938  22.9566936  28.3225937
  15.0063419  22.4865875  28.0985317  16.7693233  23.8496819  27.5475178
  17.7374077  23.9460430  27.8188648  16.2611294  24.6249084  26.4037952
  17.0775127  25.3081074  26.1695786  16.0929375  23.7496414  25.1421871
  15.5842266  22.8225479  25.4064121  15.3762169  24.1754913  24.4400024
  17.3624458  23.2689419  24.4643764  18.5121365  23.5932388  24.9008732
  17.3469181  22.4349213  23.5225601  14.9744930  25.5710220  26.6886311
  13.8858194  25.1941776  26.2055721  15.1953449  26.5804825  27.5871334
  16.1253986  26.8306789  27.8912792  14.1754360  27.3644505  28.2498779
  13.4312668  26.6205521  28.5343571  14.7048321  28.0903015  29.4829159
  15.5663471  28.7026482  29.2165985  14.0622816  28.8893871  29.8526344
  15.0525017  27.0514431  30.6179104  15.9075375  26.4502659  30.3087196
  15.6695738  27.8027515  31.7746143  14.9864120  28.5714760  32.1357994
  15.8443422  27.0795593  32.5712013  16.5873737  28.3315353  31.5174503
  13.9405327  26.2134991  31.1820049  14.2859793  25.6224728  32.0302048
  13.4468870  25.5392628  30.4821320  13.1471987  26.8870773  31.5060635
  13.6283941  28.3255806  27.1851521  14.3226061  28.6897449  26.2609253
  12.4791927  28.8721199  27.5162277  11.9525099  28.4378910  28.2606392
  11.8658161  29.9443283  26.6308346  12.6763783  30.6292400  26.3818645
  11.2152214  29.3055668  25.4271984  11.9731684  29.0180988  24.6985130
  10.7707129  28.3603153  25.7386665  10.3048706  30.1681671  24.8345413
   9.8298845  29.8391972  24.0678806  10.7700720  30.6241741  27.4955330
  10.0369587  29.8895245  28.0986710  10.6365881  31.9713917  27.4794903
  11.2609148  32.5551720  26.9414234   9.5351496  32.7291145  28.0546360
   9.5159025  32.4600029  29.1107178   9.7153921  34.2482643  28.0009003
   9.6994781  34.6645966  26.9936695   8.7969666  34.6657066  28.4136200
  10.8634129  34.8814316  28.7133884  11.7814217  34.4121666  28.3596249
  10.9828615  36.3840408  28.3935966  10.0175428  36.8864670  28.3317852
  11.5557070  36.3819466  27.4662647  11.6011820  36.8658867  29.1509666
  10.8885450  34.7323227  30.2999382  11.6725779  35.3230896  30.7736244
   9.9689932  35.1042862  30.7517853  11.1006708  33.6941795  30.5556164
   8.1420965  32.3486252  27.5022793   7.2433972  32.6343346  28.1993885
   8.0150328  31.6187763  26.3998260   8.7984228  31.5732212  25.7639599
   6.6999164  31.0201359  26.0020809   5.9617019  31.7854748  26.2416573
   6.5972757  30.8555775  24.5130482   7.3743577  30.1856613  24.1450024
   5.2767425  30.2292271  23.9678688   5.3391676  30.0921974  22.8883190
   5.1907072  29.2443123  24.4268265   4.4903307  30.9335079  24.2392693
   6.7676873  32.1012039  23.8823662   6.8602281  31.9956913  22.9326801
   6.3415947  29.7543221  26.7840710   5.2000070  29.5359020  27.0772572
   7.3377233  28.9015808  27.0019550   8.3196726  29.0913639  26.8610039
   7.1671095  27.7408600  27.8524704   6.1432123  27.3905945  27.7219009
   8.1503191  26.6079273  27.3810730   9.2042036  26.8674850  27.4814148
   8.0685511  25.7689590  28.0721226   7.8451104  26.0238609  26.0254555
   8.1464014  26.7547569  25.2750435   8.4186563  25.1086750  25.8785458
   6.3778119  25.7422276  25.7119370   5.9429135  25.1844635  26.5413132
   5.6949229  26.5872154  25.6238537   6.3536844  24.8953323  24.4301529
   6.9072394  25.3393021  23.6027660   6.8425570  23.9455338  24.6469116
   4.9513512  24.6175499  23.9883747   4.7266850  25.4092216  23.4028111
   4.7603431  23.8579426  23.3507099   4.3741808  24.4474678  24.7995758
   7.2546940  28.0840950  29.4005222   7.0067496  27.1417751  30.1652317
   7.6956344  29.2723541  29.8561878   7.9737391  29.9737129  29.1847286
   7.6391864  29.6257763  31.2991238   8.2275820  28.8505306  31.7899246
   8.3951159  30.9761581  31.3116550   9.4296923  30.8808327  30.9820137
   7.9148226  31.6939907  30.6467228   8.4360952  31.5624676  32.6777611
   8.7611504  30.9117565  33.6722260   8.3064623  32.8743973  32.8015594
   8.2525835  33.4399834  31.9665089   8.0881004  33.1848145  33.7375412
   6.2235675  29.7112217  31.8209114   5.3650355  30.1819782  31.0911636
   5.9703608  29.2944622  33.0696373   6.8298292  29.1178818  33.5698738
   4.6901040  29.2136421  33.8576317   3.9081593  28.6653194  33.3322716
   4.8837457  28.4830818  35.2148857   5.2651815  27.4623756  35.1871681
   5.7138247  29.2177677  36.2154045   5.5050259  28.8417130  37.2169456
   6.7913423  29.1171875  36.0852509   5.5413017  30.2939930  36.2244987
   3.6285477  28.3297901  35.7215996   3.7218969  27.7525368  36.4829559
   4.1149621  30.6303387  34.0615349   4.8149233  31.6193123  33.9220123
   2.8530114  30.7824707  34.4138412   2.4597285  29.9458618  34.8206749
   2.0677929  31.9793339  34.3314705   2.4744542  32.5487480  33.4957085
   0.6600789  31.6205158  33.9030190   0.7192504  31.0934868  32.9507370
   0.3164830  30.8221188  34.5607452  -0.3477000  32.7976036  33.8992081
  -0.8335451  32.8189430  34.8747063   0.1394537  33.7351646  33.6313171
  -1.4524766  32.5698395  32.8697510  -1.8428850  31.3651218  32.6109428
  -2.1214373  33.5621758  32.4390144   2.0430360  32.8584709  35.5955391
   1.9485700  32.3298721  36.7412529   2.2897520  34.1482201  35.4397736
   2.4710310  34.5140190  34.5159569   2.2518427  35.1191597  36.5952377
   1.3936485  34.8511810  37.2115097   3.5768869  35.1095467  37.3021927
   3.8776829  34.1044083  37.5976944   4.3474417  35.2805443  36.5504608
   3.6498322  35.9243584  38.5715790   3.4005458  36.9762802  38.4322205
   2.9099257  35.2892876  39.7272301   3.0286634  35.9179115  40.6097488
   1.8452371  35.1827049  39.5194359   3.2755775  34.2726021  39.8712730
   5.1335893  35.8543243  38.9415359   5.2466898  36.3061867  39.9269905
   5.4149160  34.8014259  38.9225731   5.7079597  36.4519119  38.2336540
   1.9976974  36.5028496  36.0762177   2.4216869  36.8182449  34.8865585
   1.4700555  37.3298302  36.8676224  30.9564171  45.4324303  48.0239258
  31.1407242  45.5712128  47.0406265  30.0347595  45.0354843  48.1383018
  30.9299984  46.4027596  48.3029594  32.0993156  44.6534843  48.5633163
  33.0633049  45.1048012  48.3285141  32.1379967  44.6005478  50.1195946
  32.0880165  45.5906334  50.5727348  31.2517700  44.0282440  50.3937645
  33.3870087  43.9807777  50.6208954  33.2100487  42.9062881  50.6684113
  34.1978264  44.0606461  49.8968124  34.0889320  44.5750961  52.1981964
  34.6260567  46.2656326  51.8703156  33.9287758  46.8358002  51.2564697
  34.7536774  46.8159523  52.8024979  35.5885201  46.2871742  51.3591385
  32.0853119  43.2731438  47.9887848  31.0042439  42.6554260  48.0282402
  33.2422714  42.8053017  47.5576820  34.1163292  43.3098755  47.5967598
  33.4121628  41.4334831  47.0941353  32.7263718  41.2743301  46.2619934
  34.7959328  41.2140007  46.5019531  34.9834557  41.9626007  45.7321930
  35.5614891  41.3312302  47.2689476  35.0764236  39.8914642  45.9423790
  36.0839844  39.8982849  45.5265961  35.1057167  39.2846870  46.8474007
  33.8670006  39.1760559  44.7939415  34.6351891  37.6611290  44.3341866
  33.8759155  36.9431152  44.0242424  35.3513031  37.9023094  43.5486221
  35.0873680  37.2453842  45.2346268  32.9729042  40.4029007  48.2145920
  33.0009460  40.7664185  49.3924980  32.7572594  39.1633720  47.8041344
  32.8987999  38.8874550  46.8429146  32.4405136  38.0795364  48.7275696
  32.6785126  38.4110794  49.7382851  30.9779091  37.7683487  48.8107262
  30.8364525  37.0620346  49.6287804  30.1510601  39.0887260  49.1152802
  29.1897621  38.8104248  49.5472031  30.8250866  39.6798286  49.7352715
  30.0671444  39.5506592  48.1315765  30.3437004  37.0963402  47.6276703
  30.4057732  37.7331505  46.7452164  30.9326611  36.2056007  47.4090195
  28.8659191  36.6013680  47.7452812  28.8057899  35.7767639  48.4555740
  28.2440891  37.4112663  48.1267128  28.5287914  36.3584175  46.7375984
  33.2584419  36.7939682  48.3929443  33.5832100  36.5546074  47.1989632
  33.6642990  36.0721588  49.3718033  33.4100838  36.3380165  50.3124390
  34.7585030  35.0653496  49.2155724  34.6457787  34.5605774  48.2560959
  36.1399078  35.7140388  49.3386497  36.1624527  36.3056030  50.2538757
  36.8580551  34.8980370  49.4193611  36.5380516  36.5665131  48.1507912
  36.1315651  36.1718254  47.2196121  36.1609802  37.5455513  48.4464226
  38.1210823  36.5203514  47.9419975  38.5860100  36.8557816  48.8690491
  38.5907097  35.5427361  47.8333015  38.4229660  37.5017128  46.8764267
  38.5627289  38.4593315  47.1654396  38.1746941  37.2958031  45.5616150
  37.6136398  36.2361374  45.0840149  37.4401512  35.4249191  45.6601486
  37.4598618  36.1809616  44.0873146  38.3909340  38.2046356  44.7148094
  38.4078255  38.0170670  43.7225227  38.9573174  38.9648285  45.0632668
  34.6543541  33.9340897  50.2525215  34.4388580  34.2154236  51.4826927
  34.7426796  32.7528381  49.7359848  35.0936623  32.7919006  48.7897377
  34.4435997  31.5018234  50.5352669  33.8130684  31.6237583  51.4159851
  33.9928169  30.8029270  49.8306808  35.7786903  30.9994774  51.1499519
  36.7059784  30.7178745  50.3954659  35.7133789  30.7798557  52.4792938
  34.9010353  31.0363598  53.0218811  36.8762779  30.2002964  53.3011169
  37.8218269  30.3932705  52.7943611  37.0078392  30.8771000  54.6280899
  36.0635109  30.7988548  55.1668167  38.1182594  30.2648506  55.3942299
  38.4401016  30.9039364  56.2164764  37.7859879  29.3514500  55.8875771
  38.9588737  30.0675755  54.7289848  37.3034096  32.3279419  54.3727646
  38.3773041  32.4796410  54.2639618  36.8554153  32.6087914  53.4195976
  36.6188202  33.1958427  55.3282814  35.5639305  33.2656937  55.0628967
  36.6798515  32.7300529  56.3118553  37.0434265  34.1951714  55.2326088
  36.7411652  28.7494831  53.3824463  35.7143059  28.3506279  53.9637299
  37.8195343  27.9804096  53.1206436  38.6447945  28.4687958  52.8035851
  37.8729897  26.5196705  53.1315536  36.8720779  26.0883102  53.1460075
  38.6966858  25.9317856  51.8933029  39.5626984  26.5807476  51.7630539
  39.2683258  25.0306377  52.1152420  37.8736572  25.6890640  50.5723114
  37.5958405  26.6736813  50.1962166  38.5587883  25.2775803  49.8311119
  36.5746880  24.8773422  50.6906853  35.7777519  25.4230671  51.1958427
  36.1829720  24.4815559  49.7536621  36.8015709  23.6482964  51.5515900
  36.3516998  23.7203331  52.4529915  37.5111465  22.5723820  51.3178253
  37.9658585  22.3122177  50.1055298  38.6794205  21.5999012  50.0460854
  37.7658844  22.8649864  49.2842140  37.6505051  21.7047348  52.2368546
  38.0704193  20.8195572  51.9914246  37.4281578  21.7666130  53.2201309
  38.5710678  26.0136986  54.4324188  39.5460014  26.6198463  54.8755875
  38.0415764  24.9150810  55.0018120  37.1300659  24.5904427  54.7122231
  38.8958969  24.1606598  55.9120789  39.9357338  24.1616287  55.5852127
  38.7502098  24.6427612  56.8787498  38.5137062  22.7228966  56.0208511
  37.5557442  22.3079357  55.3667679  39.2428436  21.9838085  56.7962761
  40.0130692  22.4619331  57.2415314  38.9884605  20.6365471  57.0881996
  37.9151649  20.4592667  57.1568489  39.5337868  19.8334045  55.8845444
  40.6039124  19.6262932  55.8906326  39.2113113  18.8025150  56.0307732
  39.2657776  20.3513165  54.9636536  39.6791763  20.0768814  58.4011230
  40.6611557  20.6984119  58.8543854  39.2040863  18.9313412  58.9299545
  38.4025269  18.4865417  58.5059776  39.7692833  18.2645931  60.1855965
  40.8557968  18.2682972  60.0985794  39.3846092  18.8913593  61.5229111
  39.6336212  19.9524231  61.5073013  37.8594131  18.7730064  61.8970757
  37.5807190  17.7205791  61.8439331  37.6576767  19.2793617  62.8410072
  37.3206902  19.3306904  61.1310005  40.1837730  18.3698330  62.4983559
  40.2849731  19.0540428  63.1641006  39.4298363  16.8118668  60.1073265
  38.6945190  16.4143791  59.2704391  39.9021721  15.9229536  60.9700241
  40.4738808  16.3135471  61.7053413  39.5175743  14.4926977  61.0683975
  38.6017990  14.3004360  60.5093842  40.5664368  13.5247517  60.4691887
  40.3231354  12.5010099  60.7535439  40.5491905  13.5041342  58.9675636
  41.3443146  12.8757896  58.5662460  39.5849495  13.1536808  58.5994225
  40.7200661  14.5010662  58.5613327  41.9188156  13.7357969  60.7783661
  42.0521927  13.3115215  61.6291313  39.3625259  14.0225763  62.5124092
  39.8016663  14.7343397  63.4190254  38.7137794  12.8727255  62.6180153
  38.3585587  12.5048361  61.7470512  38.3232803  12.1936293  63.8746452
  39.0064316  12.5045538  64.6650467  36.8121223  12.5434151  64.2119980
  36.5756073  11.9610271  65.1025009  36.5418091  14.0263548  64.4822693
  35.5921707  14.1243534  65.0082779  37.2889633  14.3148251  65.2216187
  36.5467072  14.4263353  63.4683151  35.8974495  11.9142132  63.1553535
  36.0824051  12.3914814  62.1930084  35.9469414  10.8321724  63.0335426
  34.8658791  12.0505161  63.4799919  38.6188622  10.6862793  63.8366852
  38.4106979   9.9521179  62.8729553  39.0401344  10.1243792  64.9466858
  39.4411621  10.7632732  65.6183167  39.2439423   8.6693544  65.1488953
  39.6484146   8.1732903  64.2666092  40.1789017   8.4534931  66.3001709
  39.5557137   8.7282324  67.1511993  40.4053841   7.4066195  66.5023117
  41.5078163   9.1804762  66.3245544  41.2298965  10.2267151  66.4520340
  42.1494637   8.8552608  67.1434708  42.1209145   9.1559877  64.8784637
  42.7722244  10.2080841  64.4969330  42.1422310   8.0279741  64.2452011
  37.9297447   7.9173827  65.4786911  37.7530098   6.8145790  64.9647522
  37.0313492   8.5048323  66.2556458  37.1787643   9.4641409  66.5351181
  35.8740349   7.8036928  66.8613205  35.8107452   6.7477798  66.5983734
  35.8701057   7.8607249  68.4437866  35.7240028   8.9394398  68.4997330
  34.9215279   7.3988400  68.7175751  37.0397415   7.2587824  69.1557388
  36.9333916   6.1805134  69.0368805  38.0264969   7.5778537  68.8201599
  36.8071671   7.5173855  70.6599197  35.7602005   7.3424578  70.9076309
  37.3486290   6.8032765  71.2803726  37.1617966   8.8588991  71.0725479
  37.4495010   9.5153008  70.3608856  36.7803802   9.3544292  72.2527008
  36.2062645   8.6341667  73.2326126  36.1864014   7.6243634  73.2308655
  35.8490028   9.1508522  74.0234985  36.7465744  10.6503057  72.4972687
  37.0470734  11.3564062  71.8405914  36.3940582  11.0068579  73.3740234
  34.6068001   8.4145346  66.2771530  34.4700661   9.6294765  66.2757416
  33.6156006   7.6232810  65.8636169  33.7150307   6.6240735  65.9722290
  32.3432083   8.1118345  65.4182968  32.4602089   9.0633535  64.8996201
  31.8320999   7.1947694  64.3188934  32.6060562   7.2442784  63.5529709
  31.8690147   6.1737981  64.6988373  30.5068474   7.6898646  63.6170769
  30.1378059   8.8316193  63.8767471  29.8529625   6.9592881  62.8195572
  31.4447098   8.4206963  66.5864334  30.4988842   7.6644044  66.9700699
  31.7241249   9.5809717  67.2375412  32.5312843  10.0958147  66.9157791
  30.9436684  10.1344976  68.3317719  29.9003773   9.8299942  68.2485657
  31.3913288   9.4546108  69.6687546  31.3049526   8.3919058  69.4422684
  32.8456001   9.7285290  70.0632324  32.9041481  10.7774858  70.3536911
  33.2475281   9.1771841  70.9132767  33.5281754   9.5628023  69.2297287
  30.5730972   9.8058434  70.8075638  29.7319431   9.3663902  70.6628494
  31.0227585  11.6559906  68.3996506  32.0344238  12.2010260  68.0244827
  29.9430466  12.3394413  68.7949829  29.1245193  11.8700790  69.1552734
  29.8327217  13.8103857  69.0179901  29.8568287  14.3544340  68.0737762
  28.3730049  14.1740828  69.5850983  27.5970516  13.6349602  69.0416412
  28.2714272  13.6365423  70.5278778  27.9724712  15.6012020  69.7205658
  28.4810448  15.9718199  70.6105652  28.1622810  16.0719833  68.7559738
  26.5315342  15.7730637  69.9608307  26.1772957  16.4576950  71.0019302
  25.7466068  15.4495716  69.0401993  30.9087334  14.4299440  69.9605560
  31.3763905  15.5186186  69.6592636  31.4893436  13.6955462  70.9053574
  31.0965061  12.7681046  70.9804001  32.6176300  14.0226097  71.6702881
  32.4511833  14.9862728  72.1516953  32.9254227  12.9331417  72.6581573
  32.0769958  12.8513527  73.3375549  33.3209305  12.0448093  72.1656723
  34.0845871  13.2762470  73.6031799  35.0354919  13.1592340  73.0833817
  33.8592415  14.2068424  74.1240540  34.1250877  12.1576529  74.6882019
  35.1076813  11.3847132  74.8262405  33.1896591  12.0748644  75.4703903
  33.8845406  14.3368368  70.7785110  34.7120972  15.2101908  71.1183090
  34.0328903  13.6264973  69.6341476  33.3764229  12.8830986  69.4430695
  35.0090790  14.0373964  68.5780945  35.7278214  14.7056475  69.0523911
  35.6050453  12.8373241  67.9701691  34.8740005  12.2051935  67.4660950
  36.3093147  13.2309723  67.2372589  36.4017868  11.9560928  68.9103088
  35.7146645  11.5676413  69.6620178  36.9816246  11.2878313  68.2736664
  37.3824615  12.8197498  69.6747971  38.2008705  13.6058350  69.1640549
  37.3577003  12.8104992  70.9572449  34.3787460  14.9273891  67.5344086
  34.8894958  15.9972963  67.2843018  33.2902718  14.5218163  66.8475723
  32.8202057  13.6547098  67.0649719  32.8469200  15.2838345  65.7406845
  33.6662254  15.4391956  65.0387573  31.6954956  14.4855700  65.0476074
  30.8672237  14.4214602  65.7532654  31.1029358  15.1461411  63.8540955
  30.5655003  16.0466385  64.1513596  31.9363384  15.3682070  63.1875877
  30.3632145  14.5072269  63.3717003  32.0601158  13.0274334  64.7331085
  32.6887131  13.0294361  63.8426247  32.5623589  12.4226036  65.4881134
  30.7422886  12.2112751  64.4457703  30.9180336  11.2091599  64.8368988
  29.8947334  12.5856419  65.0198822  30.5697422  12.0759010  63.3780632
  32.3346786  16.6853371  66.0314713  32.7275543  17.6732750  65.3539810
  31.7657146  17.0404625  67.1972885  31.5656776  16.3868389  67.9408417
  31.4001617  18.3976936  67.5921860  30.7116356  18.7975121  66.8477554
  30.7160301  18.2782021  68.9969101  29.8568783  17.6213531  68.8608704
  31.3708839  17.7906685  69.7191162  30.2759418  19.6132183  69.6021042
  31.1208401  20.2913055  69.7222824  29.1371613  20.2208347  68.7009354
  28.4460487  20.8708096  69.2375946  29.5412636  20.8373661  67.8980026
  28.5195198  19.4224033  68.2896805  29.5816479  19.3783092  70.9201431
  30.3194027  18.9443378  71.5950470  29.4265614  20.3712540  71.3421783
  28.7326775  18.6971436  70.8621674  32.6390610  19.3014030  67.7839355
  32.6981659  20.4274273  67.2466431  33.5381584  18.8900375  68.6462631
  33.2878990  17.9609184  68.9531937  34.6376915  19.6583710  69.2077408
  34.2138824  20.6058559  69.5405502  35.3944702  19.0533257  70.4078293
  35.8638344  18.1206970  70.0947723  36.2125740  19.6438141  70.8202972
  34.3460503  18.6455059  71.4881439  33.6200790  17.9815483  71.0188599
  34.7966347  18.0383415  72.2732697  33.7530899  19.7238426  72.2962494
  34.1353302  20.9303894  72.2586975  32.6602859  19.3649483  72.9560318
  32.3534050  18.4094677  72.8420868  32.4117012  19.9871750  73.7117691
  35.6671638  19.8746281  68.1268311  36.1648788  20.9857082  68.1504440
  35.9903831  18.9225769  67.2504883  35.6100311  18.0115452  67.4636917
  36.9577179  19.1963463  66.1986084  37.8650208  19.6875477  66.5502167
  37.5279121  17.8652706  65.6908188  36.6665192  17.1973591  65.6893845
  37.9027214  17.9834499  64.6741333  38.6353912  17.2653713  66.5736771
  38.1435089  16.9538383  67.4951401  38.9337502  16.3325825  66.0951462
  39.8324509  18.1864052  66.8786240  40.2911682  18.6404743  66.0002670
  39.6058617  18.9709930  67.6005478  40.9449539  17.3811131  67.6010132
  40.3788452  17.0010376  68.4514084  41.2751884  16.5744495  66.9465408
  42.0426941  18.3298492  68.1286469  42.6026154  17.9498444  68.8784332
  42.5558014  18.4697781  67.2700119  41.7018318  19.1754189  68.5633011
  36.4346771  20.1226330  65.1460190  37.1625786  20.9624348  64.6657181
  35.1787148  19.9968243  64.8117218  34.5976639  19.2487621  65.1622696
  34.4885406  21.0362377  64.0251541  34.9483528  21.0701199  63.0374641
  33.0363426  20.7067509  63.8149986  32.6549873  20.8102360  64.8308487
  32.3795700  21.6420078  62.8464432  31.3847485  21.2608566  62.6158791
  32.1907349  22.5901623  63.3498802  32.9611626  21.9574986  61.9802361
  32.7335129  19.3209515  63.4936409  32.8685074  18.7616711  64.2621384
  34.5508347  22.3796902  64.7038116  34.9932404  23.3324070  64.0844727
  34.1345100  22.4554195  66.0142670  33.5434265  21.7589722  66.4451752
  34.2130699  23.7784576  66.7092819  33.5953255  24.5042381  66.1803818
  33.6004066  23.6311436  68.1435242  32.5787354  23.2914677  67.9735031
  34.1331177  22.9030762  68.7552719  33.7293091  24.9886055  68.8049927
  34.7594223  25.1780472  69.1067810  33.3523293  25.7041645  68.0742569
  32.7819138  25.1364079  69.9558487  31.7970886  24.7501163  69.6931763
  33.1292305  24.5801430  70.8265076  32.7011299  26.5169659  70.5761871
  32.6626358  27.1825275  69.7138367  31.7151012  26.4741573  71.0388031
  33.7899284  26.8083363  71.5181198  33.6700516  27.7532253  71.8541489
  33.6937790  26.1703587  72.2951965  34.7137909  26.7720184  71.1116028
  35.6108742  24.4091873  66.8049469  35.7910042  25.6146336  66.5992355
  36.6503601  23.6191788  67.1054535  36.5367279  22.6542015  67.3811493
  38.0478668  24.0535545  66.9426346  38.0344391  24.9092236  67.6177292
  38.9980812  22.9349403  67.4141083  38.6472778  21.9721603  67.0425034
  39.9924126  23.0472393  66.9819107  39.0731544  22.6547852  68.9630432
  39.4574432  23.6089420  69.3236084  38.1029396  22.3102627  69.3209381
  40.0229874  21.5432129  69.4344635  40.9299202  21.0415287  68.7577591
  39.7317047  21.0956440  70.6499786  40.1104126  20.2641010  71.0803452
  39.2343254  21.6564255  71.3269119  38.4344139  24.5883007  65.5415878
  39.0154037  25.6890869  65.5327377  38.0993004  23.8480053  64.4547043
  37.7410393  22.9164848  64.6096802  38.2650871  24.2070522  63.0224800
  39.3153381  24.3980732  62.8020744  37.7184830  23.1024685  62.1631966
  38.3473396  22.2428265  62.3948326  36.6659126  22.8515015  62.2943954
  37.7697525  23.5512409  60.7264824  37.1865273  24.4648647  60.6114044
  39.1226044  23.6875095  60.0559883  39.1758652  23.9807148  59.0075188
  39.5030556  24.5955811  60.5237122  39.8532410  22.9004135  60.2423859
  37.0751801  22.4070759  59.9782677  36.0249977  22.5420704  60.2371063
  37.1418610  22.7386723  58.9420738  37.3860664  21.3873272  60.2053375
  37.5669060  25.5891151  62.8283768  38.2897949  26.5784321  62.4670715
  36.3688049  25.7560005  63.3468056  35.9120674  24.9739151  63.7938347
  35.6153336  26.9732418  63.0700951  35.7704468  27.2791653  62.0354691
  34.0781898  26.7086430  63.4178429  34.0156822  26.3869057  64.4573975
  33.5587883  27.6661129  63.4575539  33.2070999  25.7658005  62.5593796
  33.6270218  24.7605820  62.5233345  31.7730789  25.7257061  63.1503563
  31.9450912  25.3062325  64.1416016  31.3403797  26.7260399  63.1359978
  31.2610073  25.0664463  62.4494553  33.0888062  26.3132782  61.1250114
  34.0866089  26.5352325  60.7465477  32.5950012  25.5731010  60.4954109
  32.4830170  27.2132034  61.2311020  36.1894569  28.1389637  63.8831940
  36.3433037  29.2689838  63.4279594  36.6849098  27.9556408  65.1106491
  36.5863724  27.0491505  65.5450058  37.2857780  29.0072498  65.8428802
  36.6394768  29.8815479  65.9203568  37.4141235  28.6239872  67.2951355
  37.8262672  27.6164761  67.3513565  38.0747108  29.3166695  67.8165970
  36.0382347  28.6615200  67.9469223  35.5623436  29.6420670  67.9592896
  35.3717422  27.9354687  67.4813766  36.2738113  28.4012966  69.4865417
  35.9919205  27.2954159  70.0639496  36.5859413  29.4088497  70.1959686
  38.6348114  29.5237083  65.3186264  38.9102325  30.7096405  65.3999405
  39.4188194  28.5788803  64.7265320  39.0805855  27.6274548  64.7485886
  40.6867790  28.8333168  64.0791931  41.2485809  29.5266228  64.7051392
  41.4688911  27.4920406  63.9992790  41.4276772  26.8666058  64.8910370
  41.0019875  26.8838902  63.2245216  42.9279671  27.7235031  63.6669807
  43.3566437  26.7258167  63.5723305  42.9542465  28.2910824  62.7367859
  43.9144440  28.3808212  64.6195450  44.8800201  28.2753105  64.1249390
  43.6746292  29.4305840  64.7886353  44.0369530  27.6315250  65.9281158
  43.1915054  27.9700108  66.5270691  43.9736214  26.5672474  65.7013931
  45.2693367  27.8389969  66.6572113  45.2895164  28.8155899  66.9140320
  45.3719521  27.2328358  67.4585419  46.0446053  27.6760025  66.0307159
  40.4155998  29.4210739  62.7067108  41.1821442  30.3258381  62.3140678
  39.3224335  29.0986576  61.9503479  38.6229630  28.4621716  62.3049316
  39.0113029  29.8640060  60.7400208  39.9316406  29.8700409  60.1560287
  37.8453827  29.0833321  60.0241013  37.0505257  28.7598152  60.6961517
  37.3113976  29.9763050  58.9276505  36.9482346  30.9116669  59.3534622
  38.0538712  30.2130356  58.1655502  36.4787025  29.4504738  58.4605064
  38.4066086  27.8308258  59.3038521  38.9742737  28.1546555  58.4315071
  39.1808281  27.3755684  59.9214516  37.3810577  26.8107281  58.7409325
  37.0557747  27.2110081  57.7806892  37.8457527  25.8323517  58.6187134
  36.4693184  26.6781406  59.3233871  38.6341934  31.3545513  61.1623001
  38.9454918  32.2913513  60.4436111  37.7260208  31.4890404  62.1706543
  37.5014687  30.6349201  62.6607094  37.2423325  32.7869301  62.6247635
  36.7773170  33.4120293  61.8624535  36.1787987  32.6026268  63.7019272
  36.5972977  31.9254551  64.4465027  35.9744415  33.8253174  64.5438843
  35.9102974  34.7571106  63.9819679  35.1237068  33.6758881  65.2087326
  36.7865143  33.9493179  65.2602921  34.8449631  32.0392838  63.1127586
  34.3705292  32.7959900  62.4879303  35.1740608  31.1957359  62.5059395
  34.0016060  31.3168049  64.1655960  33.1993828  30.8346539  63.6069641
  34.5640678  30.5298157  64.6679764  33.5535660  31.9260006  64.9506073
  38.4172020  33.6126938  63.2075500  38.3871117  34.8311081  63.0944519
  39.4614258  32.9400101  63.7577629  39.3022995  31.9692688  63.9867516
  40.7034950  33.5940781  64.2244415  40.3499489  34.4275589  64.8314133
  41.4601746  32.5633240  65.0343704  40.8186111  32.2388458  65.8536453
  41.7440033  31.7639542  64.3498611  42.7118225  33.1148567  65.7862930
  43.2902145  32.3000259  66.2217407  43.3785553  33.5859833  65.0640717
  42.3376350  34.1361542  66.7741318  42.0988121  35.3056602  66.3520050
  42.2948837  33.7414894  67.9694290  41.5222130  34.2240906  63.0308990
  41.9067192  35.3499985  63.0465431  41.9785919  33.3623238  62.1416473
  41.8013611  32.3714485  62.2244530  42.8287811  33.7453003  61.0746460
  43.6781769  34.1758614  61.6049690  43.2689972  32.5041580  60.2077332
  42.3314133  31.9644299  60.0745850  43.6492500  32.7720299  59.2219582
  44.2245369  31.5103054  60.9871025  43.7706032  31.2279358  61.9370041
  44.3955307  30.6011906  60.4105759  45.5805473  32.0741348  61.2727203
  46.3140259  31.3168468  61.9437332  45.9628716  33.2548218  60.9208832
  42.3137703  34.7601204  60.1330605  42.9956055  35.6922188  59.7559586
  41.0782433  34.5135880  59.6897316  40.6199455  33.7239876  60.1217003
  40.2801476  35.2410278  58.7256660  40.8992844  35.6649971  57.9350815
  39.2537613  34.3383827  57.9531784  38.4653244  33.9845238  58.6174431
  38.6620102  34.9223976  57.2482986  39.9268188  33.1746559  57.1814461
  40.2440224  33.2243958  55.9892883  40.1529007  32.1444702  57.9360046
  40.6311035  31.4306450  57.4050827  39.7834358  32.1337624  58.8759422
  39.5336266  36.3747177  59.4461594  38.8583145  37.1913223  58.7454910
  39.6561165  36.5499611  60.7717514  40.3170624  35.8652420  61.1099930
  39.0586357  37.5268669  61.6935806  39.2989960  37.0482788  62.6429367
  39.8832703  38.8677292  61.6553001  39.6745682  39.4103127  60.7332611
  39.3974953  39.5554008  62.3475685  41.4255028  38.9466133  61.7911377
  42.1268082  38.4838753  62.8736572  41.8977737  37.9264908  63.6841888
  43.3548164  38.9207001  62.7560234  44.1360817  38.6996994  63.4681892
  43.4090118  39.7859230  61.7492294  44.1364212  40.4447670  61.5106773
  42.1991882  39.7607994  61.0421448  41.8975182  40.2856598  60.1477623
  37.5303497  37.6862106  61.5932846  37.0539703  38.8041878  61.6797447
  36.7975616  36.6821861  61.1701164  37.2450867  35.7922096  61.0034828
  35.3920555  36.7727585  60.8079834  35.2469139  37.5107117  60.0190201
  34.9166412  35.3667946  60.2769012  35.2123375  34.6305161  61.0242729
  33.3643913  35.3163033  60.1716080  32.8024178  35.4048958  61.1013565
  32.9801674  36.1485329  59.5818062  33.0783463  34.4042320  59.6477699
  35.5576057  35.0516014  59.0820885  35.4625359  35.7547112  58.4354057
  34.5588188  37.1690941  62.0101204  34.5216179  36.4999199  63.0514641
  33.7148476  38.2400436  61.8684387  33.5877113  38.5798187  60.9258423
  32.6265030  38.5414429  62.7954750  32.8885002  38.0470963  63.7309380
  32.5615387  40.0535851  62.9905510  32.3309059  40.3851204  61.9781303
  31.7208977  40.3076134  63.6362267  33.8432121  40.7343864  63.5687675
  33.9483948  40.5765114  64.6421356  34.6916847  40.3382645  63.0108376
  33.7337837  42.2216568  63.3519707  34.6664124  42.6867371  63.6713486
  33.5370522  42.4842529  62.3125267  32.5497208  42.8297997  64.1599655
  31.6525059  42.2267609  64.0204849  32.9228973  42.7208672  65.1782837
  32.3055038  44.2696266  63.7826385  32.1555824  44.3810234  62.7900620
  31.4096622  44.4778976  64.2000122  32.9678879  44.9162445  64.1866608
  31.3757553  38.0310173  62.1025047  31.4996643  37.8920784  60.8894501
  30.3423977  37.5980225  62.8476524  30.2609196  37.5963783  64.2796783
  30.5534306  38.5643005  64.6866989  30.8618889  36.8054390  64.7284012
  28.7773533  37.3438416  64.6838150  28.3298283  38.3369713  64.7227173
  28.7371044  36.9210167  65.6876526  28.3541279  36.4967422  63.5242157
  27.2724323  36.4925041  63.3899803  28.8246059  35.5160408  63.5947342
  29.1660748  36.9484329  62.3366203  29.3810101  36.0806656  61.7130165
  28.4022503  37.8595810  61.3202209  27.9398155  37.3372955  60.2806053
  28.2886200  39.1925507  61.5248184  28.7614689  39.6201286  62.3082047
  27.4454651  40.0195808  60.6414375  26.4321594  39.6200829  60.6828232
  27.3672256  41.4327545  61.1637573  27.2398663  41.3890228  62.2454071
  28.3201504  41.9152565  60.9464378  26.3113556  42.2636795  60.5017090
  26.6267166  42.6095695  59.5173264  25.4303455  41.6686745  60.2611046
  25.8389492  43.5120201  61.1935692  26.5983734  44.4160004  61.4888229
  24.6054077  43.5562935  61.4321518  27.7705021  39.9451180  59.2114944
  26.9840736  40.0238838  58.3079262  29.0783882  39.8768883  58.9406471
  29.6905937  39.7991676  59.7401886  29.7731647  39.8363838  57.6251335
  29.3381805  40.4825020  56.8626213  31.1583710  40.3499832  57.7901268
  31.6509438  39.9264526  58.6653938  31.7844753  40.2593880  56.9025002
  31.2513733  41.8517914  58.0462646  32.1944542  42.4554901  57.5273895
  30.3899422  42.4474564  58.6475677  29.8095760  38.4840889  56.9947052
  30.3390160  38.3011055  55.8990059  29.1654148  37.4200020  57.4678497
  28.5540009  37.6731262  58.2308731  28.9262886  36.1096191  56.8838158
  29.8053780  35.8867493  56.2791328  28.7005482  34.9635544  57.9165077
  27.7279930  35.1010513  58.3891029  28.8034573  33.5643501  57.2446938
  27.9969864  33.5206299  56.5127144  29.7796745  33.3668404  56.8018723
  28.7078285  32.7460098  57.9583321  29.8050423  34.8062019  58.9542999
  30.7847672  34.6794128  58.4936905  29.8738575  35.6975212  59.5779266
  29.5576057  33.9605865  59.5960236  27.7493057  36.2108078  55.8923798
  26.6780682  36.6540375  56.2632332  27.9871712  35.8272057  54.5820007
  28.8608265  35.4301605  54.2670708  27.0421677  35.5864830  53.5396233
  26.3943672  36.4611931  53.4818649  27.7283154  35.4880867  52.1578827
  28.3487949  34.5936127  52.1028328  26.6782207  35.3307877  51.0034523
  26.2695103  34.3231506  51.0791092  25.8108349  35.9766846  51.1397133
  27.0809860  35.3247871  49.9906120  28.6047764  36.6710930  51.9614906
  29.5192642  36.5542946  52.5430183  28.8715248  36.7943459  50.9118462
  28.0725441  37.5796967  52.2430420  26.2020741  34.3665237  53.8327179
  24.9682579  34.5309372  54.0905190  26.7853508  33.1950035  53.8884163
  27.7936993  33.2062950  53.8317871  26.1823158  31.9275684  54.3919106
  25.7004566  32.1287346  55.3486977  25.2750893  31.3240623  53.2642059
  24.7171040  30.4722576  53.6530228  24.5959740  32.1501579  53.0533333
  26.0286617  30.8949451  51.9528427  26.9716549  31.4376450  51.8869362
  26.2428303  29.8263092  51.9685783  25.1728363  31.2283096  50.6910248
  24.0991192  31.8356285  50.7471809  25.6619167  30.8510818  49.5177307
  26.5200901  30.3285027  49.4150162  25.1191387  31.2527847  48.7666473
  27.3476677  30.9080029  54.5275459  28.4360027  31.2677612  54.1604919
  27.1246185  29.6994324  55.0206070  26.2300339  29.3823395  55.3659668
  28.1190262  28.6601620  55.2756348  28.9535255  29.0311604  54.6805954
  28.4097500  28.6147194  56.7918015  28.4911442  29.6015091  57.2475739
  27.6442394  28.0102310  57.2783089  29.7199802  27.8933659  57.1073189
  29.7765465  26.9442120  56.5743904  30.5703030  28.4516716  56.7157249
  29.8975983  27.5457916  58.9026566  29.9572887  29.1978168  59.7145424
  29.0590096  29.7999573  59.5780830  30.0754185  28.9538250  60.7702942
  30.8637695  29.7237282  59.4148674  27.6377964  27.2961369  54.7585907
  26.3800125  27.0519905  54.6886635  28.5695229  26.4046574  54.5711937
  29.5515385  26.6260662  54.6531792  28.4142895  24.9710217  54.3219528
  27.4998474  24.6561661  54.8247108  28.3763027  24.7709541  52.7726212
  27.4130192  25.1747379  52.4609451  29.1715221  25.3217697  52.2702980
  28.4616127  23.3643608  52.1796188  29.1145630  22.7070808  52.7538452
  27.0660305  22.6568966  52.0993538  27.1428509  21.5748177  51.9930344
  26.5261593  22.6982231  53.0453644  26.4562492  23.0675526  51.2946014
  29.0690403  23.4584255  50.7558098  30.0499229  23.9253311  50.8450508
  29.1522179  22.4728832  50.2976723  28.3582840  23.9786091  50.1136742
  29.4886703  24.0811481  54.9704514  30.6422005  24.3088188  54.9121513
  28.9754467  23.0073566  55.5806274  27.9692631  22.9210968  55.5965843
  29.8342800  21.9032536  56.0283279  30.8754330  22.1830387  55.8676414
  29.5880013  21.6930523  57.5665054  28.5848732  21.4012222  57.8774185
  30.0726528  20.7897968  57.9371033  30.0757427  22.9764805  58.3461952
  30.3673782  23.7191525  57.6035690  28.9316673  23.5540524  59.1861267
  28.4516983  22.7463131  59.7386551  29.3079586  24.3081551  59.8773804
  28.1450157  23.9610500  58.5508041  31.1611710  22.6387882  59.4044151
  31.6153316  23.4709034  59.9423943  30.7183743  22.0160275  60.1817207
  31.8782310  22.0480556  58.8343658  29.6051769  20.6228333  55.1756973
  28.6302319  20.5270958  54.4135361  30.3977470  19.5794144  55.4692192
  31.0106087  19.6177273  56.2711143  30.4145393  18.2826443  54.7942009
  29.3987999  17.9344196  54.6068077  31.1028481  18.3770447  53.4313087
  30.8146191  19.2228203  52.8070526  32.1755714  18.5251751  53.5555153
  30.8931808  17.2348137  52.7209778  31.4342461  17.3562279  51.9373207
  31.1491737  17.2079391  55.6090050  31.8843842  17.6244030  56.5580063
  31.0018806  15.9356909  55.2986031  30.4829521  15.7792349  54.4463463
  31.5528679  14.7463074  55.9772720  32.5190048  14.9490519  56.4394150
  30.4325848  14.4894848  57.0129738  29.4318542  14.4146395  56.5874939
  30.6823826  13.5618343  57.5279160  30.3068466  15.3356466  57.6884804
  31.6497612  13.5068264  55.1164703  30.9023361  13.3253479  54.1593475
  32.6755600  12.6427765  55.3219223  33.4119415  12.8994427  55.9637642
  32.8341408  11.3550348  54.6595535  32.8714218  11.4656763  53.5758171
  34.1578636  10.6595907  54.9480095  34.0929337   9.5945024  54.7255859
  35.1298294  11.2737904  53.9658089  35.4109268  12.2402878  54.3840981
  35.9354248  10.5400572  53.9383621  34.7924156  11.3731050  52.9341202
  34.5907249  10.8761368  56.2333450  34.2008934  10.1812868  56.7689018
  31.6720219  10.3796434  54.8949471  31.0840015  10.3359385  55.9756851
  31.2864552   9.5083542  53.9174843  31.8845005   9.3499975  52.5939636
  32.9361725   9.0686760  52.6482124  31.6629124  10.2634592  52.0420647
  31.1959610   8.1473961  52.0286369  31.8013592   7.2617965  52.2217827
  31.0609531   8.1979570  50.9482117  29.7968273   8.0211039  52.6423035
  29.4154911   7.0064659  52.7571869  29.0953846   8.6335535  52.0757484
  30.0694637   8.5416250  54.1162186  29.2936783   9.1760130  54.5449448
  30.2059917   7.4914145  55.1903000  29.4843330   6.5010643  55.2803650
  31.2886124   7.5683913  55.9859352  31.9290295   8.3327408  55.8255119
  31.5890026   6.7804418  57.1764908  31.0819473   5.8244948  57.0454979
  33.1181412   6.4356294  57.2890396  33.3811417   5.8887587  58.1945038
  33.5530014   5.8182244  56.5030289  34.0094719   7.6572900  57.1624947
  35.2178650   7.5407367  56.8855438  33.5738220   8.8042746  57.3486443
  31.0696869   7.1729307  58.5224686  30.5972424   6.2850561  59.2723427
  31.0728207   8.4675026  58.7596054  31.6023922   9.0119896  58.0938835
  30.5445805   9.1320343  60.0094910  30.8862247   8.5642099  60.8749123
  31.2282581  10.4912996  60.1437149  31.0773201  10.9748602  59.1785774
  30.7667141  11.0067902  60.9859390  32.7436752  10.4298267  60.3565826
  33.1863022   9.6106329  59.7899246  33.3686104  11.7077742  59.8396988
  32.9518204  12.6437588  60.2116280  34.4431381  11.6438351  60.0111771
  33.1417389  11.8112030  58.7785988  33.0222321  10.2118597  61.8670616
  34.0473938   9.8592129  61.9801025  32.7966423  11.0717916  62.4977188
  32.4938583   9.3517485  62.2783203  28.9625950   9.0632839  60.1223221
  28.2543106   9.3612690  59.1614571  28.5290432   8.6602306  61.2755890
  29.1581268   8.2537823  61.9531975  27.0949726   8.5659227  61.6256599
  26.4909821   9.0484037  60.8572083  26.7019730   7.0690479  61.6850967
  27.2668419   6.5580487  62.4647789  25.6328335   7.0181918  61.8911400
  27.0035763   6.3508592  60.3864517  26.6392345   6.7881484  59.1103592
  26.0070076   7.5522537  58.9192238  27.0848541   5.8791575  58.2403564
  26.9551888   5.9280620  57.1692848  27.8988800   5.0656114  58.8822021
  28.6073551   4.4521413  58.5056152  27.9113846   5.3983831  60.2113266
  28.3756561   4.9340596  61.0687943  26.5451202   9.2559710  62.8178558
  25.3736763   9.5452099  62.7856560  27.3324280   9.4824944  63.8718758
  28.2958107   9.1892891  63.7942467  26.8257465  10.0458059  65.1570053
  26.0914440   9.3527975  65.5676727  27.9241486  10.0535641  66.1756287
  28.7168884  10.6963406  65.7928848  27.4272289  10.2265148  67.1302338
  28.3237934   9.0395327  66.1867447  26.1077213  11.3996658  65.0599976
  25.0102863  11.5429735  65.5387802  26.6096497  12.3313751  64.1779099
  27.3993092  12.0849829  63.5984039  25.9355221  13.6400032  63.9522438
  24.9007244  13.3480797  63.7731438  26.2508793  14.4672966  65.2450180
  26.0916557  13.8354111  66.1187897  27.6793003  14.9449215  65.5126877
  28.4670334  14.2246876  65.2916641  27.8325596  15.8696327  64.9563370
  27.6104832  15.1395435  66.5829620  25.2995243  15.6342373  65.5190735
  25.3649330  15.7719450  66.5983658  25.6411114  16.5308990  65.0019531
  24.2955132  15.3269806  65.2264023  26.4416943  14.4153967  62.7121658
  27.5205460  14.1737919  62.1516991  25.7633133  15.4784203  62.3936539
  24.9431171  15.7078800  62.9365425  26.2988586  16.3766060  61.3940125
  26.7866688  15.7754469  60.6267128  25.1673355  17.3819942  60.8670158
  24.7696781  17.9830322  61.6847687  25.5704994  18.0322132  60.0906219
  23.8356609  16.7720547  60.3321457  22.8141727  16.5032806  61.1650658
  22.8360863  16.8109512  62.2000809  21.5873089  15.8271532  60.7787590
  20.8341465  15.5814199  61.5127640  21.5831661  15.2974138  59.5417480
  20.7276287  14.7334175  59.2006340  22.5933170  15.5101633  58.6086845
  22.5474281  15.0645523  57.6259727  23.7115574  16.3031330  59.0252457
  24.6195431  16.4097519  58.4502678  27.3505096  17.2934513  62.0368004
  27.0556507  17.8258114  63.0912247  28.4952755  17.6582146  61.3829231
  28.9393940  17.0838776  60.1273880  28.1116638  17.2112541  59.4297218
  29.1659298  16.0243282  60.2462769  30.1863995  17.7734222  59.5550308
  30.0447044  18.1050758  58.5264244  31.0420666  17.0981941  59.5537834
  30.4699554  18.8440475  60.6160240  30.4640656  19.8811607  60.2806740
  31.4577808  18.5386391  60.9610252  29.5087051  18.6457653  61.7714272
  30.0979061  18.2857132  62.6148186  28.8527584  19.9724140  62.1824341
  29.2564754  20.6494827  63.1426697  27.7178345  20.3302517  61.5016479
  27.3440895  19.7657127  60.7521744  27.0434132  21.5526924  61.7220955
  27.7242355  22.3737869  61.4976349  25.9259434  21.6321926  60.6197166
  26.2693081  21.9723415  59.6427269  25.3551235  20.7077579  60.5320244
  25.2436237  22.4106236  60.9611588  26.4611912  21.8211536  63.0747070
  26.1959858  22.9447594  63.3753586  26.3522625  20.8259220  63.9862747
  26.6246929  19.8994389  63.6904564  25.9729404  21.0373688  65.3785934
  24.9818249  21.4867516  65.4406128  25.8737259  19.6592293  66.0180969
  25.3565598  19.0074635  65.3139420  26.8332653  19.1715870  66.1901093
  25.1699142  19.7270794  67.3584137  25.8926849  20.1054573  68.0812759
  24.2145691  20.2480946  67.2954941  24.8493347  18.3073177  67.8568497
  24.1677456  17.8662319  67.1295395  25.7860889  17.7545166  67.9275665
  24.1386070  18.3241501  69.2257156  24.9376831  18.5820827  69.9207306
  23.3795319  19.0995007  69.3293228  23.5974808  17.0500755  69.6583023
  24.3614826  16.3900681  69.6864548  23.0231438  17.0990601  70.4876633
  23.0277805  16.6358185  68.9344635  26.8894711  22.0171452  66.1586533
  26.4866085  22.5018597  67.1808777  28.0779152  22.3211479  65.6675491
  28.2675476  22.1131172  64.6975708  29.0958900  23.1701126  66.3143082
  29.2472267  22.8693962  67.3510132  30.3858833  22.8396969  65.6103897
  30.7597542  21.8283195  65.7698593  30.1499596  22.7440052  64.5505371
  31.1475506  23.5778942  65.8614578  28.8470478  24.7465801  66.3661270
  29.4773922  25.4887428  67.1010437  27.9114761  25.1860104  65.5316620
  27.3953152  24.5554943  64.9348984  27.8814583  26.6325569  65.2483215
  28.9019680  27.0117359  65.1945343  27.3774738  27.0642605  63.8563385
  26.5203266  26.4956264  63.4957047  26.8622074  28.5303383  63.7654419
  26.0225029  28.8439541  64.3856277  27.6856422  29.2018471  64.0086136
  26.5403042  28.6606007  62.7322311  28.4276752  26.9854279  62.7547188
  27.9523773  27.1349773  61.7852745  29.1749840  27.7714844  62.8630753
  28.9934158  26.0555592  62.8129654  27.1518383  27.2960663  66.3941116
  27.4303417  28.3947430  66.7552261  26.1800880  26.6232185  66.9883728
  25.9537086  25.7717896  66.4944916  25.3560905  27.0676403  68.1868134
  24.7201900  27.9016151  67.8898010  24.5205860  25.9109840  68.6258698
  24.0152779  25.4644108  67.7695160  25.2046661  25.1625099  69.0257721
  23.4004364  26.3121681  69.5534439  22.9514046  25.3517132  69.8064194
  23.6397514  26.7725639  70.5120163  22.3754425  27.1889877  68.8255386
  21.6731853  27.6494617  69.5204544  22.9199219  28.0325298  68.4011841
  21.5629005  26.4214497  67.9230270  20.7677898  25.9750843  68.3573837
  21.4693851  26.5120087  66.6139832  22.0521431  27.4351273  65.8957062
  22.5246525  28.1772957  66.3917160  22.2214298  27.3320160  64.9053497
  20.7583218  25.6710835  66.0187836  20.4087791  25.9376545  65.1094666
  20.4434776  24.8817177  66.5645676  26.2529736  27.4171581  69.3736191
  25.9168472  28.1206570  70.3177567  27.5314007  26.9918652  69.3292999
  27.7733803  26.4778767  68.4942169  28.5304546  27.0848808  70.3732605
  28.0857201  27.0831966  71.3684082  29.3314972  25.7797184  70.2816696
  30.1264362  25.9512024  69.5558853  29.9080467  25.5526638  71.1784058
  28.5898800  24.4768562  70.0027618  28.0505524  24.5795498  69.0611267
  29.1963291  23.5719376  69.9646454  27.5823326  24.2125320  71.1213989
  26.3825665  24.0793896  70.8971634  27.9022350  24.0770397  72.3039932
  29.4151440  28.2891655  70.2766190  30.3369656  28.4629040  71.0699081
  29.1311073  29.1136818  69.2654343  28.2830544  28.8853760  68.7666473
  29.8049717  30.3015709  68.8700562  30.7192574  30.4065285  69.4541473
  30.2316227  30.2407227  67.4165421  29.2989750  30.2154198  66.8529587
  30.6180058  31.2299423  67.1710815  31.1291180  29.0966759  66.9526672
  30.6664944  28.1134472  67.0383453  31.3185024  29.3697548  65.4645081
  31.7898598  30.3298798  65.2545547  31.8192005  28.5132561  65.0130463
  30.3556976  29.3130875  64.9566803  32.5858574  29.0107861  67.4725189
  33.1893311  29.8580608  67.1468658  32.7548828  28.8559837  68.5381470
  33.0318336  28.1112061  67.0483093  28.9002438  31.5227127  69.1059570
  27.9289532  31.7065010  68.3628311  29.2714176  32.4487419  69.9859695
  30.0957718  32.2204247  70.5230026  28.3909492  33.5161705  70.3836517
  27.4542408  33.1367569  70.7919693  29.1016178  34.2374840  71.5449448
  29.2756939  33.6351128  72.4365387  30.0893631  34.5150070  71.1769180
  28.4308109  35.3673859  72.0739746  29.0719624  36.0806122  72.0311661
  28.1679611  34.5499077  69.2221375  29.1729965  35.0558434  68.7191849
  26.9113846  34.8057785  68.8531189  26.2290573  34.4529076  69.5088730
  26.5428085  35.8057518  67.8576202  25.7462463  36.4057808  68.2975616
  27.3578568  36.4969788  67.6431274  26.0121918  35.1755486  66.5517044
  25.5969467  35.8797951  65.6400146  26.0655880  33.8650055  66.4708862
  26.3891621  33.3236580  67.2597733  25.9110718  33.0889206  65.2441711
  25.9821358  33.7107620  64.3517761  26.9260674  31.9858742  65.1434326
  26.8543091  31.2786274  65.9697266  26.6953297  31.3673153  64.2761078
  28.3137875  32.4746971  64.9036865  29.1136169  32.8730507  65.8533478
  28.8938713  32.9691162  66.9063797  30.3040829  33.2129822  65.3352966
  31.0765743  33.4062576  65.9565887  30.3543453  32.9476280  64.0170212
  31.3610992  33.1499557  63.0912132  32.2741699  33.6511497  63.3767014
  31.1931286  32.7423248  61.7562828  31.8766937  32.9903221  60.9577599
  29.9330616  32.1330948  61.4680557  29.7639084  31.8630009  60.4361458
  28.9141426  32.0186043  62.3638306  27.9646282  31.5918026  62.0763245
  29.1008186  32.4963799  63.6799088  24.5113049  32.4514236  65.1589737
  24.2143650  31.5262661  64.3534012  23.5815697  32.9890823  65.8928680
  23.8839455  33.8119240  66.3944702  22.1323967  32.7407913  65.9441452
  21.8558617  31.7581387  66.3262787  21.5220432  33.8191795  66.9671326
  22.0532112  34.7702560  66.9294586  20.4609604  33.9176445  66.7379913
  21.6091957  33.3617630  68.4500580  20.9857693  33.9938774  69.0824051
  21.2924843  32.3191147  68.4762344  22.9844170  33.4920998  69.1033630
  23.8525276  34.1885223  68.6500626  23.2092381  32.8378029  70.2027512
  22.5169029  32.2042046  70.5760193  24.1243439  33.0338326  70.5825577
  21.4178104  32.8647308  64.5273590  20.4040527  32.2255478  64.2251663
  21.9853649  33.6965027  63.5858154  22.8314762  34.2164841  63.7696991
  21.2031116  34.1299248  62.4522820  20.2729778  33.5697861  62.3563881
  20.8318882  35.6543541  62.5637474  21.6096153  36.3592606  62.2698975
  20.0357628  35.8519020  61.8459282  20.2831993  36.0463524  63.8832703
  19.1618176  35.3690071  64.4044571  18.8605995  34.4651413  63.8958359
  18.4618855  35.8377380  65.5929031  17.5233707  35.5200043  66.0225983
  19.0770187  36.9092751  66.3036880  18.4701977  37.4248848  67.3983383
  17.5590305  37.1226273  67.4022903  20.2494373  37.5160599  65.8020782
  20.6218719  38.3380089  66.3954620  20.8361721  37.1138000  64.5794678
  21.6838226  37.7014313  64.2591858  21.9737015  33.8230171  61.1491661
  21.5116310  34.1892738  60.0560989  23.1121826  33.0987968  61.2626686
  23.4506168  33.0820045  62.2141304  23.9195633  32.7228851  60.1241989
  23.7874069  33.5598907  59.4385948  25.4051723  32.5197792  60.4929886
  25.5863342  31.6817570  61.1660385  26.2157688  32.2160530  59.2062302
  26.1779537  33.0087509  58.4590340  27.2466049  32.0463028  59.5171318
  25.9488621  31.2689552  58.7373314  26.0968475  33.7257614  61.1504173
  25.5725994  34.0079842  62.0634384  27.1311092  33.4290466  61.3246765
  26.0327015  34.5939980  60.4945564  23.3119373  31.4521008  59.4762535
  23.0655174  30.4929981  60.2048645  23.0429153  31.4595261  58.1762505
  23.1054611  32.5613594  57.1559143  24.1218052  32.9435692  57.0607338
  22.4714546  33.3533325  57.5545502  22.4125824  32.0915833  55.8289261
  22.9976711  32.4475822  54.9809685  21.3965302  32.4782143  55.7497635
  22.3865814  30.5471573  55.9246178  23.0882053  30.0003719  55.2946587
  21.3565998  30.2553692  55.7194290  22.6783848  30.2365398  57.4030991
  21.7860794  29.9020329  57.9322433  23.7924652  29.1983337  57.3937798
  24.8415813  29.5358429  56.8906250  23.4934044  28.0222282  57.9200516
  22.5970936  27.8453636  58.3506813  24.4565029  26.8431339  58.0436478
  25.3229561  27.0113392  57.4040680  24.9392872  26.5452347  59.4360085
  24.0737667  26.3606415  60.0723267  26.0471821  25.3992443  59.4996300
  26.4775848  25.3133869  60.4973717  25.7454948  24.3734970  59.2876625
  26.8005562  25.8162117  58.8312988  25.6469707  27.7514420  59.9975128
  25.9655914  27.4876785  61.0059814  26.5653152  27.7983265  59.4122391
  25.0843620  28.6846981  60.0221519  23.8264675  25.5700989  57.4401207
  22.7682285  25.1096268  57.8330879  24.4400311  25.1840267  56.3271942
  25.1815758  25.7594337  55.9542084  24.0610981  24.0029697  55.6663132
  23.1463127  23.5715160  56.0726509  23.7998199  24.3543911  54.1552811
  23.5373936  23.4481163  53.6094780  22.7340622  25.5211868  53.9780846
  22.4566326  25.6138611  52.9280586  21.8867970  25.1782722  54.5719299
  23.1388130  26.4601364  54.3557854  25.0036030  24.9028034  53.6503944
  25.0171757  25.8121662  53.9577675  25.0561333  22.9451332  55.8944206
  26.1763000  23.1675892  56.3931503  24.6561241  21.6807213  55.5648346
  23.6926441  21.6099262  55.2702217  25.4783726  20.4482365  55.5828400
  26.5365906  20.7092934  55.5715218  25.2078094  19.6188965  56.8926353
  25.1335087  20.4090919  57.6397476  24.2452412  19.1215801  56.7733116
  26.6544361  18.5843201  57.1829643  26.2434425  17.5504875  56.4432526
  25.1191673  19.5633125  54.3922272  23.9454021  19.5968418  54.0231094
  26.1564274  18.8588982  53.9071922  27.0414486  18.9064674  54.3915215
  25.9202061  17.9254494  52.8405914  24.8512745  17.7289639  52.7576447
  26.2322178  18.5440140  51.3790054  25.7167282  17.9949722  50.5910149
  25.7788734  19.5344772  51.4185600  27.6909904  18.6053753  51.1447182
  28.0665627  19.1382332  52.0182800  28.2068806  17.6464100  51.0962868
  28.1505432  19.5231342  49.6337051  29.9528732  19.1652203  49.6672440
  30.4591846  19.3884544  48.7281418  30.4636383  19.7167625  50.4565620
  30.1715603  18.1026993  49.7736969  26.6683044  16.5732193  53.0798531
  27.4781666  16.4699650  54.0161285  26.5987396  15.6063118  52.1741676
  25.8916073  15.8103218  51.4824715  27.5928802  14.5566626  52.0589180
  28.1419506  14.3786516  52.9835472  26.9753437  13.2372704  51.5590858
  26.0771065  13.0753756  52.1549530  26.7892570  13.3526821  50.4913063
  27.8065929  11.9776993  51.6475182  27.5520077  11.2152185  50.9113731
  28.8439789  12.3121815  51.6546059  27.6861973  11.3482456  53.0480156
  26.8841152  10.4300518  53.2151260  28.2556438  11.9303284  54.0757637
  29.0004005  12.6033211  53.9638596  28.2262554  11.5876980  55.0254173
  28.7826881  14.9659052  51.0877991  28.5283279  15.2612877  49.8590050
  30.0587463  14.8980780  51.4753304  30.3407135  14.8336983  52.4430313
  31.1131287  14.9563580  50.4488106  30.9655437  15.8384132  49.8256760
  32.4901428  14.9398451  51.1527596  32.4798126  15.4550343  52.1132660
  32.7099495  13.9168873  51.4582748  33.5756950  15.5647707  50.2567101
  34.5025673  15.2779570  50.7534409  33.5471687  14.9879007  49.3323135
  33.3638573  17.0619431  50.1199722  34.1060944  17.7289791  49.3504333
  32.5566750  17.7111244  50.8628540  31.0197086  13.7883797  49.4631386
  30.5479126  12.6590576  49.7255554  31.5454998  14.0390701  48.2307701
  31.8464756  14.9865580  48.0525017  31.6618538  13.0274925  47.1587944
  30.6589947  12.6587772  46.9433365  32.2683258  13.7214203  45.8910980
  31.4192009  14.2609005  45.4715157  33.0224724  14.4813261  46.0958176
  32.8710785  12.7313232  44.8604622  33.4145393  11.8871298  45.2848320
  32.0880585  12.2032814  44.3162651  33.8816833  13.6508541  43.6182213
  32.5771332  14.5201836  42.7998085  32.0759811  15.0059252  43.6370659
  32.8890686  15.2735043  42.0764122  31.7565556  13.8634319  42.5109558
  32.4544601  11.7979240  47.6255341  33.6587372  11.8335133  47.8760490
  31.9012280  10.5339689  47.5011826  30.9661942  10.3787260  47.1523094
  32.6872215   9.3044949  47.8192787  33.1827507   9.5546093  48.7573586
  31.6904621   8.1786699  47.9271507  31.0706253   8.3577766  48.8056870
  30.9865742   8.0940943  47.0992050  32.4029655   6.8291621  48.1352081
  33.6096268   6.8404994  48.4214172  31.8585072   5.7101989  48.0591202
  33.6607056   9.0592852  46.6505470  33.2267990   8.8941278  45.5161819
  34.9730415   9.0708275  46.9753647  35.2238998   9.2874680  47.9294281
  36.0880051   8.7977047  46.1036034  35.7170258   8.3713961  45.1715431
  36.8682594  10.0627794  45.7016563  37.1580391  10.6621571  46.5647163
  38.1749382   9.6378222  45.0610161  38.6258888  10.4984198  44.5669212
  38.8154259   9.3164558  45.8823586  37.9552994   8.9872026  44.2145233
  36.0498695  10.8404131  44.7230110  36.0897636  10.4670382  43.6997337
  35.0038185  10.8033085  45.0271454  36.1884651  11.9214649  44.7082481
  36.9339828   7.7297516  46.7822914  37.2000351   7.8879905  47.9735603
  37.3959656   6.7230687  45.9693794  37.2728500   6.7855616  44.9688606
  38.1924629   5.6374459  46.4395103  37.5474319   5.0587635  47.1007004
  38.4340248   4.5742102  45.3104820  37.4847107   4.3563137  44.8211746
  39.4212036   4.9982119  44.2786179  40.4225693   5.0940595  44.6983604
  39.4623756   4.1924515  43.5457077  39.1529274   5.9687295  43.8612137
  38.8124428   3.4017577  45.8484344  38.1360092   2.8417416  45.4605942
  39.4072533   5.9980950  47.1863670  39.8324814   5.3074784  48.1269341
  40.1105537   7.0768251  46.7450638  39.7071686   7.6435351  46.0127945
  41.3141441   7.6640482  47.3564034  41.9189529   6.8131905  47.6700058
  41.8604736   8.0757618  46.5078049  41.1278152   8.8026028  48.4303703
  42.0841141   9.5621567  48.6951294  39.8869972   9.0188236  48.9281807
  39.0879974   8.4647532  48.6548615  39.6329079  10.1051674  49.8419914
  40.2381058  10.9661322  49.5581322  38.5877075  10.3602095  49.6670227
  39.9137688   9.8408947  51.3288078  39.4234047   8.7775497  51.7875938
  40.4256592  10.7856197  52.1373253  40.6690178  11.6450911  51.6659622
  40.8004875  10.6889133  53.5142174  41.5780525   9.9268322  53.5664177
  41.3411942  12.0823107  53.9528580  42.2707748  12.2366619  53.4049873
  40.5198479  12.7457838  53.6821289  41.6391830  12.2723045  55.4457397
  40.7521973  12.3443747  56.0751610  42.5927582  11.2588701  56.0839767
  43.3297997  11.0329075  55.3133888  43.2205658  11.6814861  56.8684196
  42.0836945  10.3874788  56.4958382  42.3747330  13.6163301  55.7007446
  42.0135193  14.3570518  54.9873276  42.3107910  13.9686699  56.7302437
  43.3989868  13.3319578  55.4596291  39.5304375  10.3862228  54.3619881
  38.5940056  11.1198864  54.3519325  39.6280098   9.2614660  55.1378288
  40.4685402   8.7049417  55.0754967  38.6464729   8.6984310  56.0961418
  37.7137527   8.5109224  55.5641823  39.2134705   7.3798885  56.6544266
  40.2895470   7.4640584  56.8063354  38.7427940   6.9988732  57.5607338
  38.8408165   6.2993541  55.6405525  37.7543716   6.2343183  55.5812225
  39.2232552   6.5337968  54.6471367  39.4573669   4.9460793  56.0684204
  40.5287857   5.0830455  56.2147331  38.9464035   4.6168942  56.9732170
  39.2067642   3.8372037  55.0194473  39.5330849   4.1775985  54.0367203
  39.8227005   2.9737368  55.2707443  37.7200279   3.5355220  54.9456444
  37.3015594   3.4395003  55.8598480  37.2322807   4.2665977  54.4479179
  37.5692177   2.7448871  54.3355217  38.3268127   9.5795870  57.2750244
  39.1976280  10.2731829  57.7456207  37.1178055   9.5043535  57.7637215
  36.4001236   8.9219866  57.3564377  36.5097542  10.2125721  58.9393120
  35.4475708  10.0393095  58.7665558  36.9822311   9.5822897  60.2455711
  38.0446167   9.7982302  60.3587227  36.4247551   9.9831877  61.0920944
  36.8723373   8.0768137  60.1780777  35.8675385   7.8143034  59.8470612
  37.7183189   7.7712812  59.5623932  37.0513344   7.5169439  61.5966415
  38.0960121   7.6119576  61.8928185  36.5160904   8.1803741  62.2759590
  36.6325226   6.1069493  61.8475456  36.8546410   5.7644329  62.8582115
  35.5651283   6.0057282  61.6512642  37.2553482   5.1465344  60.9658890
  36.8546181   5.0980010  60.0400581  38.2263565   5.3822737  60.8186760
  37.1415710   4.2325015  61.3802528  36.7656059  11.7505903  58.8204422
  37.0797653  12.3681307  59.8319778  36.5310936  12.4053364  57.6428642
  36.1033630  11.8449068  56.9196320  37.0254707  13.7483473  57.3136368
  37.6775665  13.9681511  58.1589508  37.9049530  13.6754341  56.1197739
  38.5365067  12.7880707  56.1624985  37.3243370  13.7169800  55.1982193
  38.9505959  15.2348471  55.9606247  39.5980263  15.1814070  57.1280441
  35.9107323  14.7977381  57.2801094  34.9914818  14.6186371  56.4773598
  35.8930092  15.7831039  58.1686783  36.6908836  15.9445076  58.7665443
  34.9168129  16.9025421  58.3664207  33.9710693  16.5671940  57.9407349
  34.8419647  17.3902130  59.8480530  35.8216438  17.3404369  60.3232956
  34.1819267  18.8240929  60.0245361  33.2791557  18.8675938  59.4152641
  33.9438324  18.9329529  61.0826263  34.9178619  19.5665607  59.7159195
  34.0675430  16.3157711  60.7491302  32.9895592  16.4706039  60.7035484
  34.3261299  15.3858175  60.2427521  34.6697693  16.2060642  62.1941261
  34.2968292  15.3106298  62.6913376  35.7544594  16.1163292  62.2532921
  34.3067322  17.0707569  62.7496490  35.4802551  18.0224648  57.4679337
  36.7117310  18.1960793  57.4221001  34.6223907  18.7074947  56.7789307
  33.6657982  18.4448357  56.9687805  34.9786568  19.7956009  55.8505363
  36.0060196  20.1064625  56.0402489  34.8979034  19.2938232  54.3642540
  34.0297890  18.6887589  54.1027565  34.8346214  20.1816292  53.7350502
  36.0432625  18.3362713  54.0504837  37.0005150  18.8273277  54.2255211
  35.9387589  17.4768333  54.7127113  36.0454330  18.0940189  52.4835930
  35.1184807  17.5833473  52.2226715  36.2802391  19.0940647  52.1190720
  37.1690063  17.2165146  52.1769485  38.0644989  17.6500835  52.0031357
  37.2193069  15.8882475  52.1746826  36.2688522  15.1169758  52.4886131
  35.3680000  15.5233088  52.6970978  36.3639870  14.1131487  52.4304733
  38.3508911  15.3339767  51.9420624  39.0054779  15.8568621  51.3779640
  38.4389725  14.3399782  52.0979767  34.1165428  21.0055981  56.1308937
  32.9718781  20.7794724  56.4771004  34.5776100  22.2258816  55.8320618
  35.5494385  22.2613869  55.5593147  33.7574120  23.4748154  55.8095512
  32.7467270  23.0977974  55.6531067  33.8559151  24.0741940  57.2232285
  33.3964500  23.3682213  57.9150391  35.3076134  24.5711803  57.6395493
  36.0372505  23.8096848  57.3641243  35.5496483  25.5282917  57.1775322
  35.2333717  24.7457352  58.7129135  32.9815483  25.3582973  57.3006439
  31.9570713  25.0149918  57.1568222  33.0878372  25.7266026  58.3210182
  33.1841278  26.1462021  56.5752029  34.1248970  24.3970490  54.6404305
  35.2105255  24.2909946  54.0921326  33.1195641  25.1829433  54.1837883
  32.2374039  25.0861225  54.6659927  33.0778732  26.1492596  53.1507759
  34.0479164  26.5929909  52.9266853  32.5434608  25.4022007  51.8278351
  33.2876091  24.7003078  51.4514236  31.7571106  24.7398853  52.1899071
  32.1021271  26.3479195  50.6741333  31.4085274  25.8799534  49.9755440
  31.7499237  27.3023357  51.0654678  33.5661659  26.8890667  49.6844101
  33.7707138  25.5621815  48.5803757  33.6959839  24.5706158  49.0268173
  33.0328789  25.7220592  47.7941589  34.7070656  25.6780739  48.0345612
  32.1957970  27.3810024  53.5588036  30.9399910  27.2817211  53.6904449
  32.8483047  28.4640121  54.0001106  33.8512878  28.4053249  54.1034813
  32.1378975  29.6149807  54.6730232  31.0862026  29.3807163  54.8378220
  32.6726227  29.8597755  56.1192665  32.5459938  28.9672222  56.7319756
  33.7495232  29.9611073  55.9846268  32.0949936  31.1270161  56.8732414
  32.1938820  31.9751968  56.1958122  31.0143433  30.9950542  56.9269371
  32.8114510  31.6018963  58.4899483  34.4624863  32.2676888  58.1371078
  35.0087318  31.5923729  57.4785728  34.3999710  33.2599335  57.6902962
  35.0997581  32.2933922  59.0210381  32.2759323  30.8887959  53.8949852
  33.3350830  31.4498825  53.7956161  31.1726589  31.3686237  53.3244095
  30.3006363  30.9030247  53.5315132  31.2536831  32.5893440  52.4790115
  32.2674522  32.7344208  52.1057472  30.2962666  32.5223427  51.2480736
  29.2698345  32.6387558  51.5959167  30.6366386  33.7136154  50.2514153
  31.6894932  33.7078934  49.9693298  30.0651703  33.5559120  49.3367271
  30.2720184  34.6971741  50.5476532  30.4772873  31.3501129  50.6064987
  30.3289738  30.5982361  51.1846733  30.9646244  33.8329468  53.2858200
  29.8880272  34.0179443  53.8353195  31.8990021  34.6877785  53.4437637
  32.8151665  34.3785439  53.1520119  31.7894268  36.0446014  54.0393028
  30.7581654  36.1450005  54.3777161  32.8563766  36.2810173  55.1571732
  32.7121124  37.2215500  55.6888504  32.8957901  35.1113243  56.1260147
  31.9010201  34.8977318  56.5170517  33.2073288  34.2196922  55.5819168
  33.6124001  35.3117218  56.9225197  34.1975975  36.4036674  54.4161644
  34.3913918  35.6254578  53.6779709  34.2683258  37.3070183  53.8103104
  34.9986687  36.3618507  55.1541634  31.9198074  37.0991898  52.9413605
  32.5126686  36.8958015  51.8878593  31.4312515  38.2749786  53.3027382
  31.2468643  38.3386497  54.2937202  31.8666248  39.5608673  52.6270256
  31.8157806  39.3849716  51.5525131  30.7835312  40.5850143  52.9166145
  29.8533440  40.1259918  52.5817223  30.6660175  40.7628326  53.9855728
  30.9762516  41.9481621  52.2193184  31.8879642  42.3083153  52.6959457
  31.0414314  41.8298149  51.1377258  29.7957478  42.8771896  52.5502815
  28.8844795  42.9626617  51.7928848  29.7875500  43.6469688  53.6113968
  30.5305862  43.6407051  54.2954674  28.9216728  44.0783043  53.9017487
  33.2634811  40.0702438  53.0105591  33.5968590  40.1144676  54.1884689
  34.1157417  40.4392242  52.0765839  33.6850739  40.6872139  51.1973076
  35.5651894  40.6928177  52.3299980  35.5005913  41.3704948  53.1812782
  36.2914047  39.4496498  52.7234612  35.9136543  39.1661568  53.7058258
  36.2491989  38.2354927  51.8074226  36.9492264  37.4639206  52.1279411
  35.2469978  37.8560524  51.6081314  36.4744186  38.5618782  50.7921104
  37.6903305  39.8022728  52.8669472  38.0425453  39.3559647  53.6404800
  36.2363472  41.5048141  51.2064171  36.0263290  41.1857681  50.0439224
  37.2191200  42.3196678  51.4807587  37.4210625  42.4346085  52.4636688
  38.1172791  42.9496613  50.4669380  37.5225372  43.0974579  49.5655251
  38.3899040  44.3618698  50.8593597  37.5001030  44.7135696  51.3815346
  39.2025795  44.3221893  51.5846786  38.6799164  45.3720703  49.7252426
  38.6351662  46.6024055  49.9034691  38.7735329  44.9241409  48.5558929
  39.3902168  42.2085419  50.1829605  40.2630844  42.6169510  49.4007530
  39.6147194  41.0164680  50.7715149  38.8498535  40.5007095  51.1827011
  40.9252357  40.3016281  50.7394371  41.6861153  41.0673943  50.8903122
  40.8799629  39.3430634  51.9355774  39.9786987  38.7353325  51.8550224
  42.0499039  38.3076057  51.9645157  43.0597725  38.7170792  51.9399567
  42.0364342  37.6080322  52.8002892  41.8825569  37.7806091  51.0251656
  40.8540039  40.0957909  53.3103485  41.7529793  40.7016335  53.4239235
  39.9620743  40.7017784  53.4695396  40.7729530  39.4570580  54.1898651
  41.0938492  39.5280762  49.4030075  40.1295929  38.8928566  49.0007591
  42.2396355  39.6833420  48.7445984  43.4430122  40.4528961  49.1017303
  44.0877953  39.8666763  49.7564812  43.1416092  41.3825111  49.5845070
  44.1687126  40.7589149  47.8193855  45.2472076  40.7971878  47.9726334
  43.8986320  41.7046242  47.3495026  43.8158226  39.5221176  47.0024681
  44.5545387  38.7480812  47.2104645  43.6622467  39.8630447  45.9786072
  42.4791794  38.9641991  47.5091743  41.6673126  39.2175713  46.8274269
  42.4631500  37.3606987  47.5334778  42.7217484  36.7630234  48.5997887
  42.1172791  36.6828384  46.4776344  41.9952660  37.2594566  45.6574364
  41.8025894  35.3341751  46.3599243  41.0162315  35.1033363  47.0785713
  41.3327293  34.9375496  44.9323082  40.6288109  35.7085381  44.6189766
  42.1846542  35.0568848  44.2629166  40.5914001  33.6177597  44.7251930
  41.2016563  32.7946510  45.0969200  39.6944733  33.6505318  45.3437004
  40.2004395  33.1970520  43.2958908  41.0142937  33.1544418  42.4068680
  38.9055214  32.8901558  43.0780182  38.1251068  32.9677658  43.7144394
  38.6694450  32.8140526  42.0989494  43.0667419  34.4990044  46.8015938
  42.9265518  33.5389824  47.5987015  44.2635384  34.9529724  46.3922195
  44.2068253  35.8268967  45.8890877  45.5730591  34.3806953  46.8852463
  45.4265709  33.3011894  46.9213562  46.7243385  34.7109489  45.8963356
  47.5916634  34.0740166  46.0700226  46.3665810  34.3775063  44.9222107
  47.0508385  36.2067528  45.6773033  46.0765991  37.0089531  45.8570976
  48.2386665  36.6087036  45.5436935  45.8931999  34.6239510  48.3526573
  46.8507385  34.0930061  48.8846703  45.0917168  35.4171829  49.1109695
  44.3651428  35.9568710  48.6627197  45.3845673  35.9201813  50.4818954
  46.3200150  35.4377441  50.7652473  45.4641418  37.4451790  50.5906601
  44.4780159  37.8423653  50.3500557  45.7013931  37.7340355  51.6145630
  46.7375793  37.8794250  49.7631416  47.5874023  37.4220772  50.2698326
  46.6762466  37.5744438  48.7184715  47.0213165  39.3784637  49.6978569
  46.3940010  40.1285934  50.4526367  48.0087051  39.8330040  48.9087029
  48.5629539  39.0912590  48.5053062  48.2347031  40.8138313  48.8250046
  44.3796082  35.4468613  51.5283051  44.6054268  35.6087227  52.7566795
  43.3606758  34.6843834  51.1651039  43.0729103  34.7213287  50.1976700
  42.4297066  34.0426025  52.0524254  42.0882912  34.8036270  52.7541237
  41.2374496  33.4623222  51.2544746  41.5752220  32.6483116  50.6130676
  40.2939262  32.8659897  52.2965813  40.2602577  33.4181900  53.2357559
  39.3083763  32.8285637  51.8324776  40.5012512  31.8065052  52.4469452
  40.4674263  34.5402908  50.4529724  41.1319885  35.0185089  49.7334137
  39.6425133  34.0552979  49.9310455  39.7985802  35.7319412  51.2539940
  40.4126549  35.9510422  52.1274948  39.9183502  36.6441650  50.6695251
  38.7972450  35.4910393  51.6109161  43.1467323  32.9371490  52.8855019
  43.8057442  32.0136108  52.4259415  43.0602608  33.0341454  54.2552109
  42.4211998  33.6879539  54.6844406  43.7464294  32.0836067  55.1615028
  44.6295738  31.6178913  54.7241631  44.0858307  32.8891640  56.4272499
  43.2760086  33.5468102  56.7431488  44.1937943  32.1825790  57.2501602
  45.3792419  33.7031860  56.2606010  46.2379532  33.0924225  55.9818726
  45.2280083  34.4873772  55.5187988  45.6711159  34.4360847  57.5374031
  44.8909378  35.1519814  57.7961006  45.8120461  33.7546005  58.3763390
  47.0103455  35.1719360  57.3223305  47.2005424  35.7375755  56.5074806
  48.0887642  34.9912529  57.9986649  48.1144371  34.3031769  59.1176300
  49.0026360  34.1391487  59.5696220  47.2283936  34.0182762  59.5098724
  49.2502251  35.4030571  57.6840553  49.9901505  35.3631096  58.3703651
  49.4195938  35.7371178  56.7460670  42.7553673  30.9184647  55.3948517
  42.2403030  30.8517208  56.4771576  42.7012253  30.0497513  54.3704758
  43.2250671  30.2805099  53.5383453  42.3105888  28.6297131  54.5593338
  41.2697372  28.6549397  54.8819695  42.3870468  28.0185509  53.1531258
  43.4519234  27.9160366  52.9442520  41.9628868  27.0151291  53.1895943
  41.8528023  28.6962433  51.9239197  40.4768639  28.9075451  51.7751694
  40.3840294  29.4987106  50.6060753  39.4828339  29.9072323  50.1732330
  41.5529137  29.7475243  50.1127129  41.6231308  30.3214436  49.2845917
  42.5588341  29.2777004  50.9164276  43.6214371  29.3407860  50.7339439
  43.1958160  27.8432598  55.6225662  44.3613472  28.1460819  55.6837349
  42.5060120  26.8832035  56.2214394  41.8156586  26.4680462  55.6122131
  42.7887268  26.2962456  57.4956589  43.8358192  26.4450035  57.7594109
  41.9046669  26.9083614  58.6209984  40.8496819  26.8409386  58.3553505
  42.2854271  26.2301025  59.9572182  41.7557449  26.7919369  60.7265549
  41.9839859  25.1868782  60.0516548  43.3040428  26.4939995  60.2416077
  42.2688484  28.3880005  58.8145103  43.3435707  28.5678158  58.7874451
  41.9504700  28.8900986  57.9009285  41.7387238  28.9175644  59.6061134
  42.4821968  24.8006001  57.4287415  41.3385696  24.3092537  57.5291405
  43.5687599  23.9865971  57.5621529  44.5069542  24.3531857  57.6364174
  43.5162735  22.5517311  57.5121956  42.5058098  22.1522369  57.4258118
  44.1812668  22.1208172  56.2359810  45.1292686  22.6419926  56.3692894
  44.3578300  21.0609570  56.4193459  43.3862305  22.3204517  54.9011002
  43.2309151  23.6647682  54.3525352  43.6448364  24.4408531  54.9792442
  42.4925308  23.8283672  53.1072083  42.2635803  24.7784615  52.6475334
  41.7833443  22.7815304  52.5255470  41.0533676  22.9508266  51.3938560
  40.6694717  22.1314068  51.0732689  41.7147675  21.5494061  53.2371368
  41.1355095  20.7232418  52.8520164  42.6184235  21.3160114  54.3318176
  42.7170753  20.3689232  54.8414154  44.1206551  21.8903198  58.7709312
  45.2461739  22.2483063  59.1086121  43.4752731  20.9039822  59.3359680
  42.5503120  20.6955318  58.9879875  43.8451385  20.5019665  60.7121506
  44.8588982  20.8857918  60.8264809  42.8695602  21.0921879  61.6936150
  41.8357391  20.9813404  61.3664627  42.9690704  20.6959515  62.7041588
  43.1119766  22.6512032  61.9930267  43.0103836  23.2466278  61.0856972
  42.0288811  23.3808537  62.8184395  41.0071220  23.2101746  62.4793549
  41.9076157  23.0048428  63.8343201  42.1555443  24.4623222  62.8682175
  44.4637985  23.0073738  62.6622581  44.4911995  22.7014885  63.7080994
  45.2715416  22.4668560  62.1687965  44.7310066  24.0641079  62.6650085
  43.9138489  18.9630985  60.8045464  43.5256538  18.2572708  59.9214363
  44.4965591  18.4439850  61.8918419  44.9039688  19.0355568  62.6018829
  44.6699753  16.9870243  62.1282501  45.3569756  16.8113804  62.9560661
  43.4108810  16.3203754  62.7753105  42.5731888  16.5316868  62.1106911
  43.5859184  15.2586441  62.9490585  43.0211067  16.9517879  64.0996017
  42.5791626  17.9327774  63.9251251  42.1838722  16.3733807  64.4902267
  44.1482277  16.9434853  65.1578369  44.1584930  18.0038700  65.9360428
  44.9980850  15.9988213  65.2393646  45.2773552  16.2943153  60.9930573
  46.3411331  16.7101650  60.4846001  44.7143326  15.1831951  60.4463768
  43.8489647  14.8547859  60.8505898  45.1623344  14.4302416  59.2053795
  46.2472305  14.3264179  59.1874847  44.6229553  13.0007143  59.3410263
  44.5584679  12.7639980  60.4030609  43.6431160  12.8655224  58.8830566
  45.5593719  11.9768333  58.5695915  45.5814552  12.3048763  57.5303612
  46.5493774  12.1539326  58.9898643  45.2561150  10.4561090  58.6527786
  45.3466759  10.2007914  59.7085800  44.2876892  10.2426405  58.2003555
  46.2927322   9.7094412  57.7850685  46.1200066  10.1057434  56.7844620
  47.3056831   9.9779282  58.0849838  46.1689491   8.2453194  57.8686829
  46.5172043   7.8828382  58.7447128  45.2344971   7.8929276  57.7179298
  46.7509613   7.9331136  57.1045570  44.8372345  15.1255732  57.9121933
  45.4684715  14.8375893  56.9073334  43.9613533  16.0832844  57.9104309
  43.8197670  16.4850750  58.8261909  43.5305672  16.8453922  56.7179031
  43.4764671  16.0642471  55.9596252  42.0791779  17.4561882  56.8748703
  41.4512367  16.7716503  57.4451332  42.1552467  18.3566837  57.4843140
  41.5420914  17.5660210  55.9327583  44.5092392  17.9252090  56.2492027
  44.3005753  18.5220718  55.2637939  45.5639305  18.1950035  56.9890175
  45.6402855  17.8005123  57.9156494  46.6118927  19.1283798  56.5914574
  46.1155510  20.0203857  56.2092628  47.4709396  19.5798569  57.8249435
  46.7860069  19.9478645  58.5888405  48.3869705  18.4982204  58.3955765
  47.8363037  17.5822392  58.6096840  48.9966469  18.1440697  57.5643272
  48.7744484  18.8387280  59.3557892  48.3025093  20.8510513  57.4823570
  47.7259445  21.7234726  57.1748619  48.9042397  21.1566429  58.3382988
  49.0848007  20.5773849  56.7743912  47.4810867  18.5123806  55.3511848
  48.0748177  19.3155804  54.6603622  47.3695297  17.2125912  55.0153732
  46.7571068  16.7038422  55.6368332  47.9290962  16.4928722  53.7735634
  49.0137253  16.5933933  53.8133354  47.7558289  14.9593496  53.9397964
  47.8229637  14.6833334  54.9921303  46.4236221  14.4174709  53.3548355
  46.2606735  13.3581324  53.5531960  45.5600128  15.0575113  53.5354691
  46.4905739  14.3898096  52.2672424  48.8298645  14.1145267  53.3136406
  48.7556152  13.1623602  53.8389587  48.7341614  13.9027262  52.2487068
  49.7885399  14.5760927  53.5502815  47.3818016  16.9563541  52.4309082
  47.9011955  16.6603775  51.3705826  46.1959763  17.5201511  52.5044327
  45.9834862  18.0254097  53.3527641  45.3215942  17.6233120  51.2604942
  45.3073692  16.6806526  50.7134209  43.8320999  17.8998928  51.7998047
  43.9049568  18.7261066  52.5070267  43.1822433  18.2612514  51.0028000
  43.0747414  16.8368454  52.6461601  43.6317596  16.6333847  53.5607300
  41.6332817  17.3275986  52.9564896  41.6478233  18.3006210  53.4475288
  41.0484543  17.3918629  52.0389137  41.2058067  16.6546764  53.6998215
  42.9860878  15.5142241  51.9519730  42.5055161  15.5997076  50.9773750
  43.9717903  15.0497904  51.9238243  42.3578453  14.9460974  52.6380043
  45.8665047  18.6754303  50.2522583  46.0581627  18.3532963  49.0488815
  46.0314980  19.9809246  50.6617470  45.8448792  20.1406689  51.6414185
  46.4433289  21.0995445  49.7472038  46.5188751  20.7680302  48.7115898
  45.2959099  22.1741371  49.7861252  45.0968513  22.4833584  50.8122139
  45.6883316  23.0669823  49.2993660  44.0014229  21.7529373  49.1790047
  43.6814537  20.9006901  49.7784996  43.2497597  22.5279751  49.3287582
  44.0328407  21.2911053  47.7097168  44.7279205  20.4899273  47.4585648
  43.0438881  20.9383793  47.4170380  44.4697189  22.4757423  46.8964653
  45.4320183  22.7824726  46.8966713  43.6762199  23.3554459  46.3946991
  42.3777428  23.3298931  46.3149147  42.0077362  23.9821644  45.6383476
  41.8616829  22.8350658  47.0283051  44.1803398  24.2331524  45.6691933
  43.6675415  25.0300541  45.3197784  45.1746979  24.3336468  45.8149834
  47.7594757  21.6610432  50.2642288  47.6880112  22.7757912  50.8383942
  48.9284554  20.9497566  50.1077499  49.1331596  19.6759491  49.4635010
  48.6686897  19.7343502  48.4791412  48.7765694  18.8525753  50.0823708
  50.6523666  19.6485786  49.1712036  50.8677444  20.2564011  48.2924194
  51.0508308  18.6458778  49.0165443  51.2092743  20.4572697  50.2709618
  52.1729393  20.8825359  49.9906006  51.3021126  19.7767296  51.1173363
  50.2232513  21.5262547  50.4975815  50.2211304  21.7588692  51.5624733
  50.6746254  22.7921963  49.7759285  51.6554794  23.4165421  50.0471573
  49.8602638  23.1762409  48.7455826  48.9746170  22.6967449  48.6693077
  49.8734627  24.3978481  47.8849678  50.8614922  24.7313881  47.5677032
  49.1119919  24.1566429  46.5684242  49.3016243  25.0571213  45.9842339
  49.6366844  23.3790817  46.0132713  47.5728874  23.7755775  46.6928825
  47.1745415  22.7224483  47.1809120  46.7704544  24.5788193  46.3040619
  49.2473450  25.5964870  48.6748505  49.5432129  26.7696323  48.2923698
  48.4091415  25.3741188  49.6684761  48.3802376  24.4330692  50.0341110
  47.6777573  26.3801250  50.5263062  47.8198586  27.3880119  50.1363335
  46.2455254  26.1926594  50.3836136  46.0211563  25.2153606  50.8109818
  45.8800774  26.9523048  51.0746231  45.5850983  26.3303013  49.0395088
  45.9514046  25.6198788  48.2984161  44.0364952  26.0655670  49.0641365
  43.5982742  26.8783531  49.6433105  43.5555878  26.0464802  48.0861473
  43.7598915  25.0925331  49.4700851  45.7483635  27.7259846  48.4933014
  46.7966118  27.8203812  48.2098160  45.1630135  27.9073181  47.5918694
  45.5160065  28.4564571  49.2682343  48.2173309  26.2712002  51.9438820
  48.3910294  27.3176842  52.5910263  48.6036453  25.0861530  52.4516220
  48.3218079  24.2345200  51.9875259  49.2057610  24.9107380  53.8279457
  48.7944260  25.7594566  54.3743706  48.6825256  23.7442837  54.5980949
  49.3026466  22.8991604  54.2992287  48.7609673  23.9714775  55.6612663
  47.2827187  23.5524349  54.3329010  46.9554367  24.4499359  54.4276543
  50.6988258  24.9869156  53.9141235  51.4187164  24.2080746  53.2849884
  51.1422195  26.0274239  54.6026840  50.4571037  26.5721188  55.1066933
  52.4774094  26.5582981  54.6218567  52.3558655  27.4078789  55.2938232
  53.3803673  25.5228958  55.4091682  53.4580307  24.6106949  54.8175964
  54.3581657  25.9861889  55.5409775  52.9490891  25.2047825  56.8257904
  51.9892960  24.6951904  56.7408485  53.9668655  24.2155819  57.3894577
  54.2474442  23.4709454  56.6445503  54.8950310  24.7420559  57.6117897
  53.5763435  23.6580200  58.2407646  52.7900314  26.3778343  57.8106422
  52.5150032  25.8496056  58.7235718  53.7483673  26.8746891  57.9617424
  52.0217247  27.0894623  57.5083199  53.0322609  27.0412712  53.2351913
  54.2303505  27.0072803  52.9166527  52.1225471  27.6501255  52.4764709
  51.2143593  27.8257179  52.8820152  52.3746681  28.4294567  51.2535744
  52.8553467  27.6486549  50.6641693  51.1447067  28.8392582  50.4949341
  50.3614426  28.1209278  50.7370110  50.7170410  30.2472725  50.9741859
  51.5502243  30.9281311  50.7999992  49.9135857  30.5444012  50.3001900
  50.3671036  30.1397705  52.0008736  51.4066200  28.9428768  49.0825615
  50.9212875  28.2452393  48.6360703  53.4309731  29.4668922  51.3972054
  53.6362457  30.1406631  52.4104195  54.0814476  29.7909126  50.2340546
  53.6305351  29.4720058  49.3884354  55.0791512  30.8308163  49.9629974
  55.9277534  30.6925068  50.6329536  55.6860847  30.6158562  48.5691376
  56.5821838  31.2363434  48.5590019  55.8876076  29.5564156  48.4107742
  54.6881523  31.0837574  47.4186783  53.7057037  30.6606102  47.6280594
  54.5734520  32.1596222  47.5508003  55.1409111  30.9312286  45.9403419
  55.7884331  31.7624416  45.6612358  55.5302620  29.9225216  45.8024292
  53.9259529  31.0227089  44.9751816  53.4097023  30.0663319  45.0584373
  53.3348503  31.9112415  45.1970024  54.3920784  31.0774994  43.5398788
  53.6918373  30.7333775  42.8985176  54.7939301  31.9924946  43.3935814
  55.1448135  30.4164524  43.4113960  54.7166405  32.2507706  50.2148323
  55.5788040  33.1047287  50.1369209  53.4683914  32.5447807  50.5040817
  52.7793388  31.8463993  50.7440071  52.9803848  33.9110222  50.3775368
  53.5972252  34.3567200  49.5971756  51.5571175  33.8485870  49.8834839
  51.3525925  33.1639557  49.0603485  50.8251114  33.6627846  50.6694489
  51.1439285  35.2316742  49.4081421  51.8917084  36.1934700  49.4617043
  49.9170265  35.3971863  49.1024475  49.3821144  34.5735283  48.8667374
  49.6582489  36.3438911  48.8639336  53.1053505  34.6048126  51.7141609
  52.3842392  34.2751999  52.6025391  53.9984360  35.6004295  51.7940025
  54.3411865  36.0021057  50.9330292  54.1701622  36.4554977  53.0209885
  54.0683899  35.8033180  53.8883972  55.5842400  37.1439323  53.0134354
  55.7462997  37.7204704  53.9241714  56.6002769  35.9997253  53.0890350
  56.3437195  35.2409325  53.8282890  56.6577148  35.6979637  52.0432129
  57.5352821  36.4804802  53.3766823  55.9241829  37.9227600  51.9174347
  55.4275246  37.6662102  51.1369743  53.0906754  37.5468903  53.1049347
  53.1960106  38.5096817  53.8674202  52.2171326  37.7194786  52.0788498
  52.2384224  37.0354729  51.3360291  51.2427864  38.8301659  51.9757195
  51.6011124  39.6777573  52.5599251  51.1491394  39.3276634  50.5089798
  51.0107880  38.4443321  49.8855324  50.2649612  39.9483147  50.3636322
  52.4146385  40.0726204  50.1019249  52.5119553  40.8891106  50.8174438
  53.2796516  39.4158669  50.1942711  52.3122292  40.6793175  48.7141533
  51.6651840  41.7108154  48.6427574  53.0007133  40.1329689  47.7720490
  49.8409004  38.4159431  52.3745842  49.0209312  39.2272797  52.8548927
  49.5282326  37.1271973  52.3536606  50.2626610  36.5122147  52.0334930
  48.4726028  36.3510513  53.1070175  47.4748573  36.6873665  52.8250656
  48.5208397  34.8538971  52.6556358  48.3412056  34.8498611  51.5805435
  49.5506783  34.5276985  52.8010025  47.6294327  33.8515167  53.4139595
  46.8479462  34.4316902  53.9046555  46.8206177  32.9164886  52.5184479
  46.4249077  32.1300240  53.1610832  46.0496712  33.4383659  51.9515381
  47.5517349  32.4003677  51.8962059  48.4065475  33.0360413  54.4081573
  49.3823357  32.6677399  54.0914688  48.7537041  33.6791496  55.2168579
  47.7920837  32.2303505  54.8098946  48.5891266  36.5708427  54.5814781
  49.7437286  36.2868729  55.0743065  47.5701523  36.9706459  55.1943817
  22.8346615  47.1590347  51.5073776  22.6130466  46.9692268  52.4743118
  23.7391262  47.5883636  51.6404877  22.1730232  47.8766403  51.2477989
  22.8031979  46.0791893  50.5658684  21.8527031  45.5600090  50.6887856
  22.8685188  46.6757851  49.2115211  22.0858727  47.4335022  49.1737518
  23.8045044  47.1985550  49.0146866  22.6833649  45.5711136  48.1008759
  23.0863037  46.1104813  47.2436562  23.3016891  44.6979599  48.3091583
  20.9694595  45.1434746  47.7238426  20.1222057  46.5884743  47.1010132
  19.8892059  47.2309265  47.9501724  20.8481884  47.0374107  46.4231453
  19.1549206  46.3763809  46.6455193  23.9770699  45.0995255  50.8239822
  25.1120205  45.4973793  50.8723831  23.7343254  43.8245659  50.9437561
  22.7676849  43.5743828  50.7917137  24.6750774  42.7201118  51.1901932
  25.6119995  42.8220558  50.6425781  25.0437374  42.6710320  52.6705322
  25.6129551  43.5471764  52.9811211  24.1047344  42.5997047  53.2194252
  25.8472137  41.4222565  53.0865860  25.3818207  40.4707794  52.8292923
  26.7142849  41.3295898  52.4325905  26.4512062  41.3809204  54.7704277
  27.2463818  39.6804962  54.7304573  26.4626904  38.9586105  54.5006371
  28.0613441  39.5793762  54.0137215  27.6217308  39.4557076  55.7287979
  23.9358215  41.4928360  50.5068665  22.7159538  41.5047073  50.3587265
  24.7104492  40.4846725  50.0736809  25.7173023  40.5596428  50.1006355
  24.1800900  39.1666145  49.6683197  23.2048035  39.3093414  49.2029762
  25.1492844  38.7301674  48.5011101  26.1857967  38.7619896  48.8368683
  24.7470989  37.3160629  48.0709229  25.4441452  36.9032516  47.3416634
  24.7608223  36.6344566  48.9214096  23.7935677  37.2194214  47.5517426
  24.9017696  39.7260666  47.2876434  23.8319492  39.7541580  47.0807800
  25.2700691  40.7108955  47.5750046  25.5670357  39.2870483  46.0088196
  25.0795345  38.4783173  45.4643898  25.5702934  40.1616859  45.3583565
  26.6237354  39.0265656  46.0690804  24.0668297  38.2040215  50.8459740
  24.9297504  38.2039871  51.7666817  22.9351673  37.5149422  50.9052620
  22.1922131  37.7474785  50.2617950  22.5337315  36.7615891  52.1595383
  23.4577045  36.6517181  52.7272530  21.5829525  37.6844063  52.9285202
  20.7780933  37.9600220  52.2471008  21.0260296  37.1460228  53.6953850
  22.1858139  38.9270935  53.5273438  22.8068810  39.4775772  52.8207016
  21.3010311  39.5042648  53.7959137  23.0534153  38.5950317  54.7522812
  22.4621811  37.9061165  55.3555641  24.0063610  38.1695404  54.4377136
  23.2794399  39.7714310  55.5795898  22.7724953  40.6328888  55.4346886
  24.1371689  39.7541962  56.6142082  24.6843491  38.6850204  57.0446396
  25.3948097  38.8036842  57.7526398  24.5671711  37.8031273  56.5664825
  24.3225307  40.7791786  57.4436951  23.9232788  41.6873283  57.2540588
  24.9063320  40.6022758  58.2486687  21.7543736  35.4320602  51.8913040
  21.0374908  35.3197250  50.8892441  21.9865608  34.4972954  52.8088570
  22.4067421  34.8462410  53.6584358  21.4081554  33.1374855  52.6940384
  21.4368801  32.8797417  51.6353378  22.0931530  32.4780045  53.2269211
  20.0339584  33.1547966  53.3510323  19.8046589  33.8653030  54.3007431
  19.1378937  32.2328796  52.9832649  19.4030724  31.7812119  52.1196823
  17.7251873  32.1204185  53.3304482  17.5759258  32.3951416  54.3746452
  16.7655907  32.8560791  52.3576012  16.6625023  32.4692764  51.3437691
  15.4251080  32.8708076  53.0545921  14.6182251  33.2487221  52.4267235
  15.2031450  31.9235897  53.5461349  15.3948069  33.6011581  53.8631516
  17.3133507  34.3166389  52.2015915  17.5562267  34.6932335  53.1952171
  18.1979313  34.2955437  51.5650597  16.3656616  35.3686943  51.6754608
  16.0368271  34.9874496  50.7087021  15.4979744  35.4628601  52.3284187
  16.9520798  36.2847328  51.6041069  17.4398041  30.6108932  53.2645645
  17.4239006  30.0680408  52.1262627  17.2511578  29.8639755  54.3807945
  17.1390743  30.3948650  55.2326736  16.9821911  28.4626656  54.4324112
  17.2840366  28.1381168  53.4365883  17.8492966  27.8226948  55.4656219
  17.5904179  28.2088280  56.4515152  17.6623802  26.7504673  55.5246925
  19.3781128  28.0030670  55.1485939  19.6026783  27.9978981  54.0819893
  19.6069431  29.0278625  55.4410515  20.2120571  27.1162968  56.0472069
  21.2716160  27.3192577  55.8915024  19.8194160  27.4718113  56.9998627
  19.8764629  25.6863136  55.9079819  19.7574730  25.3456898  54.9646263
  19.5111103  24.8482456  56.8783455  19.4776974  25.1708164  58.1294289
  19.9648857  26.0138950  58.3976936  19.1732922  24.4400196  58.7566223
  19.1526699  23.6247158  56.4899635  19.1358471  23.4354057  55.4980087
  19.0594921  22.9566555  57.2417068  15.5257177  27.9470329  54.6145859
  14.6542950  28.5989113  55.2167854  15.2644453  26.7206993  54.1591492
  16.0257015  26.1284065  53.8595161  14.1729736  25.9295998  54.7426872
  14.1187992  26.3313923  55.7544785  13.3030605  26.3163815  54.2118797
  14.3492098  24.4400558  54.7761917  15.3551130  23.9249115  54.3947639
  13.3104725  23.7947273  55.2695694  12.4538364  24.2484398  55.5531540
  13.3048000  22.2867374  55.2932243  13.8272839  21.9484901  54.3984070
  13.9622364  21.7984123  56.5450516  14.0076513  20.7094135  56.5557251
  14.9947100  22.1464291  56.5764008  13.4548893  22.1626167  57.4383888
  11.7946644  21.8102798  55.2901497  10.8974800  22.4871540  55.7081871
  11.5773716  20.5961990  54.8174362  12.3750458  20.0687485  54.4924583
  10.2317266  19.9159927  54.6595535   9.7338324  20.1469135  55.6012955
   9.4638519  20.5743904  53.4673996   9.3940248  21.6618996  53.4908333
   9.9513206  20.0574055  52.0895348  10.1179333  18.9953938  52.2697678
   9.1484623  20.2870655  51.3889809  10.9323921  20.5217495  51.9896202
   8.1734447  20.0764084  53.5083923   7.6629596  20.6011543  52.8873863
  10.4598551  18.3999653  54.5094337  11.5311956  17.8070469  54.3631554
   9.3424797  17.6570740  54.5674667   8.4720411  18.0355568  54.9127045
   9.3306627  16.1532173  54.4446144  10.2488585  15.7168322  54.0514259
   9.1434984  15.4321918  55.7704926   8.9465055  14.3692245  55.6312332
  10.4179792  15.4480639  56.5917969  10.8559341  16.4406929  56.6966248
  10.2204180  15.0636024  57.5924301  11.1000452  14.7390890  56.1225014
   7.9917116  15.8935928  56.5024071   7.3112440  15.8284245  55.8283768
   8.2052307  15.7068520  53.5138550   7.2172275  16.4175358  53.3221207
   8.3085394  14.5738115  52.8423500   9.2195406  14.1454401  52.9240761
   7.3204274  13.8922262  51.9398918   6.4645872  14.5537014  51.8053970
   7.9147272  13.5074263  50.5762825   7.1679378  13.1574688  49.8635826
   8.5511885  14.8206615  49.8483429   9.6215906  14.7968597  50.0527267
   8.4148664  14.7113323  48.7724419   8.0922413  15.7085333  50.2832603
   8.9460335  12.3175535  50.8094597   9.7008667  12.7450418  51.4694405
   8.5316935  11.4491129  51.3215523   9.3728447  12.1697903  49.8174438
   6.7266765  12.6219158  52.6159439   7.2780905  12.0377083  53.5633736
   5.5943608  12.2302837  52.0703278   5.0879564  12.8325748  51.4371605
   4.8896718  11.0012016  52.4830322   4.9272809  10.9152193  53.5689850
   3.4208117  11.0027418  52.0886879   3.2826993  11.1825161  51.0225220
   3.0516186  10.0109138  52.3495979   2.6244462  12.1937637  52.8961067
   2.6327477  12.9339418  52.0960007   1.6320393  11.8766403  53.2165146
   3.3622110  12.6139135  54.1222954   3.4700565  11.7958384  55.0188522
   3.8216867  13.7510862  54.1422348   5.6123719   9.8089066  51.8360252
   6.2388272   8.9843950  52.5105705   5.8666549   9.8614931  50.5252190
   5.4057727  10.6102896  50.0282364   6.5628014   8.8128233  49.8235512
   7.1518087   8.2151766  50.5192451   5.5039902   7.8336816  49.2573280
   4.9628348   8.3134222  48.4417877   6.0164003   6.9786692  48.8163147
   4.4925647   7.2309828  50.2871361   5.0838380   6.9571538  51.1609306
   3.8130724   7.9833174  50.6876144   3.7734084   5.9860792  49.7955437
   4.4813585   5.2234201  49.4711037   3.1974008   5.6431308  50.6550217
   2.9253721   6.2689915  48.6429939   3.3947189   6.0239568  47.7828941
   1.8372369   7.0720081  48.5437431   1.1604601   7.3278379  49.6079636
   1.5718569   7.1074529  50.5036659   0.2968660   7.8299861  49.4591255
   1.3812416   7.6193590  47.4199905   1.7911584   7.4469705  46.5131531
   0.7068675   8.3708687  47.4435120   7.6217136   9.3512402  48.7973862
   7.3960991  10.4628944  48.3717957   8.5933380   8.5465069  48.3760986
   8.8080654   7.6441889  48.7758675   9.3040705   8.8184471  47.0742493
   9.6588554   9.8488369  47.0971985  10.4510269   7.8159847  46.9733276
  11.0638733   7.8939776  47.8713455  10.0797644   6.7937131  46.9010162
  11.4382191   8.0944891  45.8942566  11.6538248   9.2707748  45.5350952
  12.2295313   7.2296004  45.4191780   8.3023367   8.8166609  45.8676567
   8.0460081   7.7742882  45.3325119   7.7358541   9.9436140  45.4418488
   7.8870468  10.8270311  45.9074821   6.8076353  10.0355120  44.3800430
   7.1953120   9.4363117  43.5561714   5.4909139   9.3422270  44.8223839
   5.6167283   8.3384457  45.2282104   4.8087659  10.0285168  46.0245285
   5.2651410   9.8315716  46.9945984   4.4918427  11.0484571  45.8068581
   3.9028044   9.4444914  46.1865463   4.6018395   9.3690720  43.7687073
   4.1501489   8.5228329  43.8068542   6.6402159  11.4698629  43.8953896
   6.7755995  12.3948078  44.6664124   6.3099370  11.6352062  42.6041069
   6.3913546  10.7885818  42.0594101   5.9840770  12.8684244  41.9423103
   6.7607751  13.6134520  42.1148911   5.8542728  12.5640869  40.4790115
   5.3322730  11.6146879  40.3596077   5.3587818  13.4030256  39.9903679
   7.2592001  12.5333071  39.8812065   7.7349420  13.3972540  40.3452797
   7.7737446  11.6401911  40.2357407   7.3762445  12.7343588  38.3513718
   8.4067230  12.3491983  37.7551804   6.4094253  13.2510281  37.7672348
   4.7007422  13.4560843  42.4961586   4.4902086  14.6561012  42.3926620
   3.8752522  12.5412102  43.1162987   3.9650702  11.5536289  42.9246788
   2.6598938  13.0339088  43.7988777   2.1170518  13.6308126  43.0659866
   1.7723570  11.8143759  44.0875511   2.4369097  11.0699635  44.5260963
   1.0076878  11.9532843  44.8518105   1.0826589  11.2704849  42.8006783
   0.8777815  12.1361856  42.1708450   1.7957065  10.6603775  42.2462120
  -0.2282857  10.5674763  43.2132225  -0.2864570   9.7865858  44.1779556
  -1.2194695  10.8747683  42.5039787   2.8943980  13.9639606  45.0322418
   2.0487597  14.6553001  45.5122719   4.1652527  13.9559002  45.4620781
   4.8416028  13.3967924  44.9620285   4.7529368  14.4544992  46.6810036
   3.9327562  14.8818884  47.2578468   5.3028879  13.3225040  47.5167122
   5.6931396  12.4998903  46.9174500   6.1680865  13.5649796  48.1337509
   4.2050767  12.6665602  48.4317474   3.3820095  12.3475199  47.7923126
   4.6234961  11.7643042  48.8777962   3.7852178  13.6849813  49.5266953
   2.5966167  14.0128536  49.4459114   4.5689039  14.1828966  50.3921738
   5.8597903  15.4513569  46.4393845   5.7516274  16.6562328  46.8619156
   7.0014644  15.0968761  45.8132896   7.0280094  14.1249943  45.5397148
   8.2735939  15.7709627  45.9220467   8.4799538  15.9413843  46.9786797
   9.4089050  14.8859453  45.3656883   9.0959702  14.6289358  44.3536987
  10.7170019  15.6832161  45.2259293  10.8468704  16.1175861  46.2171707
  11.5460501  15.0713844  44.8703461  10.6799984  16.5077133  44.5139313
   9.6159563  13.6549034  46.2325745  10.1815243  13.8821917  47.1362190
   8.6893196  13.1620388  46.5267448  10.4242334  12.5296612  45.5031128
  11.4982929  12.6166725  45.6671906   9.9692240  11.6640339  45.9845200
  10.1469126  12.4628162  44.4511070   8.1520042  17.1157970  45.2663383
   8.4990215  18.1729393  45.8226547   7.5608306  17.3194046  44.0594521
   7.1966076  16.5099888  43.5774918   7.4822965  18.5973587  43.3717690
   8.4992380  18.9880924  43.3362961   7.0944409  18.5765724  41.9600105
   6.0891452  18.1900330  41.7924728   7.0662074  19.5917892  41.5642319
   7.9771991  17.7908897  40.9904480   7.9417462  16.7104416  41.1300011
   7.5669022  18.0553741  39.5465775   8.2655382  17.5703793  38.8648262
   6.5321813  17.7631912  39.3674622   7.4590511  19.1242619  39.3623390
   9.4852266  18.1812668  41.1116676   9.6209421  19.2601891  41.1865768
   9.8931875  17.7532330  42.0273399  10.1366129  17.8247585  40.3137321
   6.5944595  19.5415173  44.2000999   6.9962583  20.6529598  44.5007133
   5.4131718  19.1128139  44.5890045   5.0386834  18.2754917  44.1662140
   4.4632206  19.9558048  45.3670349   4.5888600  20.8627796  44.7756729
   3.0387669  19.3323612  45.4345894   2.7256408  19.0319843  44.4346771
   3.0869563  18.4282284  46.0414848   2.0294490  20.3042850  46.0156136
   2.3953114  20.8048763  46.9120789   1.8915712  21.1809788  45.3827629
   0.6339816  19.7689018  46.2537651  -0.1867923  19.7061520  45.3114166
   0.1887483  19.6470261  47.4834251   0.7338524  20.0124912  48.2511520
  -0.8202636  19.6358585  47.5266724   4.9739556  20.4014931  46.7905426
   4.8326659  21.5640736  47.1541405   5.6118455  19.5093250  47.5766106
   5.7115412  18.5875683  47.1759491   6.2185230  19.7865887  48.9181213
   5.5051537  20.3234673  49.5433922   6.8027282  18.3891201  49.4578934
   7.3420801  17.9378433  48.6250954   7.5558419  18.5450001  50.2303123
   5.6436477  17.5804996  49.9776001   4.9075122  17.6938972  49.1817703
   6.0448127  16.5763435  50.1148453   5.1404872  18.1796761  51.3073349
   5.9003558  18.2585583  52.0848160   4.8344660  19.2222462  51.2207375
   4.0151215  17.3334713  51.9147339   3.5407052  17.8138294  52.7704697
   3.3022916  17.2628136  51.0931587   4.3773623  15.9644327  52.3438416
   5.2164254  15.9641943  52.9060478   3.6299713  15.5522976  52.8838959
   4.5822926  15.3640852  51.5579109   7.3988347  20.7693844  48.5890007
   7.5935655  21.7018299  49.3272057   8.2405357  20.4483585  47.5978622
   8.1272888  19.5514145  47.1475677   9.3419170  21.3865738  47.2144699
   9.7898893  21.5197353  48.1991959  10.4014969  20.8320045  46.2117233
   9.9472284  21.0025406  45.2356834  11.7035770  21.6898251  46.2340355
  12.3995628  21.4309578  45.4361076  11.5739632  22.7701454  46.1691551
  12.2879486  21.5217266  47.1386642  10.6497412  19.5275764  46.5108109
   9.9741669  18.8806839  46.2946396   8.8077459  22.7830315  46.8070488
   9.2998056  23.8028851  47.2348862   7.7267551  22.8493156  46.0077133
   7.2985125  21.9863586  45.7043762   7.1596193  24.0996323  45.5307274
   8.0140114  24.6848373  45.1906395   6.1049509  23.8309422  44.4141464
   6.6656337  23.4556580  43.5580521   5.4202232  23.0246105  44.6769943
   5.2566943  25.0447979  44.0089836   5.8075747  25.9752789  43.8717308
   4.8657336  24.7603130  43.0320892   3.9184361  25.2708092  44.8711052
   3.5481908  24.3274422  45.2724495   4.1425910  25.8780441  45.7481041
   2.8800647  26.1095371  44.0971527   3.1827540  27.1115513  43.7930946
   2.5250359  25.6388302  43.1803703   1.5895032  26.2570438  44.8414268
   1.5019466  25.3997860  45.3682480   1.6658905  27.0240669  45.4940681
   0.7698833  26.4369164  44.2793121   6.6183805  24.9222107  46.6413193
   6.8410087  26.1166286  46.7680473   5.7071433  24.2887878  47.4965401
   5.3461246  23.3503361  47.4012833   5.0855393  25.0794640  48.5680580
   4.5357742  25.8803978  48.0737267   3.9739356  24.2865067  49.3052216
   4.3678222  23.3698692  49.7442284   3.5689065  24.9153919  50.0980339
   2.8035457  24.0506153  48.2929611   2.4877524  25.0160809  47.8976746
   3.1083295  23.2802696  47.5845985   1.6369969  23.3754635  49.0362091
   1.6998295  23.1250134  50.2402458   0.5385566  23.1270027  48.3700562
   0.5544513  23.2810745  47.3720016  -0.2394332  22.5855484  48.7188530
   6.0843458  25.6908569  49.5576553   5.9002495  26.8306122  49.9627037
   7.1846328  24.9533539  49.8160896   7.2544951  23.9925880  49.5125351
   8.2464380  25.5050430  50.6245842   7.9022555  25.8650703  51.5941315
   9.2594347  24.3186111  50.9610901   8.8099270  23.6331234  51.6795273
   9.3578959  23.7277107  50.0504608  10.6159811  24.7795143  51.5345573
  11.1479788  25.3823605  50.7985764  10.3001909  25.5789394  52.7807999
  11.2253971  25.9749660  53.1994362   9.6443720  26.4272156  52.5847702
   9.7842846  24.9830608  53.5337029  11.4136658  23.5730896  51.9977188
  12.2576447  23.7245255  52.6706657  10.7367735  22.9631844  52.5959969
  11.8344364  23.0004826  51.1711769   8.8759813  26.7307892  49.9329529
   9.0046740  27.7662926  50.5452423   9.3613663  26.6068935  48.7252922
   9.3366194  25.6694202  48.3502808   9.9464388  27.6935215  47.9590874
  10.9050865  27.9512177  48.4092979  10.3212671  27.1105385  46.5559845
   9.4179325  26.9358120  45.9715576  10.8475857  27.9415512  46.0863914
  11.2949457  25.9601040  46.4213257  11.2264357  25.2687798  47.2612534
  11.0883036  25.2073231  45.0942001  11.9162836  24.6022320  44.7248573
  10.1619434  24.6385593  45.0138435  10.9747591  25.9671841  44.3210144
  12.7506704  26.4346485  46.2769966  13.3606243  25.5315304  46.2561874
  13.0441914  26.9496994  45.3623009  13.0836115  26.9685535  47.1670532
   8.9509382  28.8850899  47.9571152   9.2977819  30.0014648  48.1231461
   7.6231031  28.6597595  47.6641769   7.3956442  27.6798267  47.5742035
   6.5148067  29.6751289  47.5793381   6.6293259  30.3462448  46.7281113
   5.1471753  28.9069500  47.3385735   5.1144881  28.4976311  46.3288765
   5.0506291  28.1221752  48.0888481   3.8279943  29.7484417  47.6454430
   3.5059509  29.5571709  48.6690674   4.1426439  30.7910309  47.5994301
   2.6189339  29.4349365  46.6774025   2.0685527  28.3175945  46.6289482
   2.0216815  30.2228451  45.8863487   6.5749140  30.5160065  48.8710442
   6.5982146  31.7377033  48.8403130   6.5033112  29.8570709  50.0136147
   6.5819006  28.8505077  49.9861526   6.4094510  30.5291405  51.3682556
   5.7239690  31.3576565  51.1899910   5.9230881  29.5692577  52.4711761
   6.6199327  28.7360115  52.5617828   5.8432059  30.1689281  53.3778801
   4.5349083  28.8897514  52.2112236   3.7342799  29.5333443  52.5757561
   4.5071220  28.7076740  51.1368942   4.2977924  27.5756054  52.9559059
   4.7961049  26.8333721  52.3323097   4.8424091  27.5219669  53.8985710
   2.7989237  27.2542934  53.2259636   2.6272016  26.6961002  54.1463089
   2.2699215  28.1731911  53.4787178   2.1589854  26.5709934  52.0798836
   1.1553469  26.5913734  52.1912155   2.3692703  26.9566593  51.1704102
   2.4410100  25.6012440  52.0920601   7.6517320  31.2463379  51.8874893
   7.6124058  32.1221199  52.7597466   8.7550611  30.9827595  51.2591171
   8.8250751  30.1231194  50.7335548  10.0409269  31.6286297  51.3989563
  10.1567287  31.8341198  52.4631310  11.2859774  30.8064766  51.0199890
  10.9963446  30.3295650  50.0836296  12.5892696  31.6527443  50.5616112
  13.5087166  31.0880127  50.4073448  12.4640274  32.2000732  49.6273499
  12.8263664  32.4021530  51.3167801  11.6701527  29.7587948  52.0920372
  12.4276638  30.1993256  52.7402725  10.8770542  29.2521877  52.6419868
  12.4217148  28.5479202  51.4620628  12.8423119  27.8940239  52.2260094
  11.6393471  27.9851646  50.9528389  13.1655579  28.8765335  50.7362442
  10.0483007  32.9350853  50.5371971  10.4215488  34.0028038  51.0101051
   9.6462841  32.7774162  49.2953949   9.4746752  31.8557110  48.9197502
   9.6576748  33.8633919  48.3110580  10.5859613  34.4321747  48.3646126
   9.5771389  33.2103615  46.8781586   8.7439737  32.5109444  46.8091354
   9.3406897  34.2101250  45.7833023  10.1370811  34.9492264  45.6961861
   9.1777420  33.7090034  44.8291397   8.3504419  34.6557159  45.8779984
  10.9781828  32.4163628  46.6177521  11.7172079  33.1181374  46.2311478
  11.2335606  31.7848721  47.4686928  10.9161320  31.5032616  45.4046669
  10.0946207  30.7894917  45.4659386  10.7846355  32.0615768  44.4777946
  11.8362303  30.9599895  45.1893272   8.6074781  34.9333763  48.4986305
   8.8808403  36.1057396  48.1730652   7.5451541  34.6087761  49.2538643
   7.2808542  33.6339836  49.2486649   6.6106954  35.5731964  49.8553276
   6.4427123  36.4473190  49.2262115   5.3510113  34.8223686  50.2473984
   5.1042809  34.3798523  49.2823029   5.5170221  33.9418945  50.8681374
   4.1874647  35.6251221  50.7668037   3.3136208  34.9737244  50.7800064
   4.4582887  35.9925041  51.7566490   3.7718632  36.8957291  50.0119629
   4.1205878  37.0825119  48.8383064   2.8591824  37.7038231  50.4775925
   7.2141204  36.2061920  51.0565681   7.2099800  37.4331169  51.0834122
   7.7376294  35.4979248  52.0650940   7.7541614  34.4964790  51.9349632
   8.0356236  36.0506897  53.4315948   7.1255593  36.5999908  53.6727676
   8.1255112  34.8383369  54.4198151   7.3073306  34.1198502  54.3702507
   9.0685816  34.3478317  54.1787300   8.1435738  35.3372116  55.9014435
   8.4802952  34.4277420  56.3990173   8.9439068  36.0706520  55.9996147
   6.7850614  35.7101822  56.4733582   5.8287477  34.9282837  56.4371185
   6.6622567  36.8031425  57.0353203   9.2638731  36.9468842  53.4719429
   9.4148855  37.8374100  54.3185425  10.2256231  36.7530098  52.5310249
  10.2016153  35.8785172  52.0262604  11.2977324  37.5701256  52.1186867
  11.5066462  38.2766800  52.9219551  12.6322041  36.6990776  52.0302467
  12.5405169  36.0634956  51.1494904  13.3950214  37.4721298  51.9374809
  12.8071995  35.8218384  53.3278542  13.4571028  36.2348824  54.2531967
  12.3493471  34.5638580  53.3899117  12.4849739  34.0996094  54.2765808
  11.6604042  34.3215675  52.6922264  10.9967709  38.4529877  50.8689957
  11.8306885  39.2699165  50.4687004   9.8119392  38.3553276  50.2291985
   9.1785069  37.6156349  50.4970169   9.4087105  39.2027626  49.1907845
   8.4172688  38.9017944  48.8523140   9.2243452  40.6878281  49.7120399
  10.1429987  41.2265015  49.4796295   8.4749327  41.2404366  49.1453781
   9.0033741  40.8639488  51.1819305   8.1052485  40.0504875  51.8561249
   7.5472527  39.3152542  51.4460335   8.0745420  40.4557381  53.1092110
   7.4850821  40.0699692  53.9278183   8.8442879  41.5255127  53.2361679
   9.0476246  42.0221977  54.0917740   9.5284309  41.7122612  52.0519905
  10.2960291  42.4375000  51.8256645  10.2830772  39.1318359  47.9135590
  10.3170042  40.0649757  47.0655746  11.0688658  38.0811844  47.6816711
  10.9552441  37.2491417  48.2428246  12.1831102  38.0460320  46.7334366
  12.7497578  38.9718742  46.8325920  13.3250914  37.0679970  47.1674843
  14.1503544  37.1274033  46.4578934  13.9249430  37.3008156  48.5348549
  13.0751247  37.3183784  49.2172050  14.4905987  36.4129677  48.8174438
  14.5732965  38.1739883  48.4619751  12.7211876  35.8288956  47.2476006
  12.3995104  35.7567291  46.3459816  11.8401690  37.9513969  45.2215157
  10.8883200  37.2352409  44.8117371  12.5982800  38.6590767  44.4023209
  13.1647463  39.3786812  44.8282166  12.5892754  38.7219162  42.9630470
  11.6133471  38.3618507  42.6374435  12.7312756  40.1972809  42.3947258
  13.2223654  40.8040733  43.1554718  13.2412796  40.2670250  41.4339256
  11.3063421  40.8354912  42.0559425  11.2487526  40.8863182  40.9686508
  10.5868349  40.1144447  42.4439011  11.0702648  42.2815018  42.4957542
  11.3022070  42.3918037  43.5550613  11.8512621  42.8881187  42.0373230
   9.7718506  42.8670807  42.1374512   9.7705402  43.9274940  42.3896828
   9.5536346  42.7373886  41.0774231   8.6289625  42.2535515  42.9513092
   8.5581789  41.2486191  42.8792229   8.7840338  42.5045853  43.9172478
   7.8097677  42.7408524  42.6173019  13.6836052  37.7710228  42.3896675
  14.8135490  37.7840157  42.8871422  13.4219294  36.9507904  41.3244362
  12.2299805  36.8891487  40.5494728  11.8512154  37.8824997  40.3088570
  11.4145641  36.3698387  41.0529785  12.6115322  36.2896080  39.1754990
  13.0834150  37.0393410  38.5404205  11.7525711  35.9087067  38.6230507
  13.7276268  35.3070755  39.5713425  14.3820076  35.0727272  38.7317200
  13.3235540  34.3695831  39.9533501  14.3790588  35.9757347  40.7352028
  14.6389589  35.1549072  41.4036293  15.7304382  36.5948029  40.2610512
  16.7832756  35.9806480  40.4889030  15.6906576  37.7324181  39.6092339
  14.7718420  38.1513863  39.5906563  16.9451065  38.4732246  39.2157707
  17.6590748  37.8607635  38.6650963  16.5149403  39.5226059  38.1084671
  15.6875639  40.1162033  38.4973030  17.2734032  40.2378387  37.7902298
  15.9882126  38.7093201  36.8453941  16.6677628  37.9080048  36.5552139
  14.9685917  38.3757744  37.0383224  15.7951670  39.6735764  35.6548691
  15.9516535  39.1910934  34.5094528  15.4506025  40.8610840  35.8020859
  17.8827133  39.0309143  40.3525848  19.1295185  39.1427422  40.1253357
  17.4394875  39.1051254  41.5930862  16.4504585  38.9912071  41.7632141
  18.3134823  39.3458366  42.7884827  19.0549870  40.0904312  42.4989014
  17.5454006  40.1455612  43.8609886  16.6433067  39.5814133  44.0977707
  18.2307930  40.1862183  44.7075653  17.1387844  41.5650940  43.4752731
  16.1013870  42.0228348  44.0665817  17.7935562  42.1851540  42.6821442
  18.9795895  38.0973282  43.3541145  19.9437389  38.1808891  44.1252937
  18.4758739  36.9252129  42.9870071  17.7959881  36.8652153  42.2425232
  18.9931030  35.6174164  43.3846359  19.0933743  35.5634537  44.4686737
  18.0406685  34.4937782  42.9775810  17.8880920  34.4257545  41.9004555
  18.5319881  33.1224709  43.4134140  17.8457623  32.3301849  43.1142845
  19.4927788  32.8704987  42.9645386  18.6863518  33.1040268  44.4922676
  16.5948563  34.5942879  43.4402771  16.5156479  34.9278374  44.4749641
  16.0978355  35.4296532  42.9470787  16.0707607  33.6412888  43.3680496
  20.3858128  35.3478546  42.7164230  20.4721870  35.1351624  41.4921761
  21.5009251  35.2284012  43.4832115  21.4283714  35.3433533  44.4840240
  22.7682247  34.7076302  42.9939194  23.0718803  35.2748032  42.1140251
  23.8947773  34.9351997  44.0029221  23.5670471  34.5536041  44.9699211
  25.0944958  34.2584305  43.4416809  25.3247318  34.5932579  42.4302597
  25.9987793  34.4802208  44.0084076  24.9730911  33.1752396  43.4342842
  24.2229595  36.4099503  44.2605553  24.4121437  36.8552017  43.2837982
  23.2743301  36.8665962  44.5428238  25.0430660  36.5683289  44.9608765
  22.6626911  33.2096329  42.6314316  23.1927032  32.8556252  41.6160202
  22.1101780  32.3991165  43.4539833  21.7171650  32.8165779  44.2854691
  21.9480133  30.9590855  43.1923180  21.6564178  30.7391300  42.1653328
  23.3662090  30.2585888  43.4395065  23.2235451  29.2116795  43.1716728
  24.1242752  30.7764339  42.8519058  23.8567638  30.3836937  44.8603935
  24.1565742  31.3952045  45.1343613  23.0890579  30.0095196  45.5376854
  25.0858498  29.5092964  45.1550331  25.9494839  29.8214703  45.9549217
  25.3672676  28.4200859  44.4409447  26.3085289  28.0540276  44.4295158
  24.6540966  28.0242977  43.8452606  20.9423618  30.3174515  44.1562691
  20.6016388  31.0307369  45.1201210  20.5507240  29.0158615  43.9801865
  20.8580112  28.5399342  43.1440239  19.8662434  28.2593231  45.0123787
  19.8760509  28.8396473  45.9349976  18.3508320  28.2156010  44.6067162
  17.9742336  29.2382851  44.5869141  18.3217335  27.8045006  43.5976334
  17.4215355  27.3355045  45.5089264  17.8858910  26.3493977  45.5006714
  17.4199009  27.7283154  46.5256882  15.6597147  27.1630898  44.9484482
  15.1569481  28.8809662  45.0744781  14.9886751  29.0449562  46.1388550
  15.9471664  29.4716053  44.6110153  14.1565342  28.9607925  44.6491508
  20.4427490  26.8015194  45.1075974  20.8926754  26.2949867  44.1035233
  20.6393948  26.2759628  46.3023567  20.1986237  26.6227570  47.1423264
  21.1717186  24.8809547  46.4874573  21.3687706  24.4375439  45.5114174
  22.3770428  24.7579956  47.4089928  22.0020561  24.9986820  48.4037590
  22.5987892  23.6936264  47.4867439  23.5455685  25.6293983  46.9231987
  23.4136505  25.9148979  45.8795586  23.7058754  26.8641758  47.7082863
  24.5067768  27.4402580  47.2448425  22.7891769  27.4538670  47.7027245
  23.9571953  26.6913700  48.7547455  24.8824291  24.9262466  47.0499725
  24.9721489  24.0166111  46.4561539  25.6347599  25.6743469  46.8000832
  24.9561691  24.5683708  48.0769043  19.9642944  24.0572815  47.0237541
  19.3152523  24.4415131  48.0214195  19.6745949  22.9001102  46.4179802
  20.1594028  22.6364021  45.5720978  18.6663399  21.9752045  46.9658127
  18.0464363  22.5842972  47.6237068  17.8271408  21.4777660  45.7737083
  18.4573040  21.0969048  44.9700050  17.2169495  20.6135082  46.0360527
  16.8321762  22.5652008  45.2569923  17.3751354  23.5088596  45.2040596
  16.2239590  22.1914387  43.9290733  15.8413334  23.1121597  43.4886513
  16.9230385  21.6626244  43.2811966  15.4074736  21.4772511  44.0358162
  15.6048956  22.8934288  46.0084152  15.8914185  23.1124020  47.0370293
  15.1038904  23.7888603  45.6405869  14.8910885  22.1026268  46.2390900
  19.3887157  20.7299919  47.7184410  20.6128502  20.6232033  47.5914001
  18.6107731  19.9600658  48.4956398  17.6588497  20.2771263  48.6114616
  19.1088200  18.8441257  49.3761482  20.0146980  18.3689632  48.9997101
  19.5276737  19.4745121  50.7207565  20.3833046  20.0885735  50.4398193
  18.7601089  20.1206932  51.1466599  19.9064045  18.4565601  51.6816826
  19.0704079  18.0776062  51.9629364  18.0652752  17.8180084  49.5805092
  16.8786964  18.1765804  49.6010094  18.4519272  16.6024837  49.8106079
  19.4551239  16.4863758  49.7959213  17.5190334  15.4792166  49.8663330
  16.6443520  15.8387794  50.4083214  16.8318539  15.0506630  48.5411415
  16.3613491  14.0938034  48.7672958  16.1229801  15.8483019  48.3189278
  17.6283340  14.9496136  47.8039131  18.0903149  14.2303438  50.5749359
  19.2858810  13.9742556  50.5867348  17.3105755  13.5189781  51.3701744
  16.3148441  13.6870127  51.3506165  17.6652584  12.2582159  52.0579338
  18.6707420  12.3228292  52.4737778  16.7662354  11.8464937  53.1769295
  17.1554050  11.0084124  53.7550850  16.5929413  12.9075241  54.1814804
  16.3569908  13.8455305  53.6789093  15.7859116  12.6556177  54.8694801
  17.5143890  12.9121914  54.7637291  15.4354830  11.6390505  52.7558556
  15.1800299  10.7156944  52.6945572  17.7492504  11.0432873  51.0420723
  17.1515713  11.0713301  50.0011559  18.6308308  10.0124426  51.2996063
  19.6098385   9.9012003  52.3562698  19.0720692   9.5281801  53.2279129
  19.9658604  10.9073057  52.5778542  20.7484856   9.1365681  51.8157234
  21.2431469   8.5510292  52.5906792  21.5402336   9.7646599  51.4073868
  20.1004105   8.2285748  50.7243118  19.7326565   7.3104000  51.1823654
  20.7153339   8.0594463  49.8403625  18.8177700   8.9406319  50.3167801
  18.9818745   9.3993578  49.3417130  17.6522331   8.0389185  50.0637131
  17.6954594   7.0234990  49.3566399  16.4956436   8.2345257  50.7513618
  16.4321556   8.9821987  51.4274216  15.2589321   7.5716639  50.4276352
  15.3765535   6.4968147  50.2899055  14.1097698   7.7503171  51.4222069
  13.4789896   8.5524006  51.0389595  13.5711899   6.8045249  51.4815025
  14.4912834   8.0168791  52.9426613  15.2791195   8.9808846  53.3024788
  14.0362167   7.3042102  53.8608131  14.7453709   7.8998027  49.0057869
  13.9295673   7.1509972  48.4112358  15.0813999   9.1578112  48.5215721
  15.7950029   9.6661615  49.0240250  14.3260698   9.8586054  47.5331268
  13.3615389   9.4086809  47.2978630  14.0502415  11.2395506  48.0235291
  14.9660740  11.8254251  48.1016502  13.5029001  11.7926216  47.2602272
  13.3199625  11.4843884  49.3369980  13.9741449  11.0053682  50.0654793
  13.0915766  12.9843655  49.6149826  12.9073553  13.1439781  50.6773834
  13.9101572  13.6549358  49.3535233  12.2752190  13.2751198  48.9538307
  11.9317522  10.7575912  49.4646263  11.9918709   9.6991386  49.2113190
  11.6081276  10.7590866  50.5054741  11.1695671  11.2716627  48.8790359
  15.0277491   9.7925825  46.1625633  16.1415558  10.3707752  46.0472107
  14.3776064   9.2346573  45.1156807  13.4196787   8.9611864  45.2820778
  14.8638983   9.0383577  43.7725830  15.6820154   9.7295437  43.5699883
  15.3853683   7.5504684  43.7285919  14.5233002   6.8842220  43.7610474
  15.9048395   7.3680506  42.7878609  16.3775177   7.1555018  44.8868027
  17.6055546   7.7157860  45.1291084  18.1520042   8.1143036  44.3789902
  18.0747051   7.0815873  46.2348289  19.1421394   7.1104493  46.3965302
  17.1324615   6.2969756  46.7977638  17.3579330   5.5434756  47.4314041
  16.0532665   6.3536897  45.9607277  15.0723963   5.9387474  46.1399345
  13.8404465   9.3071203  42.6229210  14.1139021   9.0857868  41.3789558
  12.6006060   9.5753975  43.0239792  12.4554558   9.8808956  43.9756622
  11.4712181   9.5321999  42.0968056  11.4950695   8.5765409  41.5731163
  10.1526804   9.6038160  42.8184319   9.2615728   9.4673567  42.2057304
  10.0974255   8.8199272  43.5737915  10.0190392  10.5292149  43.3786774
  11.5031796  10.6940145  41.0442123  10.9146700  10.5925283  39.9399757
  12.1418943  11.8093042  41.3238068  12.5696545  11.8910255  42.2350922
  12.2008524  13.0090923  40.5005608  12.4187164  12.7470207  39.4652100
  10.8672295  13.7553730  40.4846382  10.0553865  13.0831633  40.2068710
  10.5060225  14.3449202  41.8590240   9.5110760  14.7669563  41.7173653
  10.4808121  13.6562109  42.7035027  11.1220913  15.2109938  42.1008301
  10.8693295  14.8369379  39.4376488  11.1631269  14.3738432  38.4956665
   9.8613319  15.2153921  39.2679329  11.5019932  15.7112617  39.5905914
  13.2662210  13.9259758  40.9746208  13.6111422  14.1474524  42.1312790
  13.9150610  14.6564293  40.0635490  13.6793804  14.4274311  39.1085014
  14.7876616  15.8479633  40.2643013  15.6992188  15.7084475  40.8454208
  15.3496857  16.3141155  38.8745842  14.5030775  16.4169369  38.1957741
  15.7953100  17.3081760  38.9114761  16.4139099  15.4473209  38.2521324
  17.7324390  15.4858694  38.6469955  18.0706673  16.1801262  39.4019890
  18.6122379  14.5150299  38.1339836  19.6556149  14.5110865  38.4128265
  18.1589336  13.5908756  37.0930672  18.9070168  12.9546680  36.6436081
  16.9366493  13.7418432  36.4883766  16.7167168  13.1657047  35.6017532
  16.0988426  14.6958895  37.0868301  15.1251745  14.8484020  36.6451187
  14.0621967  17.1048737  40.8371277  13.2346773  17.6891232  40.1250153
  14.3202620  17.5832024  42.1177750  15.1751833  16.9744930  43.1575470
  16.1493053  17.4625244  43.1893730  15.3206530  15.9056377  43.0010681
  14.4314480  17.2646313  44.5079346  15.0961123  17.2944107  45.3713188
  13.6421843  16.5323238  44.6779099  13.8343391  18.6400719  44.2398643
  14.6653032  19.3260117  44.4044495  12.9773941  18.8151646  44.8903160
  13.4556932  18.6408367  42.7064362  12.3895559  18.4140091  42.7061234
  13.6676321  20.0357246  42.0891991  12.8594437  20.9530811  42.3778648
  14.6719971  20.2030315  41.2078323  15.2770853  19.4137897  41.0315781
  14.9045172  21.4902058  40.5465584  15.0504017  22.2708549  41.2931519
  16.1496277  21.3674564  39.6540985  16.2296886  22.2799969  39.0633583
  16.9962044  21.1701069  40.3117142  16.0097313  20.5804214  38.9130821
  13.6923056  21.9658318  39.6730118  13.4336424  23.1870079  39.5039215
  12.9032841  20.9884605  39.2405930  13.1026630  20.0899792  39.6566200
  11.7334785  21.2717361  38.3915443  12.0618782  21.8483677  37.5268173
  11.1359453  19.9385109  37.8951721  10.8936424  19.3477707  38.7785835
  10.1930180  20.1353378  37.3850212  12.1097469  19.0727158  37.0932655
  12.5818796  19.7231369  36.3569641  12.7968283  18.7791348  37.8868828
  11.4335299  17.8804512  36.3499260  10.8678436  17.3029003  37.0810432
  10.8497925  18.2799072  35.5205956  12.4456816  16.9093189  35.8350677
  13.1585855  17.3218632  35.1211510  12.9269981  16.6482315  36.7775459
  11.7529945  15.7859640  35.1182976  11.0172644  16.0859661  34.4947586
  12.3952990  15.3869982  34.4486847  11.4191103  15.0854788  35.7647781
  10.6320114  22.0351543  39.1672249  10.0082073  22.9229736  38.5753326
  10.4839535  21.8591862  40.4826126  11.0067415  21.1777821  41.0141068
   9.6294155  22.7067490  41.2924500   8.6258183  22.6993885  40.8671989
   9.4119673  22.1131897  42.6859131   8.9521179  21.1249409  42.6841698
  10.3859930  21.9988575  43.1616249   8.8728943  22.8246613  43.3114586
  10.0820141  24.1311073  41.4171028   9.2699776  25.0002613  41.8151321
  11.3754635  24.4772530  41.1729202  12.0773163  23.8358097  40.8322525
  11.9346228  25.8731365  41.0576363  11.4892454  26.4301891  41.8819160
  13.4615364  25.9880581  41.1410332  13.9183702  25.5103436  40.2743225
  13.8776598  27.4406242  41.0575790  13.5519238  27.8901730  41.9956093
  14.9558792  27.5994072  41.0393867  13.5170650  27.8398266  40.1095772
  13.9984245  25.2981968  42.4146996  15.0827341  25.4094486  42.4147148
  13.6225080  25.7195206  43.3470459  13.6974497  24.2673588  42.2279205
  11.3691139  26.4986839  39.7964211  11.0518570  27.6690807  39.7805634
  11.1439400  25.7540512  38.6916275  11.4789047  24.8012600  38.7009468
  10.4169827  26.1924095  37.4951477  11.0071392  27.0173340  37.0960045
  10.3262844  25.1713142  36.3961296   9.6893053  24.3254452  36.6547318
   9.8578558  25.6806679  35.5539703  11.6866570  24.7601433  35.9593964
  12.2486143  25.6416492  35.6507645  12.2606220  24.2662125  36.7434235
  11.6669035  23.8123894  34.8270874  11.1253109  22.9264755  35.1586533
  11.2069044  24.3610611  34.0052223  13.0238810  23.4444866  34.4358253
  13.7271824  24.0456333  34.8409081  13.4059744  22.5492134  33.4920807
  12.5986900  21.6709976  32.8923378  11.6199961  21.7424870  33.1314087
  12.9553461  20.8052559  32.5136719  14.6095610  22.1856537  33.2679710
  14.7863770  21.3941193  32.6660423  15.3953638  22.6851673  33.6592484
   9.0040207  26.6999454  37.7778015   8.5580044  27.5697041  36.9719887
   8.3749866  26.3304062  38.9107590   8.7341404  25.5957050  39.5034866
   6.8934655  26.6395874  39.1059456   6.4574037  26.4412842  38.1268463
   6.2273822  25.7061081  40.1336212   6.5640912  26.0346851  41.1168633
   5.1609588  25.9279366  40.1740379   6.4003215  24.2565117  39.8625565
   7.4091487  23.9150524  39.6306648   5.9916954  23.6602955  40.6784325
   5.5349860  23.8077030  38.6878128   4.2737956  23.9377480  38.8940620
   6.0518303  23.4256363  37.5920525   6.5230732  28.0916824  39.4963303
   5.3980951  28.4180450  39.7568398   7.5154514  28.9928818  39.4089508
   8.3859901  28.6333771  39.0442314   7.2469234  30.4007549  39.6315498
   6.1788087  30.5786648  39.7563629   7.9799376  30.7162418  40.9720726
   9.0347872  30.5166779  40.7834816   7.7730398  31.7785606  41.1016045
   7.5905252  29.8591022  42.1995697   6.6407957  29.3377094  42.0801392
   8.6607056  28.7839489  42.6173553   9.1723261  28.4084206  41.7311707
   9.3744678  29.0701904  43.3898277   8.1623974  27.9347305  43.0849228
   7.4786482  30.8038788  43.4110413   6.6782475  31.4888535  43.1312752
   7.2687860  30.2206116  44.3076210   8.3766699  31.3822594  43.6281509
   7.8293581  31.1795940  38.4313927   8.9380836  30.9304905  37.9920158
   7.1023545  32.1132355  37.8587799   6.1780114  32.3320770  38.2019920
   7.5650616  32.7538414  36.5509071   7.4643621  31.9807873  35.7891006
   6.5183268  33.7729034  36.2371483   5.5294070  33.3460846  36.4043694
   6.6342564  34.6277428  36.9034195   6.6844873  34.3393974  34.9356918
   5.8539038  34.7618179  34.7048378   8.9192076  33.4057732  36.5563965
   9.1577034  34.3215866  37.3499184   9.9299402  33.0176506  35.7237663
   9.7752943  32.1385384  35.2511749  11.2428322  33.5371590  35.6674347
  11.6358500  33.3816185  34.6627235  11.2973089  34.5837936  35.9669151
  12.2795887  32.8190193  36.6224098  13.4882078  32.8232307  36.4074783
  11.8724766  32.1033669  37.6592522  10.8773165  31.9733906  37.7727089
  12.7514458  31.3098869  38.5456161  13.5052204  31.9558811  38.9957504
  11.9738789  30.9101810  39.8071861  11.1227379  30.3690338  39.3938789
  12.5508337  30.1997070  40.3991737  11.5503902  32.0839348  40.6751328
  10.6451435  33.0318832  40.3200073  10.0484018  32.9647560  39.4223480
  10.6519527  33.9813499  41.3899536  10.0720348  34.8080063  41.3690948
  11.6723909  33.6801720  42.3515129  12.2073593  34.3820915  43.4576149
  11.7299280  35.2748489  43.8337021  13.3411932  33.7507553  44.1571159
  13.6865015  34.0825996  45.1251259  13.8056545  32.4770660  43.7172699
  14.6958399  32.0927620  44.1929703  13.3356810  31.8320293  42.5464478
  13.7048101  30.8684521  42.2276039  12.2208529  32.4107399  41.9139023
  13.4035378  30.0830746  37.8850250  14.4325161  29.5815315  38.4116440
  12.8692474  29.6386318  36.7783432  11.9864912  30.0121765  36.4600525
  13.5797005  28.6193619  35.9460297  13.5768328  27.6753597  36.4909630
  12.7486820  28.3480701  34.7276764  13.2391119  27.4609566  34.3269081
  11.7570019  27.9878693  35.0014038  12.5213423  29.3984661  33.6489601
  12.0186224  30.2592392  34.0899200  13.5131197  29.6397610  33.2665291
  11.7394314  28.9221592  32.4478836  11.1209440  27.8588181  32.3862534
  11.7518749  29.5855083  31.3234520  12.2785873  30.4429588  31.2371273
  11.1411572  29.1740875  30.6321774  15.0305882  29.0689259  35.5122681
  15.9347296  28.3216190  35.5128136  15.2423792  30.3946285  35.3397484
  14.5363350  31.0407066  35.6625214  16.5341167  30.9000912  34.9554329
  16.9387188  30.1850739  34.2390900  16.4423389  32.2932625  34.3039818
  16.0230331  33.0052338  35.0148849  17.4625206  32.5717468  34.0398369
  15.5423660  32.2078094  33.0411644  16.1702843  31.8105946  31.7949848
  17.1975117  31.4826279  31.7346306  15.3905058  31.8413982  30.6219330
  15.9432154  31.7055016  29.7040844  14.0435438  32.0877342  30.6417866
  13.1824398  32.1649399  29.5648193  13.5700598  32.4931488  28.7501850
  13.4275856  32.5040436  31.8960609  12.3672037  32.6973991  31.9639225
  14.1800232  32.6430206  33.0316772  13.7581205  33.1016579  33.9137459
  17.5376873  30.8240929  36.1379280  18.7727566  30.9675865  35.8767776
  17.1220760  30.5865822  37.3980370  16.1671791  30.3223629  37.5941467
  17.8990765  30.7506809  38.6127243  18.4305172  31.6991863  38.6902237
  17.0177307  30.6709194  39.7786064  16.3233910  29.8314171  39.8136597
  17.7201786  30.4105930  41.1143799  17.0281963  30.4450817  41.9558525
  18.2534180  29.4610977  41.0672951  18.4472294  31.2056046  41.2800713
  16.2007294  31.9490910  39.8662033  15.7971382  32.1758614  38.8793945
  15.3264265  31.8130398  40.5027428  16.8167439  32.7905884  40.1832428
  18.8911438  29.5469379  38.5577164  18.4180622  28.4087601  38.4192123
  20.2109737  29.8535023  38.7780228  20.6766491  31.2354259  38.9346619
  20.4450150  31.6293850  39.9242287  20.4297581  31.8560867  38.0733032
  22.1661396  30.9961319  38.8107796  22.6853142  31.7939377  39.3418732
  22.3551388  31.0933113  37.7416954  22.5679684  29.6173420  39.3109360
  22.7714462  29.6823235  40.3798027  23.3610744  29.3186111  38.6254845
  21.2732334  28.8328552  39.0117111  21.4024658  28.1739559  38.1530800
  20.8881760  27.8889637  40.1932068  20.9317665  28.3032513  41.3644943
  20.5346146  26.6285000  39.9046516  20.5075130  26.3719730  38.9281502
  20.2470512  25.6023865  40.9500389  20.7670727  25.9797115  41.8305511
  18.7132473  25.5706406  41.2502785  18.3203106  26.5824661  41.3498383
  17.8315239  24.9705219  40.1816177  17.8018799  23.8811779  40.2049675
  16.7875118  25.2704277  40.2721672  18.2057095  25.3982544  39.2514915
  18.4149933  24.8342915  42.5566139  17.3308220  24.9409790  42.5925255
  18.5995045  23.7672005  42.4326172  18.9723148  25.2972946  43.3709335
  20.7273693  24.1424465  40.7344170  20.6092339  23.6915970  39.5919380
  21.2036114  23.4402657  41.7123184  21.2987480  23.8785686  42.6172714
  21.2773075  21.9689045  41.7312584  20.5192623  21.5706806  41.0568047
  22.6221466  21.4961720  41.1947174  22.8118515  21.9916668  40.2425613
  23.7364521  21.7283077  42.1313210  23.8005028  21.1412678  43.0474968
  24.6485729  21.4733963  41.5917282  23.8179245  22.7966881  42.3313942
  22.7514133  20.1441250  40.8694344  23.6369648  19.9743443  41.1989403
  21.0704441  21.3710938  43.1385612  20.7849293  22.2217274  44.0053406
  21.0415211  20.0781841  43.2903519  21.2622147  19.4014950  42.5737762
  20.8359299  19.4087772  44.5357857  20.5238914  20.0828724  45.3334885
  19.7292042  18.3221111  44.3320427  18.9090939  18.7304173  43.7414436
  20.0532875  17.4652843  43.7413483  19.1859303  17.8617954  45.9940605
  18.9913998  16.5468140  45.8603516  22.1190586  18.7258434  45.0027351
  22.9694195  18.3843155  44.1564865  22.2451134  18.3863735  46.3294640
  21.4881630  18.6362743  46.9496841  23.2000732  17.3420181  46.7106705
  23.3976135  16.6997662  45.8524208  24.4592705  18.0317917  47.2657471
  25.0644417  17.2222023  47.6737099  24.9716282  18.3769035  46.3676987
  24.3611183  19.2660446  48.2687187  23.3497810  19.6132584  48.4802437
  24.7472439  19.0249538  49.2591133  25.3187027  20.7639122  47.7140427
  24.2211781  21.1648617  46.3452110  23.1663399  21.1216125  46.6164246
  24.5206890  22.1366920  45.9528656  24.4522743  20.4409237  45.5637970
  22.6876488  16.4446754  47.8932953  21.8604240  16.9425240  48.6569862
  23.2316227  15.2055225  47.9733925  23.9887791  15.0045300  47.3358841
  22.7521935  14.2610703  48.9589958  21.6723633  14.2811613  48.8118057
  23.2855206  12.8395119  48.7715454  23.2440014  12.6378231  47.7011719
  24.3146324  12.7110205  49.1069832  22.4587841  11.7879868  49.4629173
  22.5726166  11.7952700  50.5469322  21.4221783  11.9677954  49.1779251
  22.9579544  10.4788370  49.0013351  22.4431953   9.9122400  48.1135521
  23.9495258   9.8360167  49.6828003  24.5111485   9.1139402  49.2546768
  24.1566467  10.1583767  50.6172981  22.9206181  14.7598162  50.3997803
  23.9820309  15.4093628  50.6466637  21.9739342  14.6276484  51.2962265
  21.1559486  14.1586294  50.9342575  22.2217102  14.6941833  52.7218781
  22.4561481  15.7422886  52.9079285  20.7591381  14.4635744  53.2733269
  20.0569458  15.1032391  52.7386742  20.4369202  13.5014210  52.8751602
  20.6138096  14.6334391  54.8292351  19.8738136  13.9261456  55.2037239
  21.5849018  14.4124527  55.2722321  20.0752697  16.0481567  55.2189865
  20.8463058  16.8158379  55.8957901  18.9551544  16.4296474  54.8334198
  23.3298187  13.7728424  53.2304955  23.4028645  12.5817604  52.7892494
  23.9937840  14.1227570  54.3375435  23.7761726  15.0161028  54.7554893
  24.8513851  13.2730627  55.1060257  25.7019539  12.9484921  54.5066185
  25.2933178  14.1406155  56.3017807  25.4003773  15.1868067  56.0152092
  24.4933224  14.2182360  57.0380440  26.5137825  13.6276073  57.0098839
  26.2267647  12.6781921  57.4619179  27.2789345  13.4986544  56.2443695
  27.1304302  14.8119545  58.2914963  28.1572933  13.5867691  59.1868744
  28.5300789  12.8892927  58.4367714  28.9209919  14.0190268  59.8334274
  27.4889679  13.0729389  59.8778381  24.1219044  12.0046167  55.6725960
  22.9613800  12.1406307  56.0464554  24.8832912  10.9002790  55.9073334
  25.7100201  10.7017441  55.3621712  24.2718925   9.6631441  56.4243164
  23.2745934   9.5796423  55.9924393  25.1149311   8.4213724  56.0100098
  25.3958645   8.6853685  54.9904556  26.0146122   8.3485003  56.6210403
  24.3650799   7.0857201  55.8404732  25.0826035   6.0885692  55.9088974
  23.1836910   7.0650344  55.4179955  24.1933537   9.5703478  57.9924889
  24.4319286   8.5273781  58.6027756  23.7939110  10.6386642  58.6163864
  23.5526695  11.4261942  58.0318375  23.2768841  10.5101748  60.0009689
  24.1429977  10.1688223  60.5679245  23.0991974  11.8440523  60.7271004
  22.2742767  12.3332319  60.2091103  22.9718056  11.7880707  62.2423363
  23.8850956  11.3874092  62.6821823  22.7653427  12.8133392  62.5494156
  22.1799717  11.0853071  62.5015945  24.5022316  12.6124973  60.5860710
  25.3378792  12.1849651  61.1401520  24.7228374  12.6889896  59.5213737
  24.3971233  13.6214743  60.9848366  22.0828438   9.6312962  60.0061569
  21.0174122  10.1685772  59.6321831  22.1957092   8.4564610  60.5558548
  23.1445389   8.1968250  60.7847862  21.0421467   7.5686898  60.6053352
  20.5487518   7.5965319  59.6337929  21.4355927   6.1709170  61.0118561
  20.4865627   5.6691546  61.2007599  22.1970158   5.2872748  59.9427872
  21.8127041   4.2867227  60.1410294  21.9098988   5.6381350  58.9515457
  23.2588062   5.4626961  60.1157913  22.1756821   6.0685220  62.2213516
  22.2244549   5.1178207  62.3454018  19.9444714   8.0352726  61.5894775
  18.8023682   7.5378561  61.4926605  20.2409420   8.8863993  62.4955025
  21.2289562   9.0086508  62.6657410  19.2776527   9.5725660  63.4099960
  18.3064861   9.0792980  63.3697205  19.7063198   9.6524134  64.4089813
  18.9272346  10.9809732  62.9317017  17.9490643  11.5542917  63.4366837
  19.5308399  11.4950333  61.8183975  20.4035664  11.1039495  61.4935875
  18.8891087  12.4740801  60.9095192  18.7912827  13.4718742  61.3372307
  19.4831505  12.6849957  60.0202866  17.4985619  12.0771284  60.4001541
  17.2615395  10.8868570  60.1969795  16.6423130  13.0368023  60.0847969
  16.8994370  14.0026121  60.2303886  15.3532114  12.8288231  59.5291977
  14.6788483  12.2417221  60.1526146  14.7160063  14.1755466  59.1617432
  15.4979563  14.8345108  58.7843552  13.9246387  14.1239948  58.4139595
  14.1582451  14.8865137  60.3867874  14.6746235  14.4633512  61.2484055
  14.2935743  16.3189430  60.5429535  15.3414326  16.6121273  60.6073112
  13.8422089  16.8461666  59.7024727  13.8384924  16.5922871  61.4949417
  12.7070217  14.5689955  60.6306458  12.5224895  13.5188990  60.4040451
  12.3873672  14.8422766  61.6362495  12.0666933  15.0972462  59.9242210
  15.3763466  11.9170160  58.2425079  16.2480984  12.0774412  57.3170280
  14.3822117  11.0195026  58.1361160  13.7736950  10.9531345  58.9394836
  14.0611897  10.3117008  56.9343071  14.9245443   9.9889240  56.3524628
  13.4307461   8.9713535  57.2288895  12.4208107   9.3088932  57.4616966
  13.3219337   8.4985199  56.2528305  14.0126791   8.0141706  58.3423767
  13.6060228   8.3567076  59.2938995  13.5878696   7.0383415  58.1069946
  15.5212345   7.9423866  58.2121201  15.8482237   7.5640912  57.2435799
  15.9443569   8.9243250  58.4239388  15.9575396   6.9912071  59.3459778
  16.0885696   7.6024771  60.2388840  15.1624775   6.2467084  59.3871956
  17.3331356   6.4917331  59.0777893  17.9419804   7.2749133  58.8879547
  17.5924129   6.0771089  59.9615135  17.2536221   5.8186316  58.3289833
  13.2493753  11.1868286  55.9524956  12.5027075  12.0631866  56.3919182
  13.3056669  10.8362417  54.6446648  13.8350296  10.0210333  54.3702354
  12.3750687  11.4343014  53.6363373  12.7770281  11.2294378  52.6440887
  11.0208569  10.7498379  53.6848907  10.4527330  11.0640297  54.5604591
  10.5057211  11.1172590  52.7973442  10.9824705   9.1921053  53.5567131
  11.4763346   8.9319897  52.6204758  11.6090679   8.7118902  54.3082924
   9.5065250   8.8080807  53.5250626   9.0902796   9.1474876  54.4735641
   9.1421728   9.1764822  52.5660896   9.2435236   7.3183436  53.4839516
   9.4790440   7.0055695  52.4667015   9.9439907   6.8749561  54.1916618
   7.8427563   7.0275664  53.9264565   7.1720572   7.5560408  53.3870277
   7.5015731   6.1043549  53.6997948   7.7830977   7.2376490  54.9125633
  12.2633877  12.9831905  53.5892105  11.1966019  13.5312777  53.4317627
  13.2868328  13.7248316  53.8484650  14.1412220  13.2072506  53.9975510
  13.3661747  15.1377916  54.0569916  12.3650808  15.5498781  54.1838760
  14.1564293  15.3472319  55.4067993  13.6408005  14.7380619  56.1491890
  15.1107874  14.8236704  55.3503799  14.2138081  17.1250725  55.8301582
  12.9622850  17.5377026  56.0499802  14.0916014  15.8226347  52.8903008
  15.0918407  15.2895641  52.3668289  13.6155558  17.0263233  52.5830841
  12.8485193  17.4356480  53.0970993  14.1402235  17.9660339  51.5795631
  15.0499945  17.5469227  51.1497231  13.1537428  18.2215347  50.3591614
  12.1547384  18.4127121  50.7510071  13.7034111  19.2719498  49.3700714
  12.8754702  19.5474968  48.7168541  13.8483219  20.1462383  50.0046730
  14.6083317  18.9814835  48.8363571  13.0514364  16.8495197  49.6298981
  14.0553904  16.5251884  49.3560600  12.6358690  16.0738277  50.2731056
  12.1698399  16.8478966  48.4320030  12.2137184  15.8245935  48.0591316
  11.1427450  17.1834850  48.5753784  12.5747242  17.4679546  47.6321907
  14.6334362  19.1793003  52.3663521  13.9874201  19.6400967  53.2531319
  15.6891079  19.7804623  51.8925667  16.0233669  19.3597202  51.0373764
  16.2741203  21.0413475  52.4268188  15.4633541  21.5294476  52.9676704
  17.3923073  20.7048988  53.4625664  17.8576336  19.7227917  53.3786774
  18.2673855  21.3275814  53.2765465  16.9535427  20.8371372  54.8425293
  16.8093624  21.9158115  54.9040108  15.9848213  20.3543644  54.9713974
  17.9739552  20.3827381  55.9200325  18.9736462  20.6387653  55.5690765
  17.6496487  20.9123020  56.8158493  17.8863640  18.9159431  56.1533661
  17.8796844  18.2602882  55.3851395  17.9280663  18.3568211  57.3226089
  18.1156673  19.0297050  58.4277496  18.2729397  18.5946484  59.3255768
  18.4166012  19.9906502  58.3494835  17.9587078  17.0734768  57.4291077
  18.3529110  16.7117367  58.2857590  18.1355476  16.5808544  56.5653076
  16.6886482  21.8970242  51.2444458  16.8923588  21.4458389  50.1262817
  16.5356541  23.2457867  51.4438896  16.2949333  23.5891838  52.3627090
  16.7180328  24.2235622  50.3195381  17.3490448  23.7757607  49.5518188
  15.3783369  24.6136894  49.5627670  15.6163712  25.0740490  48.6038589
  14.3610916  23.4424725  49.2534485  13.6744900  23.7270603  48.4561462
  15.0251226  22.6380348  48.9371567  13.8497038  23.0194778  50.1181221
  14.5418549  25.6572952  50.3369446  14.1154985  25.1558304  51.2057724
  15.1993570  26.4735699  50.6360931  13.7494202  26.0658436  49.7098541
  17.4063187  25.4889202  50.8394051  17.2097645  25.7614937  52.0238800
  18.1765385  26.2392235  50.0725403  18.5297356  25.9918060  49.1592293
  18.7165108  27.5081558  50.4635963  18.0069275  27.8922157  51.1964569
  20.0163765  27.2969742  51.1947823  19.6815872  26.7510605  52.0768204
  20.6988964  26.6821899  50.6080017  20.7534904  28.6133327  51.5360565
  21.2101574  29.0160027  50.6319466  20.0209579  29.3154716  51.9341736
  22.0632515  28.5392284  52.7545586  23.4057045  27.9106464  51.7163467
  23.5544453  28.6576900  50.9366646  24.3874226  27.7883663  52.1739235
  22.9678459  27.0157719  51.2740898  18.8353825  28.3762512  49.2633018
  19.2938385  27.9200325  48.2355499  18.5787239  29.6546574  49.5354309
  18.2006531  29.9024086  50.4386368  18.7125931  30.6669159  48.5881348
  19.1192913  30.2332554  47.6745529  17.3592796  31.2922077  48.1746330
  16.5993443  30.5149689  48.0940208  17.0753250  31.9311771  49.0108147
  17.3469715  32.1715355  46.9590874  18.2392521  32.7975807  46.9581108
  17.1324482  31.5830173  46.0670471  15.8887959  33.2884674  47.0388031
  14.5201187  32.1044693  47.0946503  14.6806402  31.2585278  46.4262886
  14.4853611  31.7159157  48.1124535  13.5707235  32.6024323  46.8977242
  19.8066158  31.6881618  49.0303879  20.0263100  31.8699570  50.3071136
  20.4847221  32.3019638  48.0285721  20.2051430  32.0466652  47.0922165
  21.4733925  33.3476944  48.2482071  21.5954113  33.5382500  49.3144608
  22.8731976  32.9546318  47.7471313  22.8981476  32.7886925  46.6701241
  23.9883842  33.9066696  48.0677299  24.0716171  34.2147560  49.1099625
  24.9290180  33.4136887  47.8222122  23.9298611  34.7512436  47.3811646
  23.1353550  31.6672535  48.1301384  23.2383347  31.7845936  49.0773582
  21.0513420  34.5725899  47.3866158  20.9749680  34.5126724  46.1395340
  20.8955936  35.7787247  47.9854622  21.1225281  35.8259888  48.9685020
  20.1944885  36.9291153  47.3151131  20.5553303  36.8454170  46.2899857
  18.6384125  36.6370354  47.3557320  18.3826294  35.6969452  46.8669472
  18.0218620  36.4747238  48.7755966  18.4325581  35.6018791  49.2831192
  18.2517395  37.3167610  49.4284592  16.9461403  36.3000221  48.7555771
  17.7470951  37.7803345  46.7661133  17.7352123  38.5810623  47.5055695
  18.1619606  38.1093750  45.8133698  16.7236443  37.4258499  46.6436691
  20.6408501  38.3152542  47.7177963  21.0957012  38.4276428  48.8231354
  20.6570454  39.3569450  46.8023605  20.3824158  39.2460747  45.8367577
  21.1100655  40.7077866  47.1689491  21.9191666  40.5550575  47.8831825
  21.6259251  41.4548607  46.0042114  21.9252243  42.3588753  46.5345764
  22.4905453  40.9426918  45.5820541  20.7447548  41.8799629  44.8796501
  20.4868183  41.0114555  44.2736244  19.7889576  42.1512489  45.3279266
  21.2137260  43.0941315  44.1121330  22.2949791  43.6192513  44.3409157
  20.3491802  43.6831894  43.2680817  20.4973774  44.6338158  42.9607544
  19.4941158  43.1758461  43.0904160  20.0021076  41.4559517  47.9836578
  18.8655853  41.5851288  47.5723419  20.3395519  42.0089188  49.1697502
  21.2969913  41.9469109  49.4852867  19.2613621  42.5484505  50.0839310
  18.5111179  43.0074539  49.4400749  18.5349674  41.4198341  50.8078308
  17.8975029  40.8378868  50.1421928  19.4573822  40.4385529  51.4832115
  20.2403698  41.0090141  51.9828186  19.0163689  39.8550186  52.2913589
  19.9090996  39.7901039  50.7324944  17.6632843  41.9652176  51.8065109
  16.8760777  42.2749329  51.3526535  19.7606697  43.6748085  51.0701981
  20.8471279  43.6543961  51.5937080  18.8973904  44.5885696  51.4108086
  17.9655437  44.4498100  51.0467949  19.0621052  45.5721397  52.4753723
  20.1237469  45.7908592  52.5902214  18.3164825  46.9010506  52.1242905
  17.3256550  46.6408424  51.7519264  18.1111240  47.5742455  52.9565964
  19.0031528  47.6619339  50.9486008  20.2233639  47.8636284  50.9501076
  18.3030701  48.2544403  50.0691681  18.5740585  45.1484871  53.8554955
  18.8569908  45.8446960  54.8515167  17.7558422  44.1085281  54.0773582
  17.6385345  43.4625626  53.3098488  17.2414017  43.7215500  55.3909149
  16.9008942  44.6166801  55.9113922  16.0083561  42.7634010  55.0624313
  16.3200417  41.8107452  54.6341782  15.2079363  42.2762375  56.2965202
  15.9035282  41.7662697  56.9629936  14.7142448  43.1685181  56.6814919
  14.4424238  41.5644836  55.9874954  14.9779053  43.4254456  54.1469536
  14.6791935  44.4248009  54.4634323  15.3369007  43.4282913  53.1177711
  14.0793905  42.8087311  54.1260567  18.2510872  42.9668884  56.2677765
  18.9060745  42.0407028  55.6600380  18.5921726  43.3342628  57.5642700
  17.7416706  44.2177658  58.3700905  16.7173252  43.8649673  58.2502975
  17.8630199  45.2025223  57.9188271  18.1833324  44.0496216  59.7918396
  17.6297264  43.2368317  60.2619400  18.0350208  44.9442291  60.3966408
  19.6561222  43.6462975  59.6643753  19.9512405  43.1204872  60.5724106
  20.2505646  44.5313416  59.4375839  19.6779690  42.7560768  58.4216118
  20.5866566  42.9443016  57.8498001  19.5308151  41.2945557  58.6979713
  18.3775539  40.7450905  58.5718040  20.6022739  40.6064453  59.0598564
  21.4504032  41.1548691  59.0574379  20.6487503  39.1861649  59.1389427
  20.6168957  38.7582092  58.1369705  22.0585976  38.8349075  59.6991997
  22.9060402  39.3982315  59.3085518  22.1283417  39.0465889  60.7661743
  22.4635448  37.3560905  59.6570358  21.8006496  36.7274513  60.2515831
  22.3739338  37.0602913  58.6117744  23.8911743  37.0556831  60.1569443
  24.3726349  37.3699837  61.2268791  24.6351547  36.4348450  59.2659531
  25.5447540  36.1541367  59.6035042  24.4592934  36.2204781  58.2947617
  19.4863739  38.5207787  59.9378128  18.9344883  37.5188255  59.5991783
  19.1058636  39.0979881  61.0663528  19.5761261  39.9542046  61.3229599
  18.2051430  38.5113945  62.1294785  18.3698215  37.4532356  62.3326454
  18.4108391  39.2271729  63.4428787  17.9265900  38.6988449  64.2641373
  19.4911118  39.2321739  63.5880890  18.0135155  40.6329842  63.4059258
  17.0069447  41.1471519  64.0039215  18.6943893  41.3260117  62.5993118
  16.7443752  38.6065941  61.6577644  15.9285316  37.8259926  62.0761948
  16.3768749  39.6171570  60.8683395  17.0618706  40.3101120  60.6024323
  15.0071211  39.8368683  60.3501015  14.2899408  39.4938393  61.0958138
  14.7530098  41.2710800  60.0575905  15.3715134  41.5571938  59.2068901
  13.7825050  41.4045105  59.5796623  14.7900724  42.2864037  61.2116852
  14.4114332  41.7432022  62.0775185  15.8224201  42.5561676  61.4343796
  14.0860500  43.6037445  61.1028214  13.0563717  43.6607399  60.4737816
  14.6126738  44.6682358  61.7821426  15.4391069  44.5620117  62.3529549
  13.9881763  45.4620132  61.7869377  14.6885586  39.0298615  59.1435127
  13.5424938  38.9376221  58.8102646  15.7550859  38.4228325  58.5120049
  16.6376991  38.6823235  58.9288483  15.5907373  37.5176888  57.4134064
  14.9872408  37.9849281  56.6352196  16.9001560  37.1309738  56.6652832
  17.5752716  36.8560333  57.4756699  16.7881222  35.9714127  55.5625343
  16.3046150  36.2864189  54.6378212  17.7692490  35.6276093  55.2349815
  16.3001289  35.0724449  55.9391174  17.4424953  38.3899117  55.9617920
  16.7226391  38.6084557  55.1730309  17.6697884  39.1851006  56.6718025
  18.8855000  38.3036423  55.2998352  19.1315937  39.2920570  54.9117889
  19.6413383  38.0023804  56.0251274  19.0269413  37.5877495  54.4901466
  14.8911600  36.2800598  57.9426079  15.2026463  35.7033043  58.9966583
  13.8971987  35.7828903  57.2260704  13.6576424  36.2497902  56.3630981
  13.0125875  34.6875267  57.5797997  13.0871401  34.3806038  58.6230354
  11.5500898  35.0897408  57.2770576  11.4763994  35.4793472  56.2617378
  10.8885765  34.2272530  57.3584213  11.0622091  36.2017593  58.2142868
  11.5989733  37.1174393  57.9662743  10.0371571  36.4255638  57.9188499
  11.1602621  35.8809509  59.7005730  12.2205133  35.8715363  59.9533195
  10.6724977  36.7188339  60.1987152  10.4910698  34.5767708  60.0545578
  10.1545238  33.9324455  59.3533554  10.5420961  34.0889854  61.2611008
  11.1084833  34.7178459  62.2467270  10.9859190  34.2683487  63.1428490
  11.6665535  35.5509529  62.1259346  10.0637436  32.8886986  61.5238380
  10.1125708  32.4488220  62.4317093   9.4458447  32.5409508  60.8045502
  13.2838469  33.3108025  56.8690147  13.0356016  33.0646820  55.7162247
  13.8165798  32.3470268  57.6163101  13.9212961  32.6503792  58.5739708
  13.9525299  30.8935585  57.3399582  14.2254705  30.8740730  56.2848663
  15.1504717  30.3037930  58.1152534  15.0455971  30.2674828  59.1995888
  15.4095182  29.3173027  57.7307587  16.3957138  31.2168884  57.9940605
  17.1771202  31.4347630  56.8738823  18.0632801  32.3458710  57.2322540
  18.7253914  32.8456688  56.5407295  17.7337341  32.8791313  58.3985634
  18.2957706  33.6273727  58.7784958  16.7251663  32.1688004  58.9321594
  16.3655643  32.2101746  59.9496918  12.6821575  30.1866817  57.6120148
  11.8735056  30.6618519  58.4616776  12.3211432  29.1233749  56.8975105
  12.9037580  28.8534679  56.1178894  10.9549112  28.6565571  56.8851967
  10.4332008  28.8847237  57.8146439  10.1539640  29.3076477  55.6812096
  10.8817110  29.3357658  54.8702240   8.9413605  28.4832878  55.3325348
   9.1815596  27.5080872  54.9089966   8.3066320  28.3774223  56.2123146
   8.3944998  28.8680210  54.4717026   9.8512230  30.7738934  55.9289246
  10.7995329  31.2963505  56.0548058   9.2881231  31.1860428  55.0915794
   9.2315989  30.9089680  56.8154488  10.8863363  27.1305695  56.7569580
  11.4801359  26.5610428  55.8486519  10.0626707  26.5868931  57.6570511
   9.8274069  27.3088226  58.3230629  10.1679010  25.1777725  57.8928833
  10.7040825  24.6631279  57.0955429  10.9375277  24.8142929  59.2340088
  10.4411469  25.3013859  60.0733223  10.9105272  23.7248917  59.2580185
  12.3744097  25.3087368  59.2416229  12.8082771  26.7008972  59.3660049
  12.1552124  27.5595856  59.4165993  14.1485395  27.0291767  59.3656349
  14.4781485  28.0572510  59.3942986  15.1318436  26.0380020  59.2506142
  16.4062634  26.4285774  59.2599335  16.9752121  25.7220230  59.5740662
  14.7312889  24.7085533  59.1560440  15.4350967  23.8896637  59.1342163
  13.3807459  24.3208866  59.2018356  13.1080914  23.2788601  59.2808418
   8.7542286  24.5173206  58.0177689   7.8318572  25.1661816  58.5494270
   8.5772047  23.3033962  57.4777451   9.3687973  22.8154163  57.0835915
   7.2812214  22.6617241  57.0694847   6.4926105  23.0858097  57.6910515
   6.9552035  22.8929863  55.6324081   7.7229404  22.4306908  55.0119553
   5.9989247  22.3991489  55.4598961   6.7461967  24.3842773  55.2493935
   7.6535506  24.9651299  55.4149857   6.4065871  24.4275417  53.7134209
   6.2913074  25.4404545  53.3276520   7.1431732  23.8229504  53.1842613
   5.5564084  23.7868042  53.4794540   5.6883812  25.2323055  55.9145699
   5.8819404  25.2303524  56.9872475   5.7198000  26.2850418  55.6337471
   4.7078018  24.8103123  55.6943779   7.3678837  21.1899490  57.2751236
   8.3990202  20.4922504  57.4468575   6.1687512  20.6609650  57.4556007
   5.3494339  21.2482853  57.3933601   5.8378763  19.2638149  57.7985954
   4.7611551  19.2485275  57.9675522   6.0535145  18.4164543  56.5713348
   7.1407824  18.3955536  56.4970970   5.7894926  17.3681545  56.7108612
   5.3973703  18.7304039  55.2440758   5.9501004  19.5237885  54.7409515
   5.4479313  17.7785473  54.7153854   3.9517810  19.2069492  55.2107849
   3.2265205  18.8303699  56.1382751   3.4471812  19.8056221  54.1829376
   6.6439714  18.8859234  59.0597916   6.7962837  19.7502079  59.9075546
   7.1427679  17.6053753  59.1892204   7.0156198  16.9805298  58.4059563
   7.8418889  17.1701622  60.4091682   7.1917048  17.2888012  61.2759361
   8.0805960  15.6793356  60.2289810   8.5897465  15.5372515  59.2757339
   8.7034340  15.2746611  61.0267334   6.7831192  14.8830423  60.1812019
   6.2455111  14.9882507  61.1235428   6.0902257  15.2854109  59.4422150
   6.9316258  13.4878416  59.8632774   7.2656555  13.4015989  58.8293114
   7.7355714  13.0728922  60.4712181   5.6191969  12.7719555  60.2548981
   5.5593328  12.9423885  61.3298264   4.7166467  13.2177267  59.8368187
   5.5353274  11.3312979  59.8498955   6.3922753  10.8211479  60.0095634
   4.8361187  10.6789932  60.1750221   5.3163610  11.3604183  58.8643456
   9.1096878  18.0153999  60.6825142   9.7345886  17.9139690  61.7382202
   9.5833616  18.8184357  59.7307777   9.0753860  18.8909874  58.8608398
  10.7339840  19.6638718  59.8028488  11.5026884  19.1419830  60.3727798
  11.3284082  19.7955265  58.3544121  11.1979418  18.8448963  57.8373146
  10.7333641  20.4563255  57.7240372  12.3955278  20.0078506  58.2890396
  10.5018463  21.0152493  60.4670029  11.3330803  21.7678204  60.9167252
   9.2655497  21.3592911  60.8039970   8.5928850  20.6894722  60.4590721
   8.8702641  22.5622196  61.6208534   8.9655190  23.4642353  61.0163651
   7.2749467  22.4824905  61.8304901   6.8777685  22.2269001  60.8481331
   6.9019170  21.3674583  62.7340317   7.2062345  20.4279156  62.2727890
   7.2952895  21.4699440  63.7453918   5.8261642  21.3343258  62.9065399
   6.5939798  23.8082943  62.3038940   5.5782866  23.6594486  62.6703873
   7.1605382  24.2300434  63.1340981   6.6162715  24.6125908  61.5685654
   9.6440191  22.6733303  62.9127159   9.8630857  23.7813454  63.4048882
  10.1043320  21.5749378  63.5096245   9.9151535  20.7146263  63.0154762
  10.8760443  21.5413494  64.8308105  10.3288088  22.0749073  65.6079559
  11.0886345  20.0939999  65.4065247  11.0592127  20.1470890  66.4948349
   9.7886639  19.2367344  65.1034393   9.6340046  19.1952686  64.0252609
   9.9711227  18.2026215  65.3957062   8.9113274  19.7097683  65.5445938
  12.3452559  19.3568535  64.9775925  12.3813133  19.2267551  63.8959885
  13.2646856  19.7363281  65.4234085  12.2591791  18.3295002  65.3314819
  12.2386780  22.2443409  64.7815552  12.7775211  22.6802902  65.7887878
  12.8059263  22.3388176  63.5309143  12.2643013  21.9950428  62.7508125
  14.2068100  22.8275013  63.3486557  14.7293186  22.5404434  64.2611694
  15.0073071  22.2790222  62.1158600  14.6375847  22.8187256  61.2440109
  16.0389938  22.5510674  62.3388290  14.8474331  20.7443428  61.9872437
  13.7973166  20.4547501  62.0258560  15.3006983  20.4345493  60.6154518
  16.2699356  20.8009853  60.2772217  15.4149485  19.3567104  60.5000763
  14.5515060  20.8389339  59.9347992  15.7671576  19.9462299  62.9235573
  15.4706402  20.3050919  63.9091530  15.6198063  18.8935375  62.6822548
  16.8176117  20.1519737  62.7178535  14.3873463  24.3374844  63.3026619
  15.4224730  24.9216633  62.9987068  13.3605642  25.1011963  63.4669342
  12.5053482  24.6242676  63.7144089  13.2325926  26.5361538  63.1960793
  13.7242432  26.7096214  62.2388420  11.7419901  26.8857746  63.1045837
  11.5569458  27.8760204  62.6883240  11.2944298  26.1904259  62.3944588
  10.9285517  26.6763000  64.3941193  11.0467091  25.6842709  64.8300323
  11.4248905  27.3360977  65.1057510   9.4790745  27.0623741  64.2686539
   9.4197578  28.0692081  63.8552856   8.9399948  26.4846859  63.5178070
   8.7503443  27.0911274  65.5244064   8.6559124  28.0458260  65.8402176
   8.2214918  26.0750580  66.1292496   8.3909502  24.8720837  65.6288834
   8.8422461  24.6380577  64.7561493   7.8938494  24.0953083  66.0407257
   7.5664034  26.1072121  67.2746048   7.4640703  25.2635994  67.8204422
   7.5275993  26.9892235  67.7651672  13.9921055  27.4570217  64.1750031
  13.9829054  27.1277485  65.3970642  14.6142330  28.5661926  63.7877541
  14.9059839  28.8671741  62.3989449  14.0560961  29.2860661  61.8601303
  15.3406506  28.0038357  61.8951492  15.9868393  29.9574051  62.4240150
  15.9078112  30.5777283  61.5312347  16.9580307  29.4776630  62.5454254
  15.7251768  30.6320477  63.7489815  14.9567080  31.4010391  63.6701927
  16.6103401  31.1228333  64.1536026  15.2555637  29.4991989  64.6669312
  16.1965599  29.0222931  64.9411316  14.3541412  29.9815617  65.7988281
  14.8087120  30.0152779  66.8892441  13.0475855  30.1600800  65.6068115
  12.7683802  29.9182072  64.6667938  11.9691477  30.5957012  66.5431442
  12.4164972  31.4108849  67.1118774  10.8028488  31.2514935  65.8017960
  10.2431746  30.4828701  65.2687988  10.0593424  31.5482082  66.5415649
  11.0710201  32.5360947  64.8959274  12.1905117  33.1581841  64.9192963
  10.0629129  32.9848595  64.2013779  11.5794926  29.3858318  67.5064316
  10.5709505  29.3274288  68.1318893  12.4230099  28.3771915  67.5605392
  13.2329254  28.4171314  66.9584198  12.3952656  27.2666988  68.5184708
  11.9328136  27.6384697  69.4328156  11.6324863  26.0502319  67.9439926
  10.6753626  26.4517040  67.6110687  12.2242594  25.6525173  67.1195374
  11.3563528  24.9603252  68.9367676  12.3089685  24.4890137  69.1786346
  10.6309900  25.5492725  70.1920090  10.3835831  24.7361317  70.8744278
  11.2106066  26.2547035  70.7874222   9.7283087  26.0170441  69.7990036
  10.5114622  23.8861008  68.2995529  10.8159008  23.7047100  67.2687759
  10.6233206  22.9666348  68.8741608   9.4654560  24.1919765  68.3197784
  13.7475681  26.7851410  69.0768356  14.0568018  26.7946472  70.3100815
  14.6387348  26.3549061  68.1522217  14.3816738  26.4565563  67.1807861
  15.9428225  25.7162781  68.4511490  15.7546282  24.8411198  69.0730667
  16.7282791  25.3033867  67.1415558  17.6952095  24.8656044  67.3895264
  16.0182095  24.7558861  66.5217514  17.2257538  26.4862785  66.5583954
  17.3342266  26.4195080  65.6068802  16.7808380  26.5567570  69.3481064
  17.3067303  26.1141415  70.3941269  16.8368683  27.9125729  69.1341629
  16.3693485  28.2448387  68.3028259  17.6893749  28.8470993  69.8516541
  18.7403679  28.5605297  69.8143768  17.7548981  30.1204491  69.0103912
  16.8963909  30.7751465  69.1601715  18.5070972  30.7953987  69.4187317
  18.0562515  30.1155090  67.4889526  17.1872253  29.6954060  66.9825897
  18.4246674  31.4988899  66.8749771  17.5260162  32.1104584  66.9556427
  19.1627274  32.0059471  67.4964752  18.6800575  31.3889828  65.8210373
  19.1824207  29.1964397  67.0617676  19.0403461  28.2277527  67.5408936
  19.1663475  29.0110950  65.9877625  20.0833015  29.6379642  67.4878845
  17.3295212  29.0137863  71.3541641  18.1998634  29.2939548  72.1654739
  16.0623512  28.7565212  71.6425323  15.5436153  28.4454269  70.8336868
  15.4019136  28.7878113  73.0049362  15.7659531  29.6652298  73.5394592
  13.8787832  28.9562492  72.9434433  13.5468025  28.0252132  72.4840317
  13.2262783  29.0675983  74.3004303  13.5413914  29.9923058  74.7838821
  12.1431189  29.0737591  74.1786575  13.4755268  28.2567120  74.9848557
  13.3549280  30.0192356  72.1553955  13.4101343  29.7754841  71.2285004
  15.7700310  27.5649433  73.9270935  16.0834274  27.7066212  75.0954056
  15.8163996  26.3513908  73.3625488  15.4149857  26.2297916  72.4437561
  16.1069717  25.0910454  74.0913849  15.2842073  24.9660511  74.7953262
  16.2474155  23.9174538  73.1032410  17.0603390  24.0683441  72.3929672
  16.4712143  22.9755936  73.6041489  14.9405317  23.7641983  72.3243027
  14.1876001  23.6846008  73.1084366  14.6591034  24.6162968  71.7055664
  14.9852457  22.4806194  71.5617142  15.8126192  22.4944305  70.8522339
  15.1775904  21.5872631  72.1558685  13.6531210  22.2105484  70.9567947
  12.9053726  21.9062214  71.6891556  13.2437229  23.1024551  70.4824448
  13.7456884  21.0525951  70.0049591  14.2862711  20.3532200  70.4935760
  12.8519697  20.6445160  69.7707748  14.2976570  21.2753162  69.1889801
  17.4104862  25.1330261  74.8825912  17.5363560  24.2717361  75.7417679
  18.4658298  25.9478207  74.5466232  18.2990990  26.5080910  73.7229691
  19.7109890  26.1721115  75.2771606  20.1176834  25.1641312  75.3588562
  20.4474850  27.0702477  74.3144226  20.1491642  26.7221107  73.3255310
  20.0299282  28.0770950  74.3168182  21.9608593  26.9784889  74.4921494
  22.5152302  26.3172779  75.4123611  22.7026653  27.6969833  73.6373672
  22.3075333  28.2537136  72.8930435  23.7104340  27.6591091  73.6927567
  19.5321732  26.7971382  76.6946716  20.4468517  26.7937469  77.4960022
  18.3055267  27.2161827  77.0145035  17.5378761  27.2099190  76.3581696
  17.9370098  27.6835155  78.3231277  18.7063560  28.3708115  78.6750336
  16.6502018  28.5510101  78.2529449  16.4713688  28.8994942  79.2701416
  16.7775288  29.7530041  77.3392029  15.8249350  30.1413422  76.9788513
  17.2643547  30.6134129  77.7983246  17.3814297  29.4935417  76.4696732
  15.5013113  27.8620892  77.8319778  15.6059103  27.8015747  76.8796158
  17.5261097  26.5708809  79.2003250  17.5705585  26.7148380  80.3900070
  17.3088264  25.3374748  78.6586075  17.2922707  25.2085514  77.6570053
  17.2895489  24.1312027  79.4914703  17.1149559  24.4418201  80.5215912
  16.0664082  23.2307281  78.9961090  16.0428391  23.1627769  77.9084854
  16.2430134  22.2402020  79.4153671  14.7351398  23.7739716  79.4640274
  14.8011856  24.1564522  80.4825745  14.4042053  24.5523777  78.7765121
  13.6007414  22.7455864  79.5687332  12.5985518  22.7757835  78.8246841
  13.6866331  21.9099865  80.5694046  18.5886288  23.2387638  79.4828644
  18.7025490  22.3767586  80.3461609  19.5397911  23.4215012  78.5605545
  19.3231640  24.1435623  77.8883896  20.7068157  22.6004124  78.3341980
  20.4469891  21.5570698  78.5131607  21.0842228  22.8206444  76.8104324
  20.2538090  22.5969925  76.1407318  21.4464550  23.8241234  76.5870056
  22.2392063  21.9206600  76.4231415  22.9495869  21.7554703  77.2331924
  21.6382866  20.5486755  76.1321640  22.4469090  19.9195271  75.7601471
  21.2231216  20.0754642  77.0220032  20.9361553  20.5905552  75.2994843
  23.0071163  22.5087109  75.2541504  23.9631805  22.0010872  75.1261902
  22.4341087  22.5394478  74.3274231  23.2889633  23.5454731  75.4379501
  21.9193020  22.9793072  79.2209625  22.3397846  22.1118279  79.9999847
  22.3828144  24.1179829  79.1021271  20.5056591  17.4010162  36.0271301
  19.8360214  16.5626297  35.8476257  21.2790699  17.2494583  36.7770576
  20.3582802  18.5646915  35.2926025  21.2765465  19.7567196  35.5262833
  21.1393814  20.7404270  34.8079567  22.2606392  19.7039623  36.2007828
  19.3784847  18.7686348  34.3456841  18.0708294  18.2648239  34.4576721
  18.1417789  17.1940746  34.6849403  17.3085098  18.4502735  33.1780891
  17.8357010  18.2080650  32.2578011  16.0250225  18.9577255  33.1704903
  15.3303137  19.2263393  34.4082489  14.2628212  19.3851147  34.2680588
  15.9722443  19.1690083  35.5763779  15.4341440  19.2787857  36.5154915
  17.4668255  18.9939919  35.6880264  17.9487324  19.9792309  35.7044640
  17.7192993  18.3592358  36.9487801  17.3696804  17.4515133  36.9719353
  15.2595034  19.0888329  31.8439064  15.8398333  18.7428379  30.8277836
  14.1561270  19.5749969  31.8507710  41.4580841  18.3801765  48.9744110
  41.6500969  17.4533749  48.4380379  41.9414787  19.3299122  48.7556419
  40.3360138  18.3966656  49.8081322  39.8351822  19.6199989  50.5913010
  40.2104530  20.7372379  50.2156754  38.9759903  19.5790901  51.4225235
  39.3928032  17.2855206  49.9279594  38.4679222  16.9291573  48.8045349
  37.8093910  16.0941544  49.0734253  39.2948341  16.5495625  47.6460457
  39.5710526  15.4978704  47.6118126  39.6380119  17.3993893  46.6668968
  39.1281319  18.7950974  46.6090736  39.5621643  19.5329704  45.9370918
  38.2715683  19.1693783  47.5750465  37.9062805  20.1876698  47.6898613
  37.6023865  18.1555424  48.5512123  37.4304924  18.6527691  49.5137138
  36.3133507  17.9589005  47.9683456  35.7119408  17.7284794  48.6976891
  40.5812111  17.0701485  45.5376053  41.3447762  16.1071873  45.6441574
  40.8421593  17.8928051  44.7022362  18.8119793  21.9733906  62.2687721
  18.3279438  22.9172001  62.5105553  19.2089920  21.4243011  63.1198959
  19.0571022  21.4515991  61.1207924  18.7093754  22.2996521  59.8740044
  18.5401611  23.4966087  60.0584488  18.7768021  21.7855797  58.7271347
  19.7155247  20.2943687  60.8765221  20.7140331  19.5858269  61.6854935
  21.0092278  18.6768227  61.1472015  20.2031250  19.1014118  63.0392303
  19.1541462  18.8145790  63.0691643  20.9525318  19.1188507  64.1758957
  22.2993221  19.7570019  64.1743622  22.8201504  19.6089687  65.1184082
  22.6723194  20.5448971  63.1380196  23.5470486  21.1908379  63.1042938
  21.9156494  20.5680275  61.8713837  21.4516964  21.5619411  61.8627090
  22.8653927  20.3810101  60.7967377  22.3803692  20.3847713  59.9532547
  20.4669418  18.4400349  65.4262619  21.1510773  18.2965012  66.4561234
  19.3130608  18.0389385  65.3976669  13.7002983   0.8678916  84.7055969
  35.6948776   0.7431659  49.3258591  29.3240147  45.5883713  79.9551010
  72.6053238  18.2272797  80.9241562  29.6941910  43.6265259  30.5534363
  71.1639099  36.8062363  82.5377045  38.6821175  59.4466057  66.3205795
  70.4871674  48.0433807  45.4538803   0.2627409  41.1964493  52.3315125
  22.3341961  65.9930191  41.8387985  22.8345528  65.2168808  42.0907478
  21.9992943  66.3408051  42.6653099  70.5475693  10.3013859  33.5490532
  70.6867752   9.4414301  33.1524048  71.4292297  10.6504154  33.6797562
  44.8517265  22.9054146  75.3691177  45.0936699  23.7843304  75.6610107
  44.2430649  22.5902233  76.0372620  49.5233841  56.5975456  14.5145597
  49.0532188  56.2333183  15.2645674  50.2348709  55.9777069  14.3538847
   8.5531607  64.1163483  87.6591110   7.6701531  63.8984566  87.9575272
   9.1249533  63.5301628  88.1547546  52.2032394   6.7492557  81.3677063
  52.3178329   5.8518252  81.6803055  53.0816650   7.1281462  81.4000320
  17.2441730  61.9410439  35.0259247  17.1542091  61.1996117  34.4272423
  18.1466637  61.8869286  35.3402672  36.2663155  50.6711960  41.6695938
  37.1648979  50.5157890  41.9605026  35.9400291  51.3549423  42.2546234
  73.8343277   4.1041918  53.3597450  73.7215500   3.2892721  52.8704376
  74.2164993   4.7124648  52.7271461  73.9735641  70.8466263  70.7959137
  74.7453995  70.6969528  71.3418961  74.2664413  71.4725113  70.1335526
  74.3429947  51.7056847  81.0257950  74.9376907  50.9729767  80.8654709
  73.5309143  51.4559288  80.5849152  55.0898247   4.7734575  16.9414711
  54.8555183   5.6024547  17.3587208  54.7611046   4.1027241  17.5400467
  38.3512535  11.3153458  77.5657883  37.4113503  11.4414177  77.6958771
  38.6298904  10.7959604  78.3199997  31.4661865  44.9612312  43.0553665
  31.5520477  44.0358047  43.2843742  32.2665825  45.1633263  42.5708504
  74.2611771  19.4981709  73.3585434  74.8503571  18.7516537  73.2498627
  74.7548065  20.1164360  73.8973389  57.1423874  33.8909378  86.0078354
  58.0519638  34.1556206  85.8705673  56.8325462  33.6384621  85.1380692
  77.3734665  60.0318985  57.6400146  76.4170151  60.0362396  57.6025467
  77.5968475  60.8124771  58.1469955  67.2181549  29.4542732  57.5333557
  68.1136169  29.4497261  57.1951866  67.2670975  29.9767628  58.3338814
  52.6307487  71.8139572  39.2430611  51.7549629  71.9563217  39.6021729
  52.5237770  71.0840530  38.6331177  11.5946350  25.2690506  79.4173355
  12.4253082  25.5666924  79.7883148  11.7170897  24.3299026  79.2786484
  59.4109802  20.4611778  75.5703278  59.1544495  19.8142548  76.2275314
  59.7683220  19.9420033  74.8499146  22.1475296  43.3623085  65.7328262
  22.9599590  43.1643066  65.2670059  22.4249496  43.5479240  66.6299438
  49.9866753  23.0273781  61.8460083  49.0799713  22.8585396  61.5898552
  50.5091362  22.6651611  61.1304207   2.4585235  36.2141533  13.5229864
   1.8943975  35.5876160  13.0697250   2.6036046  35.8254089  14.3855762
  41.3622398  29.8138256  19.6770840  41.3642311  30.7470551  19.4642239
  40.5439720  29.6789322  20.1550751  36.7841835  56.7323036  80.1689835
  37.0016136  57.4652252  79.5929794  35.8302155  56.6675186  80.1244659
  42.5917130  54.0040627  87.3582764  42.3072777  54.3226967  88.2149048
  42.3970909  54.7239914  86.7582321  66.3401413  52.8348236  40.7859573
  65.4078751  52.7834930  40.9968452  66.7811127  52.4998665  41.5667114
  73.9633789   5.8820853  27.2290096  73.3224411   5.3703341  27.7225094
  73.8655243   6.7740369  27.5622940  54.3304901  60.3192329   7.5802708
  54.6000061  60.5747604   6.6980586  55.1291199  60.3865242   8.1036158
  22.6735020  15.9667330  72.2618103  22.4421825  15.3992052  72.9970932
  23.5907097  16.1942234  72.4141541  13.5562859  56.1247635  39.9355011
  14.5108547  56.1266212  39.8646011  13.3759384  56.5886841  40.7531090
  80.2530518  11.4940081  24.8455181  80.3618011  12.4435158  24.8988152
  79.4819565  11.3107424  25.3822212  58.5515900  62.1993713  11.4891529
  58.9680099  61.6230888  10.8482742  57.8725586  62.6573944  10.9938135
  66.7762527   4.7198191   9.7321348  66.2232971   4.5235958   8.9758472
  67.6144104   4.9852133   9.3536034  19.3717308  58.3953781  66.5903549
  19.3157692  57.8853722  65.7822723  18.7569160  57.9677849  67.1865082
  81.5680084  69.0462494  10.6474485  81.9948578  68.2948761  11.0591145
  82.2747345  69.6766663  10.5083904  58.8422699  35.5612030  11.3413868
  58.1812782  35.0229187  10.9059944  59.4781609  35.7617607  10.6546164
  41.7368126  10.5724506  78.8973694  41.6586189  10.7455120  77.9591980
  40.9214745  10.1269264  79.1275101  74.2885742  61.0163918  28.6866760
  74.3665543  60.9549561  29.6387138  74.3387375  61.9543228  28.5022812
  65.3053665  27.2868080  13.6250086  64.6619415  26.8812122  14.2061577
  65.9925766  26.6271648  13.5309801  22.7170391  29.2079887  81.3687439
  23.5888634  29.6023445  81.3940277  22.6503334  28.8303337  80.4917297
  61.1387749  48.6561584  65.2369919  60.5660553  49.0319252  64.5683899
  61.7789612  48.1435432  64.7434082  49.2026443  62.8466873  56.3715515
  48.5736504  62.2156487  56.7213860  49.6643906  62.3680801  55.6831055
  15.2510853  68.2836227  85.5562515  15.4443216  68.1587372  84.6271133
  14.4631577  67.7620850  85.7092285  63.5779343  64.3437653  16.9040985
  62.7827873  64.6126251  16.4439983  64.2767410  64.4544754  16.2593937
  65.6904449  59.2112999  14.6881294  66.6103210  59.1092072  14.4439240
  65.2074661  58.7579613  13.9971561  45.1239548  47.1789360  39.6189461
  44.7582474  47.7096977  38.9112816  44.6170502  47.4280815  40.3917351
  85.7958374  40.4879036  65.9274292  85.0254822  40.2421646  65.4151840
  85.5018082  41.2239799  66.4640579  24.6900692  32.2864952   6.0362267
  25.4577770  32.1422729   5.4830031  23.9565773  31.9524651   5.5198488
  35.9406662  23.0569839   5.2548795  35.6720543  23.0936108   6.1728868
  36.0343513  22.1225262   5.0698366  25.1205769  44.3489075  21.0687504
  25.0137272  45.0992088  20.4840603  24.2551861  43.9407043  21.0951767
  70.3312454  23.2528305  50.4902420  71.0986481  22.9470634  50.9738045
  69.9366379  22.4550858  50.1379318  75.1291275  44.0238724  14.3692856
  75.0644226  44.9070778  14.0059729  74.2670975  43.8581390  14.7509413
  63.0341072  53.6378059  18.0420952  63.9298973  53.6594849  17.7054596
  62.9770050  52.8091583  18.5178185  82.1678467  43.2536201  42.5499802
  81.4687042  43.4959717  43.1571846  82.9190826  43.0653915  43.1125183
   9.4930182  67.7056885  75.9986649   9.6203756  68.3037720  75.2622452
  10.3796520  67.4813766  76.2811432  35.4371719  51.2961731  69.3983078
  35.7884636  51.9888458  68.8388214  35.1843147  51.7450485  70.2050400
  74.3313141  20.8670979  53.1144295  73.5618744  21.2624054  53.5242195
  74.0405807  20.6357136  52.2322922  65.7608643  56.2017403  10.7657299
  65.9930267  56.8563004  10.1070290  66.1511612  55.3891525  10.4438591
  65.2023621   7.0041451  69.0446548  64.4014893   6.6810780  68.6317902
  65.8734360   6.9150362  68.3679276  65.9654541  68.6008987  27.0074100
  66.5976944  68.5569458  27.7247467  65.1882095  69.0009766  27.3973656
  48.4483833  29.2194557  20.6274872  47.7878380  28.8479977  21.2122345
  49.0000877  29.7542229  21.1983452  51.1564522  42.8463173  27.1546574
  50.7563324  42.2010498  27.7375526  51.3236694  42.3656082  26.3439827
  67.4692383  24.1581669  40.7939148  67.4151688  23.4639454  40.1371307
  68.3949509  24.4011364  40.8099403  61.9402924  58.8310242  44.2388382
  61.1408348  58.3170280  44.1252213  62.6460037  58.2347450  43.9885292
  34.4112625  55.7304993  67.8674316  33.8705215  56.3737564  67.4091187
  34.7159462  56.1883926  68.6508408  55.7403488  65.1005402  23.1115284
  55.6345062  64.6280212  23.9372158  55.7798882  64.4137726  22.4459248
  11.5039864  16.5665359  30.5848866  11.9723711  15.7733631  30.3246479
  10.6118507  16.2698078  30.7645493  60.2835083  13.9312105  60.2649727
  59.9781799  13.1790981  59.7576904  60.7294693  13.5461760  61.0193558
   5.5996537  37.9899406  32.3120346   5.2462959  38.2216797  31.4531612
   6.4585390  37.6117516  32.1235657  62.1309395  49.2308807  74.0434570
  61.6390762  48.4143677  74.1306610  62.9877281  49.0360909  74.4231949
  64.9505615  24.0225201  41.5174828  65.8656693  24.3031330  41.5093269
  64.4594421  24.7993355  41.2499161  63.6079826  59.6154747  68.2286758
  63.7547340  60.5137520  68.5249710  63.4569283  59.6955910  67.2868652
  23.5883274   0.6240551   7.8621922  24.5286865   0.5094046   7.9993439
  23.2091465   0.5624782   8.7389259  46.7795753  34.4125900  22.3260860
  47.0557289  33.5296364  22.0803852  46.0994034  34.2759895  22.9855862
  57.5676994  70.5279770  14.5399628  58.1416283  70.0766830  15.1589699
  56.7333832  70.0632095  14.6043043  32.9224548  48.5701561   6.2889442
  32.3571129  49.2015419   6.7338881  33.6107407  49.1034966   5.8913984
  73.4500351  11.3965445  82.8035736  72.7136612  12.0039606  82.8745117
  73.6628876  11.1713839  83.7092361  36.4542503  38.1998329  22.5836697
  36.5980759  38.7270775  21.7978191  36.3426323  37.3073463  22.2561893
  68.3355255  20.2304134  10.5633507  67.7065582  20.8672276  10.2240877
  69.1830444  20.5343990  10.2384768  64.8341675  39.0680771  79.7457428
  65.0244675  39.1051865  78.8083801  64.7866287  38.1327667  79.9436417
  68.7446289  46.2769279  56.6978226  68.3759232  46.8131638  55.9958687
  68.3127441  45.4280014  56.6027641  31.1755371  62.7667007  35.1421165
  31.2446632  63.4980278  35.7558098  30.3799381  62.3055153  35.4077454
   1.9147724  39.4262772  48.7181282   2.2590268  38.9430923  49.4692955
   2.3010328  38.9928436  47.9570961  29.0648785  22.9763126   7.0358462
  28.4564590  23.7087631   6.9380078  29.9318600  23.3817959   7.0232606
  64.1619644  53.1183929  81.3992310  63.5556259  52.5825272  80.8879242
  64.3679123  52.5824242  82.1651001  55.0567284  45.5334015  34.1475143
  55.4624596  45.1849556  33.3536644  54.1158524  45.4695435  33.9834671
  72.5525284   4.7298026  60.0994644  73.4720917   4.5345988  60.2798271
  72.3845062   4.3260341  59.2480125  55.0816193  24.4164295  17.5591908
  54.2404213  24.8464203  17.4051647  55.3990173  24.1909561  16.6847477
  72.6348953  59.6131744   6.2870078  73.1616287  60.1423607   6.8859601
  71.9803848  59.1967430   6.8477550   5.7760344  64.7904663  55.2823563
   6.5935159  65.2659073  55.1343155   5.0900507  65.4115143  55.0374870
  13.5155249  62.9395409  44.6768608  13.3866558  62.2528763  45.3311653
  13.9132366  63.6619110  45.1629028  50.5077248  49.7618370  73.7098389
  50.1613960  48.9798927  73.2798920  50.9797897  50.2260551  73.0185471
  85.0890656   6.8902416  54.7691727  84.5379791   6.2823567  55.2621384
  85.6860504   7.2556705  55.4220924  13.0471916  55.0307236  69.5871277
  12.2737589  55.4449921  69.9697723  13.6199026  55.7615204  69.3543854
   3.0548279  52.8798523  29.0521584   3.8148916  53.4106712  28.8139000
   2.3216558  53.4952049  29.0464630  38.1953659  60.3141365  14.9647741
  38.2934723  59.4965134  14.4768200  37.9974365  60.9698410  14.2961121
  59.8490486  56.4850845  79.3980560  59.6074753  55.7781296  78.7996521
  60.1582794  56.0372009  80.1854630  28.4974194  39.3497467  24.7074795
  27.5887032  39.4973564  24.9695435  28.4338074  38.8504257  23.8933163
   8.1940699  50.0309029  79.6202316   7.8714471  50.8990555  79.8620071
   7.4455686  49.4503479  79.7578278   5.8466806  30.0297794  62.9797974
   5.6202674  29.8720551  63.8963623   6.4551210  30.7682171  63.0070381
  17.2986374  13.2454948  10.4065781  16.9226875  13.6888456  11.1670599
  18.2114334  13.5330992  10.3886900  51.9607086  34.9110641  81.0689774
  51.1410255  35.0042038  80.5835037  52.2140808  33.9973297  80.9381104
   5.5738168   8.0806608  14.1811314   5.7311530   8.9997072  13.9647274
   5.1693077   7.7151942  13.3943415  75.5339890  71.0285950  80.4529572
  76.1836624  70.3852997  80.1695557  75.9611206  71.5017624  81.1670380
  85.2821198  39.8584290  88.5911865  84.4163437  40.2300720  88.4222260
  85.5353851  40.2180481  89.4413452  73.9762497  69.9943542  86.9260406
  74.1509247  70.4269028  87.7618790  74.2779388  70.6183014  86.2658081
  33.8386841   7.3645296  17.2495842  33.9926529   7.3186536  16.3059635
  34.0027046   8.2802887  17.4747849  67.1876602   6.1341376  45.8415337
  67.6626968   6.4912353  45.0911674  67.8721313   5.8010612  46.4218750
  53.9562683  16.5880985  35.5732269  54.2136040  17.2595520  36.2050171
  53.0349159  16.7720165  35.3901634  84.1821442  36.2983284  82.9579849
  84.5906219  36.4400635  82.1040039  83.8423538  37.1579628  83.2065964
  38.6738472  59.4249382  71.0128555  39.0206833  58.6158333  71.3887329
  38.1684761  59.8213577  71.7225571  67.3256989  43.7585068  73.6773224
  67.1499863  44.0516281  74.5714340  68.1131744  44.2372894  73.4187088
  31.0614738  56.0358047  84.2171402  31.5651665  55.8393784  83.4272385
  31.6135654  55.7280426  84.9359665  78.5106735  45.1751671  12.2964849
  77.8349609  45.4606781  11.6815643  78.6334763  45.9227753  12.8814898
  44.5573387  68.0162125  38.1417084  44.3268852  67.1483154  38.4731941
  43.9427795  68.6088562  38.5745125   9.4146824  19.5217896   2.4064705
  10.1414862  19.3811436   1.7996701   9.8078079  19.4361744   3.2750058
  81.9525070  13.1261101  71.6725693  82.2396851  12.2506628  71.9320831
  82.4905319  13.7197533  72.1963501  51.0974045  30.7205200   9.8070574
  51.4971275  30.8730030  10.6633301  51.3236389  29.8149433   9.5949678
  13.6967821  35.1223984  68.4564438  13.8342943  34.3983040  67.8457031
  12.7524405  35.1278648  68.6127167  34.1414948   5.3265238  18.9873180
  34.0542984   6.0610280  18.3797550  35.0572357   5.3525953  19.2647533
  29.4645481  58.5491257  19.5016518  29.7613297  57.9744225  20.2072506
  29.6065674  58.0408936  18.7030525  10.3566637  58.0677910  50.7081032
   9.9693232  57.2554436  51.0341263  10.3912182  57.9524307  49.7585106
   8.1472406  66.5389099  19.9624691   8.2457218  66.3815384  19.0234432
   8.2572088  67.4847946  20.0596294  11.7948103  45.0245209  29.7082558
  12.7489882  44.9498367  29.7223301  11.5340214  44.9351158  30.6248951
   7.0860105  69.6238861  64.5143356   7.4648519  70.1062775  63.7794800
   7.5065527  68.7647400  64.4791412  24.6620274   1.9259613  64.0778122
  25.4463634   1.8566037  64.6220932  24.9854813   2.2276111  63.2289200
  56.5269165  63.9310799  10.4990692  56.5600548  64.8873520  10.4729538
  55.6021309  63.7271881  10.6384754  75.9878693  66.8593369  27.3686523
  76.3101730  65.9844818  27.1518898  75.5440750  67.1548615  26.5737019
  77.6617966  19.1733398  62.2028923  77.1856003  18.7367954  62.9092216
  78.5295715  18.7695179  62.2137756  84.6488113   1.7101717  78.0304489
  85.2687225   1.8568047  77.3159943  84.2242432   2.5586617  78.1570969
  69.0868073  23.8322372  67.8498764  69.5200348  24.1980267  67.0786819
  68.1554642  23.9962215  67.7017441  36.7863770  67.2893143   7.1787114
  37.2426453  68.0814590   6.8948874  36.9663734  66.6494370   6.4899492
  15.6794901  56.9497414  46.1706581  14.9488640  56.3570595  45.9941788
  15.2651119  57.7553749  46.4796486  20.5027981   3.6185462   9.7170563
  21.3045139   3.6319816   9.1942701  20.6664219   4.2443805  10.4225998
   6.5587878  66.7908249  87.5437698   6.2052226  66.6127853  88.4152756
   6.6928940  65.9250259  87.1582260  36.5445518  34.6193619  25.7093906
  37.1530457  34.4074249  26.4172401  36.2742310  33.7688713  25.3632355
  39.2699966  29.5330315  70.2988510  38.3392525  29.6744843  70.4718781
  39.4132156  29.9142666  69.4326096  83.9271851  18.7020531  41.2902603
  84.2675476  19.5914097  41.1931496  83.2939911  18.6088772  40.5784950
   5.1762352  12.1063747  69.1114883   4.7777109  12.7772579  69.6658554
   5.5943017  12.5974588  68.4041748  86.5055008   3.6900129  65.3556366
  86.5162201   3.4600770  64.4265289  85.6955032   3.3036952  65.6886520
  25.8954716  55.1195221  26.5116539  25.7936420  55.0417252  27.4602375
  26.0881119  56.0458488  26.3666153  58.3246078  44.4163551  48.1789322
  57.8080940  45.1783524  48.4412346  58.4095421  44.4999924  47.2291832
  14.4268618  50.6048355  69.4420166  14.7224665  51.2642288  70.0697556
  13.8861246  51.0916634  68.8200531  79.6602859  58.9685822  81.8180237
  80.4677048  59.2445488  82.2517853  79.0228348  59.6454811  82.0453949
  65.3461227  24.9547386  47.8059464  66.2930450  24.9242954  47.6693840
  65.1011505  25.8534870  47.5857849  62.5207596  70.3864212  68.8937302
  62.2043953  70.8984146  68.1494141  62.1228561  69.5236511  68.7774048
  65.4718933  66.8956680  25.0538387  65.9300995  66.0605164  25.1476345
  65.7953949  67.4291916  25.7797413  75.4835205  68.7129974  76.8263702
  74.9361572  69.4262619  77.1548386  74.8780518  67.9809723  76.7090225
  74.3726349  22.2639179  48.2285194  74.4014816  21.5179825  47.6293678
  74.8611984  22.9524555  47.7774620  38.0536537  24.6451416  83.4904633
  37.6483574  25.3427582  84.0055313  37.3241501  24.0793056  83.2377090
  15.5854111  59.5339012  56.2638855  15.8287487  59.3115692  55.3652267
  15.2920284  58.7060242  56.6443787  59.6844826  49.2166672  12.7186537
  59.6897621  48.3937912  12.2296991  60.2587585  49.7963219  12.2182159
  44.4545860  50.7619667  32.9612999  43.7840843  50.0966377  32.8064117
  44.0682831  51.3433876  33.6162453  27.7563457  68.5748672  42.2724686
  27.8421593  69.4726486  42.5931740  26.8203430  68.4699249  42.1018333
  39.6914406  66.3987961  73.2297516  38.7846260  66.1469421  73.0551376
  39.6217499  67.1982422  73.7515335  54.6563721  30.0061684  68.2011948
  55.2353249  29.2883072  68.4575577  54.6695633  30.6033001  68.9491882
  38.7784081  23.3682327  15.3235369  39.3134918  23.9945889  15.8109722
  38.7949600  23.6896114  14.4220533  72.5214233  61.6151848  33.5364609
  71.6569214  61.3888054  33.8794098  73.1353149  61.2400932  34.1678619
  24.4096851  20.5268517   7.1976676  24.6304607  21.3364429   7.6581602
  25.2018051  19.9929485   7.2586918  65.8050613  35.1847878  50.0731277
  65.2634506  35.3222847  50.8502960  66.5000458  35.8388557  50.1467476
  62.4474030  41.7741394  77.2062759  61.7401543  41.2294960  76.8607330
  62.0511703  42.2441025  77.9400101  36.2551537  51.3854141  39.0629578
  37.0247955  50.8787117  38.8038445  36.2347832  51.3187447  40.0176163
  60.5900192   4.3676963  27.4639359  59.9236565   3.9724207  28.0260334
  61.3906898   3.8829503  27.6643772  20.4310379  53.1725769  65.2053223
  20.6652641  52.2626266  65.0226822  20.1034279  53.1596985  66.1046143
  54.3593445  13.9889956  78.6488953  54.5229111  14.8449097  79.0449829
  54.3004990  13.3885078  79.3919907  27.8403606  52.0753365  54.9989510
  28.2838688  51.3615456  54.5406570  27.2890263  51.6375580  55.6474915
   3.9913895  33.8992844  21.2863922   4.1330824  34.2076035  22.1814308
   4.6646767  33.2320061  21.1535187  79.7762527  71.6121216   9.4154463
  79.5546188  71.4814758   8.4934702  80.1042938  70.7610779   9.7058487
  31.4097652  56.6225204  54.4846802  32.0652275  56.0307312  54.1153793
  31.0893536  57.1232185  53.7344322  64.2282486  40.3597908  53.3371811
  64.0002747  39.4320412  53.2776985  64.1888885  40.6744843  52.4340439
  63.0467720  56.7351723  48.1626053  62.7611809  57.6479797  48.1245155
  62.9114838  56.4797630  49.0751266  39.6577988   3.6230822  27.2221603
  39.9641953   2.7537611  26.9640255  40.4591179   4.1251287  27.3707027
  85.8684845  48.5717354  69.6712265  86.3651962  49.3127747  69.3242798
  85.3825150  48.2355385  68.9182053  13.4112921  40.7377663  20.6281052
  14.0285044  40.9329529  21.3332157  12.5678635  41.0514107  20.9544277
  61.7445717  26.3936825  50.0250473  61.1025925  25.9549217  49.4668465
  61.2283401  27.0088387  50.5459366  28.6939812  69.4476929   1.9167444
  29.0930328  69.2628479   1.0665544  29.3689747  69.9247208   2.3995090
  67.1940536  29.1712017  86.4012680  67.4627533  30.0704365  86.2130890
  66.8269806  29.2107430  87.2844009  74.3429031  39.9505959  88.4181671
  73.8041382  40.5289688  88.9580307  75.1481628  39.8337631  88.9222870
  80.4447479  65.4720688  41.1906242  79.9362106  66.2151871  40.8659706
  80.4054565  64.8278503  40.4837532  22.2081985  41.2970238  81.6178665
  22.3083458  41.5366211  80.6965637  23.0353947  40.8730354  81.8463669
  14.8158903  49.6697006  53.8448410  15.7572184  49.6982193  54.0160751
  14.6358976  50.4758682  53.3611794  40.5651817  63.8409157  13.6836729
  40.5774956  64.6949463  13.2515783  39.6374397  63.6102943  13.7319975
   6.4661040   7.6868277  76.5938950   5.7139478   7.1325164  76.3859711
   6.2546015   8.5342865  76.2023468  71.6121216  32.7936630   9.6970749
  71.4389038  33.5254402  10.2892990  71.9741745  32.1099358  10.2606936
   6.0769877  23.9620380   9.4675922   6.7409925  24.5273743   9.0729713
   5.5892625  23.6097050   8.7231340   3.3148358  28.2183285  73.3988876
   2.9148309  28.8393459  74.0076294   4.2556496  28.3740997  73.4815750
  44.0824013  26.9408283   4.9451008  44.4822578  26.4713669   4.2130117
  44.8117332  27.1295071   5.5356169   3.3912737  28.8702908  41.7498703
   4.3348856  28.7755051  41.6200829   3.0047867  28.5656090  40.9288750
  31.8253670  66.4235382  84.2347107  32.0999413  67.3104935  84.0019836
  32.6082077  65.8884430  84.1041031   1.8400444  10.1697550  65.7667694
   2.2318757  10.9865112  65.4575577   2.2139187  10.0396309  66.6382675
  30.9872227  53.5819092  31.5963516  30.7540474  53.5833931  30.6679878
  30.3560696  54.1757927  32.0027771  42.1506653  45.1384468  36.8764267
  42.9396286  44.9897499  37.3976326  41.4674492  44.6446648  37.3298912
  42.2695503  25.4090881  76.1120911  42.2549858  25.8143406  76.9791565
  41.8032875  24.5810432  76.2268677  52.6574249  71.7748260  54.2294922
  52.1344147  71.8423080  53.4306602  52.6221466  70.8467636  54.4611855
  36.2367020   1.6550317  85.1427155  35.6844101   2.4341226  85.2076874
  36.4921227   1.6186955  84.2209396  85.4649200  40.4813843  37.9847145
  86.2459869  40.3248405  38.5154343  84.7374725  40.2035751  38.5413780
   1.4945136  62.1082573  10.0880203   2.1799822  61.6351051   9.6163311
   1.9670045  62.6333237  10.7340002  35.5266571  54.8852539  84.8778839
  36.4437561  54.7059593  85.0852890  35.5042114  55.8217964  84.6813736
   8.1742554  27.7828407  76.3637314   8.1130438  28.0714340  77.2743378
   8.7102661  26.9905815  76.3990860  69.8498917  24.3917427  81.7211380
  69.8656235  23.4855671  81.4131927  70.3927765  24.8677330  81.0927048
  82.6963730  47.5454407  72.6067886  81.7822189  47.6245766  72.8793640
  83.1549454  47.2441292  73.3911057  33.0280228  68.5757751  77.9604111
  32.5238190  68.5895538  77.1468887  33.7209549  67.9347153  77.8019028
   4.0293341  64.0635910  51.6548233   4.5665784  63.8484688  52.4172707
   4.5665774  64.6717834  51.1471748  17.8714199   2.8424563  72.7234344
  17.2857723   3.5004721  73.0979538  18.4269676   2.5723305  73.4546204
   1.0540588  41.9778252  12.3790817   0.3656835  41.6792412  11.7847605
   1.6637042  41.2415428  12.4286165  57.9738235  67.3485413  75.7972717
  57.7368431  68.2736969  75.7328186  57.2074432  66.9318771  76.1913376
  32.8921318  62.6170273  87.3364334  33.0577850  63.5063820  87.6492233
  32.3117790  62.2356529  87.9952011  29.3286991  53.8708496  14.6091776
  30.2073479  53.9546776  14.9795570  28.8740635  54.6653938  14.8888845
  81.6056061  41.4758797  18.2625542  81.3798828  40.5834656  18.0000973
  82.5583191  41.5163155  18.1792164   8.1039219   9.5546589  11.3057051
   7.6784587  10.3668137  11.0307188   7.8783698   8.9229898  10.6228056
  67.1644058  42.3629532  10.6431303  66.3637924  42.6399765  10.1975880
  67.0440903  42.6456642  11.5496788  71.4442520  57.4599152  45.1336517
  71.1359100  57.2527847  44.2514648  71.4057617  58.4150810  45.1827164
  34.8409729  38.0214424   1.6997626  34.3162231  38.0058212   0.8993719
  35.7473259  38.0235329   1.3919386  56.6185265   2.1431751  64.2127762
  56.5918503   2.1543088  65.1695404  57.5406990   2.2823634  63.9972458
  17.6784782  35.2414932  24.7763138  16.7915096  35.3098602  24.4229851
  17.5520000  35.0697975  25.7094555  71.2483521   9.5063696  45.4519424
  71.0355988   9.2123775  46.3376808  72.0398712  10.0340157  45.5583649
  73.9473038  55.1852531  11.5972490  74.5855408  54.4723701  11.6234493
  73.9745560  55.4980202  10.6930017  15.0749922  25.0978069  35.4762268
  15.9535847  25.3945847  35.2390976  15.1471252  24.8477612  36.3973694
  82.1910629   7.5030899  75.2522278  81.8067169   7.8910069  74.4660721
  81.6180115   6.7650199  75.4598160  39.3951225  35.4927292  88.1526642
  39.2053528  35.4865265  87.2144852  40.3502312  35.5302086  88.2035904
  78.3973618  58.6503105  61.2210693  78.9887543  58.3432159  60.5339127
  78.6651382  59.5553169  61.3807144  68.9698715  18.8935814  68.5025558
  68.2456818  18.3472958  68.1970215  69.3967819  18.3686390  69.1796188
  69.1916733  32.2047958  57.1868782  68.5112534  32.4819260  56.5733223
  69.8312149  31.7445164  56.6433983  86.1883850  40.3033218  49.9060669
  86.4005890  39.3944283  49.6936607  86.9310989  40.8068542  49.5728073
  23.0476036  65.6836777  76.8563156  22.1862297  65.3002625  77.0214081
  23.4835968  65.6689911  77.7083282  67.4891129  17.5793076  64.2545929
  68.2524185  17.1652813  64.6573105  67.8321609  18.3804684  63.8587570
  15.5345840  71.2235336  12.7222185  15.2293777  72.1023102  12.4967480
  15.2747221  71.1068649  13.6360521  23.4270515  57.3675499  74.3346558
  23.8167782  57.4471016  73.4640198  22.5716305  56.9674225  74.1785049
  54.5294495  48.3073997  49.8678741  55.1597977  49.0167198  49.7423401
  54.3878174  47.9545822  48.9894142  44.8508644  39.0071449  35.7027435
  45.1144333  38.9245377  36.6192284  45.5238762  39.5624123  35.3090897
  23.2612038  11.0495939   9.0586615  22.6951809  10.5347128   8.4835558
  22.6768055  11.3697634   9.7458305  80.8272095  33.4995995  23.5221615
  81.7710495  33.4939003  23.6814041  80.5459976  32.6056709  23.7172165
  -0.0662243   5.9239187  86.7589951   0.1659807   5.5774407  85.8974533
   0.4590530   6.7192831  86.8468094  79.0050201  38.0143356  62.1455688
  79.6285782  38.6969604  61.8977127  79.4501724  37.5223656  62.8355217
  18.5892715  30.8662014  20.7810764  18.0180836  30.9379997  20.0163403
  17.9980202  30.9441471  21.5297966   4.4186001  12.9182205  14.6078520
   4.5946794  12.0330343  14.9267149   3.8633566  12.7897434  13.8388071
   9.2170467  16.8201103  34.0388641   8.9949007  17.3102398  33.2472496
   8.5769768  17.1112080  34.6883278  70.5603256  55.9343338  36.1330605
  69.9328995  56.2644997  36.7761459  70.7992172  56.7029610  35.6150131
  76.8162155  16.9715195  27.8559265  76.3508835  17.8021698  27.9544697
  76.1930847  16.3995991  27.4077663  21.1236897  34.5310326  10.9747686
  20.6651459  33.9847679  10.3363619  20.9419899  34.1171646  11.8185272
  53.3127823  27.5745468  68.1536636  53.9153252  28.1903782  67.7366180
  52.9406357  28.0634403  68.8876419  57.7285957  26.8323402  57.0863037
  57.6228142  25.9398289  57.4156456  58.6612663  26.9037094  56.8831673
   1.2536712   3.4420965  55.7535820   1.4921257   2.5170345  55.6933212
   0.3178616   3.4617503  55.5533180  76.1750031  17.6763897   7.6844082
  75.8010864  16.9824429   8.2274141  76.3207245  17.2625580   6.8336778
  47.0331917  44.7405014  61.8358040  47.6368904  44.1472893  62.2828827
  46.4389877  44.1620102  61.3577881  65.4512405  63.7774506  55.9030457
  64.7767029  64.2187805  55.3868484  65.1712418  63.8921852  56.8111572
  51.8861046  11.2977819  14.1860380  51.9749069  12.2386503  14.3380671
  51.9911346  11.1970692  13.2399635   2.4952857  14.5111170  34.8224068
   2.6541302  13.6632166  34.4076004   3.3353388  14.7460585  35.2165451
  42.5583687  67.1836090  80.1169510  43.2217865  66.6696091  79.6566162
  42.4231071  66.7166138  80.9414902  54.5891953  26.6588097  82.8147049
  54.6826439  27.5802441  82.5729294  55.2586365  26.2072468  82.3007278
  77.7768250   4.2592711  30.6481037  78.4222183   3.5525918  30.6654377
  78.1544418   4.9141560  30.0609360  61.0667152  35.2163734   9.6652880
  61.9401245  35.5095978   9.4056635  60.6401787  34.9766045   8.8426037
  57.0281754  14.8873396  41.2169304  56.0875206  15.0031395  41.0828094
  57.4089470  14.9904690  40.3448029  56.4599304   1.1254917  57.1754456
  55.8327065   0.5821873  57.6525650  57.3168678   0.7966880  57.4470596
  45.7903519  15.0345821   8.7943287  46.3108521  14.8629723   8.0095615
  46.3019257  15.6777258   9.2851334  20.7345448  48.1336861  58.5951195
  20.9671307  47.8435211  57.7131119  20.8685074  49.0813217  58.5786209
  76.0933304   1.4026433  18.3587952  75.5873566   1.9584378  18.9515152
  76.6627426   0.8934139  18.9355812  31.3006401   3.2601361  47.6186028
  31.6149635   4.1629848  47.6665306  31.0750561   3.1336651  46.6970024
  22.9535389  29.4164047  87.8556824  22.3199406  29.2842808  87.1504669
  22.7362366  30.2766457  88.2148438  68.9491043  71.0088196  20.3496265
  68.0040283  71.1592865  20.3702583  69.2855530  71.6798096  19.7556534
   5.8698626  70.2061005  12.2901621   5.3551798  70.1037979  11.4896202
   6.5309758  70.8616028  12.0677328   3.0617492  70.2785263  34.2761345
   3.4374452  71.1173248  34.5435257   3.2180986  70.2359009  33.3327522
  51.9851646  40.5586777  13.4992847  51.5131950  39.7462692  13.3163462
  52.7036591  40.5658722  12.8668737  39.3233185  46.5599976  62.0739059
  40.1517754  46.0838852  62.0172043  39.5799026  47.4792328  62.1474037
  41.9343643  56.3928986  49.0260239  41.1317596  56.3625946  49.5467300
  41.6367149  56.5932007  48.1386032  80.0950241  18.5754414  50.4581413
  79.9242554  18.3718681  51.3777199  79.5920029  19.3726673  50.2919044
  36.1664734  14.0748854  88.4811707  35.2983398  13.7043867  88.6402512
  36.5833435  13.4584045  87.8791733  67.1969681  53.1937637  55.7641869
  68.0664597  53.5939445  55.7557831  66.6586227  53.7793884  55.2317772
  12.7509518  63.4257088  29.3993092  11.8839540  63.0201340  29.3919334
  12.6115475  64.2816162  29.8045540  74.1379776  60.9361610  52.3664322
  74.0655518  60.8907661  51.4130554  73.2829208  61.2537003  52.6567421
  69.7463608  10.2625713  40.4007225  69.4329987  11.1310616  40.6532288
  70.4360123  10.0633392  41.0339050  81.8554535  48.6379929  32.3053665
  82.3152542  48.0708046  31.6864052  82.5067596  48.8357697  32.9783554
  64.5363617  36.9403419  34.6856728  65.3068085  37.4053650  35.0118675
  64.5200043  36.1240120  35.1852417  65.7643661  67.2175217  17.0769405
  66.1428986  66.6309586  17.7318382  64.8357468  66.9862595  17.0564823
  38.8579369  49.7173996  41.6440392  39.4633064  49.8189812  42.3785057
  39.2711830  50.1955833  40.9251480  55.4304886  17.6573334  84.1611099
  55.1144676  17.3235874  83.3214798  54.8127213  17.3102512  84.8046341
  46.0600471  50.9183998  56.4563828  46.3029785  51.0965004  55.5478134
  46.8083038  50.4413872  56.8152771  23.4973640  46.7827606  11.4630527
  23.4068756  46.7616577  10.5103741  23.9323330  45.9583282  11.6806469
  44.2618179  11.7999897  19.3799286  44.6897163  11.2594290  18.7159042
  44.1029396  11.2015963  20.1099396  32.4002762  56.4199715  40.6737289
  32.9103127  57.2020912  40.4630585  32.9581604  55.6903992  40.4040718
  69.9580917  13.5333576  49.2951393  69.5602798  14.3892660  49.1357727
  70.8781815  13.7266169  49.4749184  68.3320847  70.6382599  13.2600632
  67.6384735  71.2476120  13.5126839  67.8822174  69.8031845  13.1316223
  82.9506149  10.2087173  61.2147598  83.1298599   9.9908113  60.3000908
  82.1231995   9.7680693  61.4082413  81.6231232  33.6906471  50.2282677
  81.1708450  32.9759331  50.6764412  80.9199600  34.2562828  49.9091415
  12.1371460  33.5392914  74.4729767  13.0883884  33.6365623  74.5166550
  11.8050661  34.4369049  74.4572830  14.7306309  54.9584045  84.5026016
  14.2764711  54.9477158  85.3451385  14.7365150  54.0432587  84.2220612
  62.1343803   2.6595564  70.3133087  62.5105209   1.8017466  70.5105667
  61.4625931   2.7863114  70.9832840   6.2956967  65.2991791  81.4775848
   6.8997312  64.6751633  81.8800583   6.8235841  66.0845108  81.3333206
  42.0500488  39.1247978  10.7146339  41.8539696  39.5512581   9.8804188
  42.8696671  39.5268784  11.0023603  46.0207443  29.6066418  57.4477386
  46.3942833  28.7527618  57.6658783  45.2151642  29.4014912  56.9731941
  71.0009232  60.2622337   0.2651838  71.6854172  59.8053131   0.7539780
  70.6921234  60.9420738   0.8640930   6.8966756   0.8155539  29.0645046
   6.6886859   0.0564131  28.5198250   7.7672405   0.6274399  29.4151630
  28.0955372   5.5791802   1.1135097  27.6144409   6.3819103   0.9125049
  27.4184017   4.9500828   1.3624203  28.5744648  70.6681824   8.6310654
  28.9241886  70.9649582   9.4712152  29.1725330  71.0347214   7.9797583
  80.6029510  30.7997608  24.1624813  81.3658371  30.4657021  23.6906242
  80.5557861  30.2619057  24.9528732  61.4567566  40.3383102  17.5228386
  61.5810471  40.8743744  16.7396297  62.1105347  39.6436348  17.4438400
  72.0228119  45.7817726  81.3951111  72.3415146  44.9627457  81.7743912
  71.1309433  45.8702850  81.7312317   1.8657956   3.7327585  67.0480881
   2.6800368   4.1811905  66.8197174   1.1856258   4.2194386  66.5825272
  28.1186142  53.8606758  69.2131577  27.9376965  53.3252792  68.4405975
  28.8354740  54.4350433  68.9439926  44.9248695  13.0978632  48.3396072
  45.4122353  12.4607658  48.8619270  45.4011459  13.9195929  48.4585838
  10.5461226  70.8385468   3.3105555  10.7723980  71.7412949   3.0867789
  10.7170696  70.3431778   2.5095417  74.5446396  40.9394760  51.3120346
  75.4707565  40.6984825  51.3332863  74.5130157  41.8051834  51.7191963
   3.1413383  23.2178879  64.0347672   2.7589021  22.3443756  64.1181412
   2.5365734  23.6905308  63.4628410  56.8749733  24.2628670  75.9620743
  57.5527382  23.9839783  75.3463745  56.3506088  24.8952408  75.4707718
  28.2995510  40.7244797  27.2907352  28.5990658  39.8390427  27.4969425
  27.9149704  40.6499138  26.4173679   4.9526906  44.7509842  67.5713425
   4.9392967  44.1406250  68.3085785   5.7511501  44.5299873  67.0919113
  73.3681946  58.0358391  67.9350128  74.0770035  58.6594391  67.7770844
  73.6632462  57.2269287  67.5168839  79.4842834  26.6683483   7.4653058
  78.9838943  26.9140072   8.2434406  78.8959427  26.0958023   6.9730911
  22.0969410  69.6697159  28.7670345  22.6740551  70.4317932  28.8161030
  21.7672997  69.5610733  29.6590919  72.0333786  51.6431503  44.2208595
  72.9273148  51.9784126  44.2895584  71.8436890  51.2872353  45.0889473
  70.8693008   2.2977812  47.0598145  71.3470764   2.5229537  47.8580971
  71.0759277   1.3753748  46.9091377  67.4082794   7.4877605  72.3123932
  67.8217468   6.7134809  72.6941910  67.0006332   7.9325938  73.0554810
  86.2419968  33.1531410  72.5458221  86.1349106  33.3324547  71.6116867
  85.3961411  33.3805733  72.9318695  69.7055969   1.6642429  13.1801777
  70.6610565   1.6081767  13.1663256  69.4110031   0.7601491  13.0703545
  28.2304535   0.3803663  11.7419081  27.7258358   0.3804413  12.5552921
  28.2039680   1.2894881  11.4435329  64.8139572  40.7636719  19.9385929
  65.5771942  41.3220825  19.7906895  64.2463074  41.2804298  20.5104027
  45.6026497   2.3946035  65.3410187  44.6487999   2.4745855  65.3395920
  45.8335342   2.2980649  66.2649231  83.5328674  50.6423492   6.6620984
  83.5658188  51.4094887   7.2336268  84.3516312  50.1782608   6.8366876
   3.8880525  14.8956070  66.6203995   3.8757737  13.9881868  66.3159866
   4.5767131  14.9160156  67.2849045  48.1614799  47.3108673  68.3930511
  48.7066231  47.8959198  68.9191360  48.6580772  47.1830826  67.5847855
  30.7049789  26.0250645   1.9578533  31.4167461  25.4780197   2.2900558
  31.1373405  26.6596870   1.3864081  54.6754379  35.9399109  27.4976463
  55.2770653  35.2614822  27.1910381  54.7622261  36.6448212  26.8559284
  59.6865234  69.4473495  23.6789818  59.0741882  69.1753998  24.3625889
  59.1560287  69.4842072  22.8830872  47.0976524  10.0963278  38.2460289
  46.4372864   9.4560919  38.5110664  46.7985306  10.4095774  37.3924294
  73.8444214  37.9496536  18.7669601  74.4531403  38.2641449  19.4353809
  73.3512650  38.7277527  18.5069847  85.9095459  71.3715897  55.5553932
  85.2383194  71.8724060  56.0189323  85.8482742  70.4903946  55.9241524
   1.8931752  68.1949234  45.9815788   2.5260327  67.4768295  45.9895020
   1.2564641  67.9456558  45.3117294  47.3900681   0.3340901   5.7867017
  48.2026367   0.8381189   5.7429309  47.3314629  -0.1001905   4.9357033
  71.7026062  68.3589554  79.7190628  71.1021957  68.5132523  78.9897308
  71.1675186  67.9216537  80.3813934  29.9357452  22.4640656  11.6446161
  29.5994625  23.0289707  10.9488955  29.7184315  21.5767784  11.3587341
   3.2585125   9.2527952  55.6110344   3.2407002  10.2074938  55.5442009
   4.1630397   9.0459938  55.8461838  70.1067429  40.0507240   8.8592196
  69.6622238  40.1783791   8.0211611  69.4121170  40.1289673   9.5131369
  68.5494537  64.0954819  81.6857681  68.5173187  64.4018021  80.7794724
  67.7390060  63.5990753  81.7996826  66.3196182  24.8743706  27.5425339
  65.4589005  25.0366344  27.9286137  66.2068176  25.0742092  26.6132488
  83.1573029  51.1847305  66.2234116  82.6254349  51.3942070  65.4556427
  83.4593658  52.0343437  66.5445709  50.8434029  65.1851349  43.5793610
  50.0246506  65.6512680  43.7484512  51.2014160  65.6057205  42.7975922
  69.3745346  50.1320190  72.4890594  68.6652985  50.0216789  73.1223373
  70.0990067  50.4915161  73.0010529  37.6432037  41.6716843  65.2018127
  38.5362816  41.9948196  65.3210678  37.2312164  42.3140755  64.6240311
   7.8900723  36.6482315  31.1263752   8.1261759  37.2183990  30.3946667
   7.7639065  35.7870827  30.7279549  79.8779984  59.5253792  33.9282265
  79.1640854  59.2508736  34.5037308  79.5907822  60.3674889  33.5752487
  61.2753563  13.4676657   0.4991788  62.1614914  13.1620846   0.6931259
  60.7061501  12.8900719   1.0077269  20.4422035  63.1611099  27.9926205
  21.0714607  63.1407585  27.2716122  20.5116653  64.0478973  28.3461838
  17.5903320  54.2372780  47.5037537  16.8745899  53.6145935  47.6310806
  17.3462524  54.9947662  48.0356064   5.0464344  64.4890366  47.2250404
   4.2053466  64.0474396  47.1075974   4.9603353  65.3038101  46.7301102
   1.9341410  47.6533661  43.3627167   2.6421843  48.0887451  43.8374290
   2.2324023  46.7491722  43.2641792  41.2915726  46.4945755  71.2012100
  41.3124390  46.1194191  70.3208389  41.2463570  45.7363319  71.7836609
  10.8365211  13.2486944   9.5091476  11.4905348  13.3696671   8.8207703
  10.0338030  13.6220388   9.1451559  52.6202698  40.7043953  29.9984894
  52.9644241  41.5416107  29.6872597  51.7735977  40.6159019  29.5608311
  84.1277161  63.1135292  46.8496971  84.8887939  62.8444977  46.3352928
  84.4950180  63.6211624  47.5733223  58.8144722  40.3038483  87.5419769
  58.0968552  39.9841652  88.0888443  59.2779198  40.9307365  88.0973663
  51.3210258   5.9127164  85.6256714  51.8798561   5.4387951  86.2415771
  51.9268341   6.4566226  85.1222916  42.4153633  28.0784721  21.9174519
  41.9686966  28.8796005  21.6437435  41.7087822  27.4524574  22.0758228
  16.6305428  55.7739906  43.7701912  15.7920580  56.0908699  43.4343872
  16.7327232  56.2147713  44.6137009  25.4128265  52.8165741   4.8110566
  26.2719383  53.1764870   4.5905519  24.8878136  53.5800171   5.0513601
  34.5209312  61.8494835  41.6836052  33.9687958  62.1039276  42.4229546
  35.2034531  62.5198746  41.6525078  54.2712631  31.6641941  66.1039124
  55.1793137  31.5005360  65.8491745  54.1765976  31.2245636  66.9488907
  49.7340927  46.2481346  10.7403765  50.3763580  46.8600273  11.0999765
  49.5532417  45.6413879  11.4582787  54.5464935  51.7091713  12.1301928
  55.2560310  51.3657646  11.5871820  54.4469757  52.6182327  11.8474569
  56.4471016  36.8941269  32.2959633  56.7955360  37.4429092  31.5933514
  57.1972313  36.3779526  32.5910988  47.6494179  71.5912018  41.2061272
  47.4067268  70.6659698  41.1702957  46.8307953  72.0599976  41.0439148
  85.9510345  48.1322632   1.3251245  86.5567780  47.7355423   0.6990889
  86.3199997  47.9204407   2.1825769  40.1517830  37.6897316  85.9346924
  40.6703110  38.2730942  85.3805695  40.0988426  38.1430130  86.7761002
   0.6045460  71.0937653  11.6175098   0.9444210  71.1545486  10.7247496
  -0.0693475  70.4155350  11.5715771  22.5897999  50.8409042  29.4250851
  22.5684090  51.7780533  29.2313671  22.1828098  50.7653809  30.2881527
   9.2110653  54.2421570  42.8748322   8.2991352  54.3228073  43.1543159
   9.2440462  53.4104652  42.4021492  13.7258263  14.0244722  23.3166332
  14.4418173  14.4934025  22.8880405  14.1616669  13.3854790  23.8805141
  12.5026999  70.7891159  21.3910713  12.8966351  71.6502838  21.2516518
  11.8997383  70.6796722  20.6557560  25.5720673  14.7046814   9.4618149
  25.4790287  15.6188269   9.1936483  25.0181561  14.6253328  10.2384214
  45.7661552  66.6800232  58.1527863  44.9785957  67.0029984  58.5905876
  45.5353775  66.6665573  57.2239189   7.2737374  62.4326134  13.2196522
   7.8020172  61.6409416  13.1176281   7.6774259  62.8971024  13.9528093
  78.6570816  46.0120468  83.7372513  79.3861542  46.0452881  83.1179047
  79.0728683  45.8853188  84.5900650  56.9313049  29.3193493   4.9651599
  57.0639954  29.9623795   5.6616769  56.9579544  28.4732819   5.4120283
   9.3670225  21.0614319  16.7777233   8.9989367  21.9349155  16.6444130
   9.7921829  21.1088123  17.6340084  63.2080078  30.9313107  86.7583542
  63.5042648  31.1476841  87.6424561  62.5033722  30.2970486  86.8903809
  24.1260662  59.9692383  82.1257706  23.4167919  60.5697708  81.8965912
  24.1745663  60.0092583  83.0809021   8.8062248  62.3643417  42.3565712
   9.5701561  61.7946281  42.2667313   8.7214842  62.7878304  41.5023460
  29.3101940  59.8236465  13.1600828  29.3395081  58.9158745  13.4622898
  28.9833488  59.7667351  12.2622166  36.6719933  65.1317062   5.4004378
  36.1443062  64.3384781   5.3078766  37.3812332  65.0228424   4.7669096
  31.8542919  59.8414574  44.0942116  32.1488762  60.1786308  43.2481804
  32.5585022  60.0692673  44.7011871  57.8770332  42.9909630  56.0717926
  57.5863762  42.8236275  55.1752739  57.0679512  43.1314697  56.5636024
  75.1523056  23.7019901   5.1727929  75.6945267  23.1872101   4.5751085
  74.6192703  23.0528755   5.6318779  15.2009249  54.6614799  36.6378784
  16.1414127  54.8351402  36.6773109  15.1107140  53.7598419  36.9463272
  82.8347855   5.5483932  42.2896080  81.9082870   5.3219724  42.2085724
  82.8423767   6.3343196  42.8359528  69.9241714  71.6336212  87.5035858
  69.0562210  71.8975906  87.8089142  70.0040283  70.7180786  87.7712555
  14.1457767  59.5219269  76.8829956  14.8407593  59.8837585  77.4328232
  13.6614752  60.2876740  76.5742645   1.4748803  28.7943611  21.7111816
   0.7934355  28.9642181  21.0607853   1.1835659  29.2653618  22.4919014
  50.9012527  71.4232025  58.8828621  50.5848961  70.5202942  58.9130592
  51.5377769  71.4779358  59.5956573  19.6471348  66.1750870  75.5454025
  20.1952915  65.4419174  75.2657166  19.4039974  66.6164551  74.7315826
  41.2219353  67.2988892  53.7765160  41.5634689  66.4075699  53.8481522
  41.9954033  67.8396225  53.6165504  86.8593369  19.2784710  26.3204823
  85.9166183  19.1126194  26.3202782  87.1933823  18.7611465  27.0532990
  62.6308327  49.6987267   0.2613489  63.1175270  49.0224876  -0.2098869
  62.5675621  49.3678589   1.1573155   8.4560547  32.7475548   2.8808112
   9.2188768  33.0334663   2.3782284   8.5658426  33.1593742   3.7378898
  19.7566376  50.3582268  79.1657715  19.4088917  49.5509109  79.5446396
  19.2643185  50.4727974  78.3529129  17.4018574  29.5519295  24.3669033
  17.2236519  29.9831734  23.5311375  17.3217258  28.6173706  24.1760826
  57.0085297  23.3547630  57.6102486  57.3806801  22.4739971  57.6548157
  57.1389961  23.7145824  58.4875946  16.7793064  57.6785393  48.5654221
  16.3494282  57.3684578  47.7683716  17.7076893  57.7203102  48.3360977
  75.5557632  44.9420204  47.5197182  75.4414902  45.8830032  47.6528549
  75.6597290  44.5861473  48.4022026  34.4835014  25.1894150  79.3080978
  34.1677780  25.1657810  78.4047699  34.1012459  24.4123268  79.7158279
  43.4646034  27.6975307   0.5740876  42.9139137  27.5115185   1.3345966
  43.4219437  26.8998966   0.0466478  60.9457054  44.9891167  32.0243950
  61.5189972  44.4845848  32.6014671  60.1063080  45.0150795  32.4837074
  60.4355125   4.1868529  63.8587456  60.1141930   3.7029231  64.6195297
  60.2299385   5.1014514  64.0523453  70.4228363   7.6726685  74.1181946
  71.3772430   7.7453828  74.1250610  70.1133499   8.5707283  74.2362595
  53.2941208  61.8031349  19.4609680  53.0917053  61.8891487  20.3925571
  52.7024612  61.1181564  19.1495590  20.2155399  42.4189758  83.2929077
  20.9157124  41.9217644  82.8700943  20.1139259  42.0072517  84.1510391
   5.0533094  48.9570961  22.0766277   4.5257788  48.2344666  22.4168453
   4.4981265  49.3675041  21.4136276  70.5094604   7.9743156  35.6878433
  70.7686615   8.8894281  35.7956352  70.1891403   7.7128267  36.5511208
  57.2388649  69.1073227  25.5384560  57.8898201  68.5039291  25.8967915
  56.5778160  68.5391998  25.1428776  29.2963028   2.3094294  41.5115929
  28.6582851   1.7291926  41.0962715  28.7845097   3.0698001  41.7875214
  62.1972885  41.7113876  10.3379860  63.0232353  42.1625557  10.1633797
  62.3443489  40.8160324  10.0331278   3.1905885  58.8153839  26.0458031
   2.7896662  58.8739815  26.9130154   3.5959730  59.6719589  25.9109726
  85.1368179  67.7726517  14.0562115  86.0220490  67.5723877  13.7520761
  85.2607117  68.4398193  14.7313185  66.2283630  20.0715866  52.6527138
  65.6052780  19.5906754  53.1974335  65.9798050  19.8530178  51.7545586
  61.3782234  15.0112295  34.6256599  61.6229973  15.2655087  33.7359085
  60.8801422  14.2013712  34.5148582  58.7409554  44.4696236  39.6882744
  59.3738022  45.1859932  39.6378326  58.1395493  44.6296692  38.9609985
  56.0209999  40.3831139  27.2221375  55.7694626  39.8303871  27.9620399
  56.7457695  40.9127998  27.5543613  13.4635506  39.8052635  87.7820892
  12.5967493  39.5977554  88.1311264  13.3193903  39.9357872  86.8448486
  85.5016861  62.4326515  88.4664154  85.7386398  63.3528748  88.3511810
  84.7127151  62.4544868  89.0079575  26.3117752  23.7844181  74.3729248
  26.8890877  24.0356503  73.6519394  25.4999352  23.5112839  73.9456711
   3.8562281   0.6200337   9.3595037   3.6992316   1.2504658  10.0624542
   3.2342036  -0.0874943   9.5289783  65.8016739  51.5655212  79.6876984
  66.1793213  51.9308777  78.8876190  65.8975067  52.2618484  80.3374557
  26.9065781  23.7676659  80.3206635  26.9946709  24.1334629  81.2008133
  27.5580082  23.0671825  80.2861099  46.3996811  28.1166306  15.7740669
  46.0283852  28.9940357  15.8664455  46.0639496  27.8016224  14.9348497
  55.1428604  19.1540642  36.1758690  54.7957268  19.2605991  35.2902184
  56.0340576  19.4999218  36.1270256   1.2771506  57.6502953  59.5725555
   0.4563508  58.0235214  59.2512741   1.9073709  57.8190880  58.8721542
  58.0106049  38.1204300  49.2661171  58.5811577  37.4208832  49.5844421
  57.1796303  37.9764290  49.7188606  11.3562727  70.4627304  81.2928238
  11.8580379  70.5460205  80.4819412  11.8297691  71.0044022  81.9241867
  45.4404526  35.6096954  13.2895966  45.7370529  36.2640800  13.9220839
  45.0252800  36.1197472  12.5941029  57.9440727  62.5618515  57.6639557
  56.9937019  62.4662781  57.7263680  58.2731476  61.6637840  57.6263161
  80.9691238  16.1343937  86.6326675  81.5493164  16.8519058  86.8872070
  81.5017090  15.5898800  86.0529327  76.9570770  18.9393902  81.6142044
  76.4432220  19.3597908  80.9246750  76.3178329  18.4304619  82.1127930
  72.2455292  54.8491249   8.7307901  71.8762970  54.9589958   7.8545346
  72.8469620  55.5869370   8.8315115   5.7147107  60.3208237  64.7319107
   6.4548903  59.8489265  64.3502350   5.5253301  61.0177345  64.1036758
  12.4629459  57.3922539  30.1090851  12.2379770  56.5816078  30.5656738
  11.6186142  57.7760849  29.8724213   1.6438057  36.4291191  27.5095501
   1.8920121  37.3417931  27.6567135   1.5143784  36.0714874  28.3879452
  46.6180992  71.4371185  53.4302139  46.9736519  70.9502411  52.6867332
  47.2738609  72.1105042  53.6112061  20.9947357  34.3201180  21.7748470
  20.1138687  34.1280212  22.0964127  21.5650043  34.1557655  22.5258541
  45.7372932  48.2349167   6.7534380  46.3438110  48.8318901   7.1916075
  46.2899704  47.5183601   6.4414606  71.5329590  12.1700068  16.6002674
  72.4735870  12.3232212  16.5109844  71.3361359  11.5003109  15.9452848
  31.3060169  45.1723289  74.8009109  31.3301430  44.2188721  74.8819427
  30.6957111  45.3362312  74.0819550  59.1408920  13.7320786  54.4338493
  58.7995262  12.8440390  54.5391388  59.2929649  13.8202248  53.4929276
  74.4644928  11.0987082  78.2375565  75.3426514  11.2574635  77.8913345
  74.5919800  11.0091219  79.1819916  83.0396423  70.7398300  84.3322220
  82.3857880  70.3147507  83.7772293  82.9158096  70.3435669  85.1947021
   2.8316908  69.2081909  52.6070671   1.8855197  69.0928802  52.5193405
   2.9305379  70.0565567  53.0391922  58.3737144  17.2733440  36.2894478
  59.1810265  16.8465176  36.5763168  57.7981606  16.5516510  36.0362053
  70.7699356  46.7828751  85.1529999  70.3999786  46.5916214  84.2911530
  70.6408539  47.7246437  85.2654266  13.7557230  54.9495392  34.1275024
  13.9461336  54.8365860  35.0587502  12.8249741  54.7413216  34.0463715
   7.2751355  60.6163025  44.3501511   6.3373594  60.8005371  44.4036789
   7.5377393  60.9570274  43.4950638  12.2724218  43.9195480   6.8282237
  12.7630520  43.2955132   6.2933497  11.6359472  44.3034630   6.2251120
  86.3211823  23.5359745  69.9827881  87.2179718  23.7092075  69.6964493
  86.3812103  22.7182865  70.4767685  60.4363708  70.8863983  12.7729511
  61.2890358  70.4764023  12.9181976  60.4464645  71.6641846  13.3307838
  51.8597717  59.4421387   8.5498762  52.7799149  59.5229759   8.2988119
  51.8721695  58.8874397   9.3298655  64.0140381  30.2250080   1.5713475
  64.8021240  30.3658333   2.0960560  63.4428329  29.7010441   2.1329682
  42.5433044  69.3850174   0.1469394  42.6878471  69.1946259   1.0738108
  41.7307930  68.9268341  -0.0678207   3.9505262  33.8855553  42.7673378
   4.0858536  33.1049576  43.3045349   3.0231826  33.8564758  42.5319214
  63.2536736  10.7115774   1.7208699  62.5604973  10.5261545   2.3543959
  63.9426651  11.1315699   2.2357783  74.6909409  34.0986519  15.2531300
  73.8310471  34.0355721  15.6688700  75.0948639  34.8683624  15.6539078
  35.8309708  58.2639160  14.9123936  35.6356621  59.1962662  15.0062590
  35.8384018  57.9292946  15.8091679  58.9597359  64.4273453  59.0424919
  58.5727615  63.8032379  58.4285126  59.2939453  63.8848000  59.7567558
  48.6935005  18.1525688  36.2533684  48.0138893  17.7090893  36.7609978
  48.2152901  18.7740555  35.7044601  58.6775818  48.4476013  37.0251846
  58.7269669  48.0522881  36.1548271  57.7705536  48.3113937  37.2989960
  31.7646217  53.6972427  56.0869751  31.7937851  52.7409706  56.1173935
  31.9395103  53.9131851  55.1709976  21.2575684  70.8151398  53.5202293
  20.3734913  70.4538803  53.5844879  21.1392212  71.7587357  53.6291084
  72.9353943  43.4673653  64.5449600  72.6003418  44.1572647  63.9722366
  73.7460709  43.1800232  64.1248779  81.7914200  69.9646835  54.0810890
  81.0006714  69.6917572  53.6158371  82.2708435  70.4973526  53.4465408
  52.3528900  57.7728157  70.5910568  52.9263916  57.2037354  71.1043472
  52.6411858  57.6503716  69.6865540  80.7877426  22.5778599  43.0265503
  80.7146988  21.7086792  42.6323166  80.8026886  23.1783867  42.2813187
  74.9155731  50.5362930  44.0477371  75.8328934  50.7821045  44.1674156
  74.7798996  49.8123169  44.6590309  81.3077927  21.7080250  21.6754017
  82.2091599  21.3864231  21.6571751  80.7724686  20.9169788  21.7379017
  54.3942566  47.6994286  85.1496964  54.5903168  47.1097145  85.8777313
  54.5272026  47.1654625  84.3664703   7.2180381  56.6319199  69.6486969
   7.7163911  56.1427498  70.3033600   6.3659730  56.1966095  69.6218491
  66.3606720  47.7684059  64.8598480  66.6107025  47.1392097  64.1832123
  67.1733170  47.9466743  65.3331985  15.6359739  52.6855583  80.5869598
  15.1168346  53.4503784  80.3384094  15.4386978  52.5532341  81.5142136
  20.8290634  61.2482719  63.8497772  20.7215786  60.9066010  64.7374344
  21.7511082  61.5004807  63.8002281  44.2429581  22.8820724  29.2259998
  44.9827003  23.4736271  29.3641262  43.4702835  23.4400845  29.3144913
  12.0388603  51.7008057  12.9181633  12.1112776  52.3131027  12.1859884
  12.5202789  52.1213799  13.6306143  16.9302769  15.4311018  62.0762901
  16.2934093  15.0657434  62.6904106  17.6947651  15.6328602  62.6158066
  20.0130100  18.4049339  88.1129913  20.1238937  19.2284451  87.6378403
  20.9042721  18.1324978  88.3313065  28.9153290  47.4851456  56.8118477
  28.1078987  47.4929161  57.3258781  28.8238144  46.7279015  56.2335434
  86.2824554  35.6552849  41.2156487  85.6497955  35.0498619  40.8290787
  86.4304504  36.3131142  40.5362434  62.5393143  50.3139648  53.4442902
  61.6588135  50.6387062  53.6326866  62.7547379  49.7577629  54.1929321
  61.2857437  22.9262047  58.7650452  61.7039757  22.3044529  58.1694489
  61.5833435  23.7843895  58.4630814  42.4860153  71.6393051  17.4659271
  41.7670670  71.9110336  16.8953934  42.6521149  70.7280807  17.2244663
  57.8942642  17.9483814  65.5986176  58.1798477  18.8326550  65.3689804
  57.0250473  18.0691090  65.9808731  61.0916481  16.2848339  19.4919758
  60.3267097  16.2621288  18.9170074  60.8524017  15.7256327  20.2310867
  74.0630341   5.7588019  43.5509300  74.6066360   6.3990054  44.0101318
  74.3274231   5.8338637  42.6340370  51.7872696  11.2498255  20.2609291
  51.8329620  11.2783136  19.3052444  52.0183678  12.1363306  20.5382957
  65.7608261   1.7846129  66.4917068  66.3996429   1.1391881  66.7943192
  66.0562973   2.6112113  66.8733673  79.4492035   2.6044896  82.4372864
  79.8855209   2.3020222  83.2337646  79.8405151   3.4598541  82.2599106
  76.9495010  67.7575684  31.6906586  76.0667953  67.9067917  31.3518448
  77.3756180  67.2221603  31.0213375  81.9526825  67.4361267  43.3013535
  82.2660828  66.5811996  43.0062141  81.7414093  67.9054565  42.4943047
   3.8901656  60.9344788  81.0928268   3.4297130  61.7648239  80.9714050
   3.5855691  60.6135864  81.9416351  71.4987640   6.4990244  54.8099060
  72.3832092   6.6991048  54.5033760  71.4400330   6.9238467  55.6656570
  70.3089905  35.5854797  30.4746151  69.7766342  35.2203140  31.1813602
  71.1326599  35.8295746  30.8967743  66.4963531  42.8417435   5.9721446
  67.2322693  43.4477539   6.0582967  65.7621078  43.3934174   5.7023830
  11.1692991  43.3682480  13.0051689  11.3524990  42.9520187  13.8474426
  10.2288809  43.5455780  13.0251551  62.3702316  47.6328049  37.6336784
  63.1606178  47.1863403  37.9373093  61.9672890  47.9755096  38.4314384
  18.4222660   5.4753270  34.3303490  19.0185051   6.0844808  33.8948479
  17.8195629   6.0371704  34.8174973  75.6564484  23.2434177  61.1855736
  75.6297226  24.1211090  61.5665932  76.5859299  23.0149612  61.1753197
  40.1447601  13.8796244   4.7354517  39.2842941  14.1202183   5.0788794
  40.4575119  13.1973209   5.3294888  51.7007561  36.6403084  21.2373505
  52.3117828  37.0601463  20.6318626  52.2444420  36.3703537  21.9774609
  15.3526154   0.3607201  28.0190392  15.7059574   0.1630714  27.1516762
  16.1216240   0.4002349  28.5876293  20.8564682  57.1136475  25.6065140
  21.6777248  56.6378288  25.7304745  21.1250648  58.0201836  25.4572659
  78.4645233  17.5780048   1.1010072  78.7658157  18.4012642   0.7166876
  77.5240784  17.5608540   0.9235345  45.2363129   2.5130398  84.1449966
  45.1785545   3.4182811  84.4506683  46.1659660   2.2957683  84.2140884
  36.5114021  39.6890373  78.2427597  37.3284683  40.0049057  77.8569336
  36.7590523  39.3922462  79.1184387  44.2823219  33.9827652  23.6316128
  44.0945892  34.5193710  22.8615189  44.0166817  34.5267067  24.3730946
   8.4029894  46.6034088   7.8644009   7.9265075  47.3247375   7.4534426
   7.8820295  46.3810616   8.6360178  86.3060379  54.5423584  57.8112373
  87.1524277  54.6530495  58.2443695  86.5000153  54.0119171  57.0384254
  84.4080811  32.3835716  23.2749519  84.8657532  32.1851730  24.0919018
  84.4636307  33.3357620  23.1944466  76.4463806   7.4589095  22.8231525
  76.1601944   6.7849388  23.4396706  76.9645996   8.0641975  23.3535366
  39.4750938  56.5325966  25.3508167  38.5960503  56.2540436  25.6075706
  39.9835281  56.4979973  26.1610813   4.8916578  64.9420242  70.5536652
   5.3483081  64.8582535  69.7165985   5.4779239  65.4712906  71.0944138
  47.6486855  57.0485497  70.4355011  46.9482307  56.8530807  71.0578995
  47.3841057  57.8735085  70.0284729  52.3372307  18.1282825   0.0587701
  52.2944717  18.8508244  -0.5675979  52.6553154  18.5304871   0.8670312
  48.6009712  22.3986015  20.3464718  49.2280884  22.1443348  21.0234528
  47.7584305  22.0773411  20.6676426  15.7473030  49.7187958  41.9925423
  14.9162703  49.5365067  42.4311638  15.9421072  50.6286659  42.2170792
  81.0454788  50.9739227  54.7969398  81.1514816  51.4193497  53.9563484
  80.2711716  50.4234009  54.6803169  26.4342785  12.0060291   0.2946270
  27.1157093  12.5756874  -0.0622661  25.6193447  12.3481731  -0.0728669
  77.9337006  52.8949013  50.6877289  77.5952301  52.0000343  50.7174339
  77.2418442  53.3985481  50.2588844  71.1876602   3.6435337   2.2872233
  70.3089828   3.9816599   2.4599359  71.0404739   2.8255200   1.8124386
   8.8785524  12.7445984  33.7351494   8.1262331  12.8962326  33.1630898
   9.6286430  13.0654812  33.2345200  62.9366570  66.0779572  76.9053040
  62.1748924  66.1242218  77.4830627  63.5221863  65.4514923  77.3306656
  62.6818466  59.6510887   8.9517288  62.5634041  60.4976234   8.5209322
  62.2504196  59.7517090   9.8002443  46.6049576   6.4126506  36.7933350
  46.3095970   7.1086578  36.2063332  46.7717590   5.6673765  36.2162933
  21.2116928  23.4345303  72.5752563  21.3720074  22.5665207  72.2049942
  22.0835781  23.7723255  72.7800522  46.6380730  42.5836258  78.5537720
  47.3838234  43.1682243  78.6891708  45.9455757  42.9470177  79.1056976
  65.3871078  28.3554440  38.1805801  64.4770584  28.1256485  38.3682899
  65.6320496  28.9572601  38.8834724  50.8502045  23.1538467  36.7505455
  50.2074318  23.1924305  37.4587746  50.4136772  22.6582966  36.0576515
  42.8159409  23.7118626   9.1092520  41.8944511  23.4942398   8.9688120
  43.2418022  23.4977798   8.2791653  78.2719421  22.5478973  27.2502804
  78.5227814  23.4015617  26.8973293  78.1735458  21.9894199  26.4791431
  47.0767593   6.8218336   8.1470928  47.9244957   6.3812542   8.2059584
  46.4457283   6.1120563   8.0277281  52.1786118  69.0659561  73.9872818
  51.9465218  69.5867310  74.7561417  53.0013390  68.6391983  74.2265015
  65.3123703  14.1442385  55.2033348  64.9903107  15.0452538  55.2293472
  66.0232239  14.1623831  54.5625534   7.7894664  65.2862320  43.6761627
   7.5356116  64.3635864  43.6988716   7.3183479  65.6458359  42.9245186
  78.8663483  65.2850494  37.7902145  77.9335022  65.2610168  37.5770073
  79.0014267  64.5277634  38.3598671  11.7294426  28.5317726  14.3834009
  11.3996277  29.3611546  14.7292013  11.3974075  27.8702545  14.9903440
  69.7756577  52.0349998  48.3650093  68.9526367  51.5569801  48.4668007
  69.5665359  52.9309311  48.6292229  35.1910324  62.1432419   5.1651111
  35.4423370  61.2322578   5.0128288  34.2384300  62.1477623   5.0715098
  61.9183655  11.6961231  21.3543587  61.6877251  11.4504347  20.4584370
  61.3015137  11.2107048  21.9021683  72.6656189  10.2852640  80.4893875
  72.8835754  10.1728659  81.4146423  72.9841080   9.4861975  80.0695190
  53.5041389   5.7315440  63.2556343  54.2341957   5.6843514  63.8729019
  53.3471870   4.8224635  63.0003510  17.8404732  71.1909714  54.1000900
  17.8336868  71.9803696  54.6414223  17.4078388  70.5279160  54.6380577
  48.8853607  67.0949860  48.2620316  49.4290848  67.2419586  47.4880829
  48.6610565  67.9739380  48.5675812  40.9707069  58.0824280  21.1645126
  40.1502686  57.6059837  21.0375519  40.9500275  58.7751617  20.5042686
  52.7864761  17.2259731  67.7785873  52.1984367  16.6350403  68.2489471
  52.2024345  17.8269310  67.3160095  78.5282974  38.2632942  36.8519936
  78.5608444  38.9222679  37.5454826  78.4660873  37.4290009  37.3170967
  37.6377792  67.0464935  43.2931824  38.0814934  66.6571655  42.5396767
  37.6519699  66.3602753  43.9603653  54.0104065  69.0671387   8.5707474
  54.6039505  69.0520325   9.3215551  54.0599556  69.9655838   8.2442999
   2.5739286  11.5338221  24.4437237   2.0557034  10.8478842  24.0228157
   1.9492265  12.2408228  24.6053715  79.2145309  63.1222267  47.7066574
  79.8566666  62.7274437  47.1166992  79.7013474  63.2884636  48.5138855
  86.4947586  27.2768497  10.7060022  86.2553024  27.4589615  11.6146984
  87.4474335  27.3676891  10.6865463  84.4724121  30.5301857  77.9142151
  85.2157440  30.7695675  78.4677429  84.4100342  29.5784760  77.9953842
  63.0923653  64.9789658  25.0050850  63.9292068  65.3577271  25.2742805
  62.7967796  64.4837799  25.7690525  86.5033188   8.5276518  19.1643333
  86.8220978   7.7520170  19.6258545  86.5820084   9.2358646  19.8034515
  39.8309479  54.7540741  66.9942780  39.7567368  54.7392235  66.0400772
  40.0165291  53.8462143  67.2342377  20.0088196  56.9053955  31.2874813
  19.0783997  57.0342751  31.4717045  20.3903313  56.6713333  32.1335869
  45.8680038  60.9232216   5.2759933  46.5687408  60.9657364   5.9266782
  46.1710548  61.4825249   4.5607495  28.2968845  49.9326668  11.0218849
  27.6440601  49.3311386  10.6638136  29.1058826  49.4216042  11.0457525
  49.9286842   6.3821855   9.0539951  50.2385826   7.1237931   8.5341759
  50.0776291   6.6470366   9.9616842  10.2100267   9.4800158  15.0156097
   9.5169792  10.0221958  15.3923836  10.8630333   9.4080992  15.7117729
  38.7560806  68.2911377  54.3383369  38.0481224  67.6762009  54.1463013
  39.5568619  67.7859268  54.1977921  21.6933784  48.8089523  27.6632843
  22.5326385  48.5431023  27.2875214  21.9172821  49.5049896  28.2810478
  42.9774208  20.6931152  72.7758179  42.1937485  20.8221397  73.3100815
  43.6363220  21.2603645  73.1762009  77.0151367  67.3643112  44.9806480
  77.2553329  66.5445175  45.4124641  76.2421875  67.6681671  45.4565239
  56.6141548  16.3625660   6.7925401  56.4981804  15.4551306   6.5108619
  55.9347687  16.4969311   7.4533067  74.1361771  35.6482544  33.8735161
  73.9450607  36.2278900  33.1361351  75.0750656  35.4750175  33.8049126
  37.2614288  47.6358452   7.9013596  37.0858345  47.6963043   6.9623485
  38.0484505  47.0945778   7.9634867  57.0121460  51.3032532  53.3506584
  56.1499901  50.8901558  53.3982773  57.1661339  51.4289169  52.4143181
   3.3525903  60.7381554  20.5394993   4.0616846  60.1174088  20.7071075
   2.6365702  60.4411850  21.1010666  11.0408039  61.8362503  33.2688789
  11.8073616  61.7578316  33.8367462  10.7237606  62.7273293  33.4161835
  39.6973686  33.6879997  25.3936653  40.2355881  32.9239006  25.6003094
  38.8087349  33.3409500  25.3154392  17.2190952  47.7946396  56.2832680
  16.8686085  48.6395035  56.0011368  17.6958141  47.4664497  55.5208626
  66.4664536  22.2086658  24.3107567  66.4351730  23.1542320  24.4562168
  67.3970032  22.0141811  24.1990013  31.6308517  58.9222412   3.5161691
  31.5124226  59.7067184   2.9806306  31.2608166  58.2142029   2.9889266
  82.9699249  67.6326065  60.7972031  83.8846283  67.8863678  60.9202652
  82.9774628  67.0814896  60.0146179  51.6297798  58.7307053  43.9724045
  51.9923744  58.0489120  44.5380173  51.0882530  58.2558975  43.3418961
  64.4280167  24.2344551  67.0524750  65.3391571  24.4737816  67.2220840
  64.0995636  24.9303932  66.4832458  12.9851761  52.2221413  15.3933649
  12.8592901  52.9816360  15.9621811  12.6202507  51.4888420  15.8886738
  78.1522751  13.9035625  78.0313492  78.0154877  13.9013062  78.9787216
  78.9670792  14.3905468  77.9081573  70.4417191   0.9872409  22.0279636
  70.3503647   1.7906412  21.5156803  69.7943649   0.3896428  21.6537323
  23.1393814  50.6963158   9.7926025  22.8043995  50.9943848  10.6382818
  22.6287937  49.9108772   9.5960941  49.9683876  40.3213654   7.9439449
  50.3260307  39.9405136   8.7459879  49.8500099  41.2483597   8.1510725
  80.5705185  42.1585464   6.0479836  80.5210037  43.0351257   5.6666818
  81.4919357  42.0518570   6.2843089  61.2121124  10.5074520  55.7417984
  60.4778748  10.4336290  55.1321411  61.5385628   9.6122818  55.8330879
  63.9867439  40.9306717  13.8040628  64.5285797  40.2405281  13.4215107
  64.4350662  41.7437782  13.5714655  65.0344467  41.1861267  58.8950348
  64.2605896  40.9089508  59.3854980  64.6837540  41.5716820  58.0921669
  85.3339615  54.2491646  63.9284859  86.1795502  53.8344307  64.0993805
  84.9328995  54.3403854  64.7928085  55.1300545  16.1023560  11.4900560
  55.2102509  16.3319244  12.4158525  54.4600830  16.6971226  11.1529722
  62.2217407   7.3221951  26.0322361  61.5073738   7.1421080  25.4211063
  61.9486198   8.1155939  26.4928398  72.9577637  35.6467247  30.9455795
  73.2646866  34.7418327  30.8889732  73.2591324  36.0531311  30.1330280
  81.8772430  59.5353661  14.9091406  82.4216919  60.2933731  14.6964464
  82.3362274  59.1057930  15.6309690  34.9965515  32.2320900  21.2517109
  35.6811676  32.4837151  21.8715649  34.2284431  32.0651970  21.7979565
   9.3697481  59.9213448  72.5144043   8.9765158  60.2550735  73.3207703
   8.7163868  60.0992126  71.8378601  26.4604759  69.6501312  57.7740822
  26.2930107  70.4849777  58.2113762  26.0710430  68.9944077  58.3525276
  42.8451118  18.6260834  71.1858597  41.9509315  18.2848568  71.1706314
  42.7910118  19.4157047  71.7241974  41.8855286   3.6479974  46.5604630
  42.3730736   3.0658054  47.1431999  41.0465088   3.7807717  47.0016556
  21.5603523  26.4041786  13.1789961  21.0951309  25.7381573  13.6851740
  22.1048241  25.9052563  12.5700150  34.4552002  29.8875237  14.9480352
  34.6025085  30.7669315  15.2961321  35.2337914  29.7045631  14.4221516
  49.5390472  19.2101631  76.2252655  48.7169456  18.9356480  75.8190308
  49.9814148  19.7223015  75.5483246  50.0493431  14.0779228  64.6050415
  50.7110977  14.6767521  64.9510422  50.3657265  13.8506241  63.7307053
  17.8989849  46.2201195  84.1075287  17.8195686  45.2909660  84.3234024
  17.6708374  46.6747475  84.9183884  67.8519363  40.5503845   6.9277525
  68.0731277  40.1811981   6.0727620  67.5001831  41.4183884   6.7300916
  75.9968796  51.0756912   0.6620643  75.1451645  51.3807869   0.3494510
  75.8295593  50.1915359   0.9884114  13.7249851  41.6011658  37.5319252
  13.0103016  41.6835480  36.9005203  14.4895744  41.3790512  37.0006065
  64.4907074  63.3620987  37.0164108  65.0610199  63.0286331  37.7090645
  65.0714645  63.4822121  36.2650642  38.4509048  39.3641815  68.6834564
  39.2417946  39.7069168  68.2672119  38.4731331  38.4244652  68.5027161
  20.2903175  39.4166641  83.0068130  20.0539036  38.6899872  82.4303741
  20.8423500  39.9815216  82.4660416  55.4916649   3.1400189  29.8954906
  55.9263268   3.6525090  29.2138348  55.5247688   2.2385988  29.5752125
  28.3948994  57.2296219  64.7469101  28.7918797  56.6355171  65.3838348
  29.0256367  57.2660599  64.0278244  57.6443634  39.1006126  71.0028534
  57.4301872  39.7016907  70.2893600  56.8151894  38.6695442  71.2099228
  33.0531044   7.4618707  11.9429712  33.7499313   8.1180897  11.9494696
  32.2998886   7.9085011  12.3295193   2.7334030  11.5297937  38.6747932
   2.1610391  11.8969498  39.3484612   3.2456236  12.2758961  38.3630371
  60.5376282  18.4635639  26.1035480  61.0773010  18.7581577  26.8371696
  60.4825363  17.5142155  26.2127914  40.7521324  60.5468178  19.3825302
  40.6538315  61.1562233  18.6509609  41.3864899  60.9686623  19.9620743
   8.9081221  37.2824211  69.3059998   8.8606081  36.3375092  69.4513245
   9.8361511  37.4537582  69.1458893  64.1593018  52.9475555  49.4844360
  63.2417831  52.7023315  49.3650665  64.1996307  53.2985306  50.3740578
  14.6983585  45.5597801  17.3953247  14.6599131  45.1211739  18.2452526
  15.3247852  45.0438995  16.8876953  75.8024673  51.6866608  77.7085571
  76.2418289  51.7696648  76.8622055  74.9761963  51.2472954  77.5074081
   0.8398061  13.3945398  36.7509041   1.5036126  13.3342228  37.4378929
   1.2985687  13.7875738  36.0084114   7.0656657  10.6532068  82.7110672
   6.2948394  10.1402597  82.9538498   6.7092075  11.4640369  82.3481293
  64.4982147  17.2630711   8.9067202  64.4788284  18.1259899   8.4929237
  65.3298340  17.2431564   9.3802719  62.3837852  35.4033394  87.2485275
  62.5311623  35.7262001  88.1374969  63.2552299  35.1638680  86.9331360
  37.5058022  16.5702038  89.0396118  37.0111427  15.8583736  88.6336060
  36.9480362  17.3407478  88.9328842  75.7295532  40.3731880  31.3951149
  76.6115036  40.6190262  31.1159191  75.1576843  40.7074585  30.7041264
  34.2106857  40.5228958  59.6372795  35.1264076  40.7228012  59.4430733
  33.8058281  41.3770561  59.7880440  45.0039673  20.3500900  64.7718353
  44.3997574  21.0056515  65.1202621  44.8024483  19.5535965  65.2629700
  55.5387802  53.3527908  61.9637794  55.0349197  54.1151428  62.2486877
  54.8787193  52.6840553  61.7811661  58.6227188   8.1889982  32.2587090
  58.8212051   7.3446517  32.6635742  57.8912811   8.5340824  32.7707100
  75.0903778   1.6859436   8.6173143  74.8328018   1.7012634   9.5390797
  74.7351608   2.4979696   8.2558374  71.1590271  13.3439093  34.8487091
  70.5587234  13.7769442  35.4556236  70.6353378  12.6500511  34.4480362
  20.2012291  18.2222786  40.9820709  19.8814850  18.6168575  40.1707153
  20.5941334  17.3939247  40.7069511  75.7358475  29.9330845  37.7659111
  76.1941299  29.1010361  37.8838348  76.4323196  30.5894127  37.7460365
  62.7252083  13.4871893  46.4844017  62.2369652  12.7201986  46.1851082
  62.5262413  14.1648617  45.8383331  27.5270233  54.9617844  78.1637955
  27.2859192  54.9200974  77.2383957  26.8741188  55.5418701  78.5555115
  74.2598495  26.5999851  56.6350708  74.5542831  26.4308853  55.7401123
  75.0175552  26.3886375  57.1804543  83.0292206  32.4752159  76.2879257
  83.3529282  31.7386036  76.8064270  83.2401123  32.2426300  75.3836746
  60.2606049  53.1608162   4.7414088  60.2539406  52.2040634   4.7129450
  60.8769989  53.3753166   5.4416089   5.6404743  67.7592163  43.2154922
   6.3667650  68.3657608  43.0711365   5.8228440  67.0236893  42.6307068
  73.7250366  63.3392639  21.9525337  73.6849289  64.2709198  22.1684895
  72.8091431  63.0681229  21.8905277  57.2178535  25.8892956   2.9281054
  57.6960106  26.6121006   2.5217218  56.5653343  25.6365681   2.2749758
  55.3926773   0.0354608  12.3526011  54.8217545   0.1300960  13.1150455
  56.1838226   0.5220989  12.5839205  56.3878975  61.9653587  46.1493950
  56.4847488  62.8838615  45.8979988  55.5322990  61.7113037  45.8035088
  75.4228745  29.3223934   3.8943877  75.3019562  30.2025661   4.2506285
  74.8198013  28.7753716   4.3976812  51.1018066  48.5846252  54.5956841
  50.7068214  49.0690536  53.8707352  51.6663094  47.9379120  54.1722107
  53.6516914  29.2833595  85.8722610  54.3700943  28.6532440  85.8167038
  52.9018517  28.7663422  86.1666412  34.9206924  42.1229668  75.3391800
  35.3766861  41.4557419  74.8262329  34.0392342  42.1502876  74.9669952
  57.4667892  70.2197113   2.1906095  56.9758606  70.2707596   3.0107398
  57.0640297  69.4930725   1.7152052  32.1638451  57.7145462  76.7632751
  31.4980450  58.1486511  76.2299042  32.7492218  58.4206581  77.0370865
  86.2786407  25.9912510  47.3460159  86.0570221  25.6883717  48.2265701
  86.2132950  26.9448433  47.3972092  48.8201218  59.7879562  18.7548618
  48.2382393  59.2235985  18.2458000  48.2952003  60.5660591  18.9426079
  81.1951752  42.8154564  37.7848320  81.7785263  43.4104004  37.3136902
  80.4095535  43.3351555  37.9549713  23.5336742  44.5397682  41.4796104
  23.6089020  44.4261513  42.4270592  23.0579033  43.7641754  41.1823997
  46.1105461  40.4348183  58.0280647  46.9799728  40.1207123  57.7797356
  45.5077248  39.7933159  57.6521492  62.1502304  11.1851425  25.6603012
  61.5278282  11.9123230  25.6679115  61.7472916  10.5191584  26.2173786
   8.9946976   1.8226478  78.8771667   9.0847321   2.7378867  79.1426163
   9.8875828   1.4783219  78.8978424  84.4404297  11.6112127   5.3342543
  85.1220856  10.9843311   5.5763240  83.6432953  11.0852356   5.2697401
   6.2116723  54.2640495  52.9041939   5.2585077  54.2774239  52.9909744
   6.4026651  54.9417267  52.2557259  79.1409149  66.7775879  30.2774982
  79.7408295  66.6251602  29.5473633  79.3324509  67.6711273  30.5623302
  86.7155228  27.6946316  43.4507751  86.0146179  27.7044144  42.7989540
  86.9258957  28.6179695  43.5901451  52.3732758  62.6574211  43.2927437
  51.4720268  62.9095268  43.0916901  52.9084244  63.1970100  42.7107697
  39.4253387  50.2881660   1.5134817  38.7949104  50.6676025   0.9012552
  40.2172813  50.8132324   1.3978839  76.1727905  26.7090149  20.2917271
  76.3960800  25.8785458  19.8713779  76.9891891  26.9983463  20.6991806
  30.0873470  42.2695961  28.4635315  29.4168320  41.8663025  27.9121742
  30.5517483  42.8671722  27.8774738  85.9827576   4.0130134  70.3274231
  86.6030350   3.4306657  70.7660065  85.3922348   3.4239981  69.8577652
  31.2462425  34.5761642  87.5524216  31.4658966  33.6578560  87.3952789
  31.2066422  34.6532211  88.5056992  68.9812546  31.0823040  45.3023872
  68.6002655  31.7010040  45.9255180  69.7291946  31.5484848  44.9289017
   9.1854086  19.6586742  21.7264881   9.8042631  18.9855328  22.0095634
   9.7306814  20.4240665  21.5445938  52.7105980  49.8182640  84.9491501
  53.3325920  49.1238594  85.1663132  51.9619675  49.3588676  84.5686951
  69.9651108   5.5640712  50.3953400  69.8730392   4.7306275  50.8569984
  69.7930832   6.2280035  51.0630455  23.3218880  59.2724457  42.6147690
  22.5850868  59.2487564  42.0042000  22.9232578  59.4629288  43.4639130
   5.6296582  47.8126068  72.9401932   6.1154079  47.8127174  73.7649765
   4.9743080  47.1233597  73.0482788  64.1571579  18.8775578  47.4777451
  63.3758316  18.7942047  46.9311104  63.8367615  18.7635269  48.3724937
  16.1103897   7.5987935  79.0867691  15.8359575   7.7998137  79.9814758
  17.0668869   7.6121283  79.1209183  23.8327904  44.9740257  74.1714020
  24.7744675  44.9284058  74.3369141  23.7633877  45.2257576  73.2505035
  76.4219208  53.0635185  28.6627750  76.6084061  52.1294136  28.5684338
  76.9374161  53.3351669  29.4221878   6.3331485  56.8701324   8.8090630
   7.2255473  56.6353989   8.5545921   6.1142898  56.2554932   9.5094557
  46.5307732  59.3354492  53.5677528  47.3497887  58.9220734  53.8408127
  46.4401932  59.1005630  52.6442490  49.9627876  18.1909370   3.3904729
  49.8525009  17.5438995   2.6937587  50.7842331  17.9463444   3.8166575
  74.0983810  41.5247192  24.0949268  73.9341888  40.6893272  23.6574421
  74.5945206  41.2908249  24.8793869  48.3947182  26.2032909   7.7181296
  48.0735283  26.5092545   6.8699241  47.7395363  25.5682640   8.0074520
  63.7822342  11.1129837  31.6445446  64.5424957  11.5104132  32.0691452
  64.0396729  10.2032299  31.4951916  84.8215027  15.5578022  48.5765266
  85.2017746  16.1361217  49.2377129  85.4758835  15.5290995  47.8785324
  57.2059669  39.1164474  43.6670227  57.3776588  38.5903053  44.4480019
  56.2537231  39.2116585  43.6469498  39.1532898  45.7276230  41.6694069
  39.3488617  46.1594467  42.5009804  38.2013474  45.7854271  41.5875778
  67.6661606  14.2908859  53.8707047  67.5496979  15.2147865  53.6491737
  68.6058197  14.1375151  53.7719536  83.5668640  25.1765919  13.1107578
  84.3631210  25.4297981  12.6437578  82.8590546  25.5981750  12.6234112
  35.7329521  65.5019913  89.0323181  35.2187157  65.7766724  88.2731476
  35.2206650  65.7931442  89.7866516  21.0389080  26.1342564  80.0531464
  21.4975929  25.3680668  79.7084808  20.7523727  26.6120739  79.2748032
  37.8354340  36.9210014  10.6457014  37.8743324  36.7085457   9.7131872
  38.6753654  36.6226044  10.9945726  27.3881760  15.4833202  19.6993046
  27.1066151  15.7054796  18.8118362  28.0421810  14.7950201  19.5778446
  15.0537243  55.1407166   1.0217837  14.4604692  55.5062141   1.6780553
  15.8886061  55.5805740   1.1821909  33.8992386  45.4968796  35.3882599
  32.9656372  45.5246925  35.1788635  34.1662712  44.6030426  35.1738205
  37.4954948  34.5729179  15.0450640  37.9146576  35.2662201  14.5352936
  36.6059456  34.5227852  14.6951790  84.8235092  46.9183083   5.4296641
  85.2029648  46.8630180   6.3066988  83.8788528  46.9563026   5.5793667
  84.2225647   8.7070599  41.6428452  84.6102295   9.4880381  42.0378456
  83.8855820   8.2053556  42.3851166  26.4576855  69.7579651  80.5664139
  26.7842598  68.9305573  80.2128983  26.3217030  70.3102951  79.7965622
  21.0020676  42.8106041  26.6472359  20.2904739  42.8912354  27.2823467
  21.2625332  43.7131729  26.4635010  10.6215906  60.7427254  48.4757538
   9.8421431  61.1010170  48.0511131  10.6379757  59.8233452  48.2098465
  21.3270893  46.8856316  12.8980865  21.2173424  45.9980850  13.2393332
  22.1958637  46.8820267  12.4962788  83.6701736  15.9403143  70.9153671
  84.3162537  15.5026760  70.3610382  84.1690445  16.6123619  71.3798141
  58.6614189  23.9657993  27.0354328  58.8384972  23.0415783  27.2106190
  59.5278587  24.3661060  26.9628468  36.5570717  65.8306885  55.0421715
  37.0969162  65.0402756  55.0348167  36.9676857  66.3950958  55.6972084
  82.7111206   2.9627798  48.9112968  83.0645599   3.8330069  49.0957375
  81.8467789   3.1300135  48.5355492  38.9018478  17.9620743  77.2899094
  38.9939880  17.9485111  76.3372498  38.3428345  17.2105350  77.4871979
  59.3238869  67.2873764  63.4533272  59.9015312  67.6177826  62.7652931
  58.4465027  67.5521927  63.1770935  27.6813660  21.6899738   4.3408017
  28.2985973  21.6163559   5.0687008  27.1779366  20.8763943   4.3704438
   8.8501968  62.7728195  54.2536659   9.6554642  62.7245369  53.7384529
   8.4388552  63.5923004  53.9789314  63.4729614  35.6730270   8.8510838
  64.2121887  35.0891075   9.0208302  63.6419525  36.0256042   7.9773779
   5.9284492  60.0391121   8.7531881   6.4757190  60.0773582   9.5375767
   5.7327738  59.1086502   8.6428022  19.2910519   4.9827900  80.5219879
  18.6514778   4.5678039  81.1007538  19.5533657   5.7779231  80.9858704
  57.6070290  55.8575211  63.4009972  57.1849632  55.7168808  62.5534630
  58.5281181  55.6469421  63.2477493  16.7191048  43.7260933  63.6045341
  16.6739254  42.7902946  63.8006821  17.6120224  43.8614922  63.2873573
  66.5088882   8.3223000  74.8342133  67.2073593   8.2208223  75.4808044
  66.0984879   7.4588108  74.7874603  59.7590065  35.2330704  82.9038086
  59.5335197  35.7696877  82.1439209  59.3330498  34.3920593  82.7379990
  30.7308712  64.3972321   4.3880239  29.8393421  64.2280426   4.6926227
  30.6245480  65.0236282   3.6720896  55.1036949  18.6510162  28.8500481
  55.5076408  19.4364357  28.4810276  54.3601379  18.9791183  29.3557205
  85.9586029  50.3521194  65.6113281  85.8792191  50.0164604  64.7184296
  85.0574951  50.5280075  65.8820801  66.9121399  46.7976913  87.6295471
  66.8310318  46.9701042  86.6915054  66.9964600  47.6648254  88.0260391
  76.9332199  44.0056114  53.2356567  77.0651474  43.2503319  52.6626129
  76.5346985  43.6402397  54.0255432  68.4597244  41.1691017  69.9474640
  67.8832397  41.9166183  70.1059418  68.1445694  40.4923477  70.5465546
   3.7695630  17.3853722  42.2719574   4.1456065  16.5064011  42.2247162
   2.9006484  17.2540665  42.6514015   5.2378726  52.8458557  82.6026154
   4.7660384  53.5107803  82.1011353   4.5565305  52.2448845  82.9040070
  42.2567940  63.3574600  64.4507980  42.3838120  63.7038078  65.3340607
  41.4442368  63.7634544  64.1488876  30.3314857   4.9476233   7.8595614
  31.2387352   5.1086516   7.6003308  30.3373375   5.0265861   8.8134813
  53.2458305  54.1680069  83.6293411  53.1332664  53.7779350  84.4961777
  54.1939049  54.1956024  83.5003967  20.4674149  55.6740570  60.4683304
  19.8913155  55.1671562  59.8961487  20.8543587  56.3348579  59.8940086
  26.0122967  61.0239143  25.3495522  25.7839832  61.7534904  24.7735062
  26.5823574  60.4683380  24.8179550  33.9405251  42.2619247   9.1141615
  33.9186668  41.3402367   9.3715420  33.0199738  42.5048141   9.0150347
  47.6868935  12.7535954  12.1625137  48.2563095  12.5494680  12.9043579
  48.2679062  12.7338448  11.4020739   8.8540220  30.0859451  81.6735992
   9.4039888  29.6822624  82.3450241   9.4381208  30.2036209  80.9244614
   2.7558475  27.2469826  26.0436935   1.9836608  27.8124847  26.0308170
   2.8350873  26.9705620  26.9566803  81.5940094  20.1904373  35.4781952
  81.6477966  19.2478733  35.3203583  82.2994385  20.5625515  34.9489212
  17.3157253  33.2604179  62.3037872  17.3325176  34.1634636  61.9868393
  16.4498863  33.1616173  62.6997604  31.2196598  59.8121414  84.7953110
  30.9322109  59.0883522  84.2387772  31.5953636  59.3869286  85.5662079
  39.7822838  60.9892235  88.3775330  39.0033607  61.0240517  87.8222885
  40.2756310  60.2366905  88.0511398   4.8658338  35.3307877  12.3589172
   4.0571465  35.7252617  12.6854906   5.5599489  35.7548256  12.8635263
  33.3563461  64.6598663  76.4846268  34.0255852  63.9811096  76.3972321
  33.0894737  64.6162796  77.4028397  53.1580200  48.6235657  60.8899345
  52.8667984  48.0028572  61.5578728  53.3265800  48.0832024  60.1180344
   0.6748358  64.6440659   4.8073783   0.6377436  65.1158752   5.6393962
   1.5997348  64.6642151   4.5616393  59.7254868  32.7900887  16.0328712
  60.2659225  32.1321106  16.4701614  59.7429810  33.5443726  16.6219254
  28.9427338  35.5318336   5.0159507  28.8881912  35.0570641   4.1865840
  28.0354900  35.5988235   5.3136959  32.4450226  54.3079910  47.8245773
  31.9170208  53.7481384  48.3937988  32.3055115  53.9554520  46.9456673
  66.4016037   0.3051849  21.4504299  66.1311951  -0.6112683  21.5072422
  66.2848587   0.6447960  22.3377094   1.3588490  67.4336243  34.1752396
   1.9299861  67.8565598  34.8164558   1.9430602  66.8676758  33.6706314
  78.6515808   9.0706930  79.2986221  78.2687607   9.8347263  78.8674164
  79.5630798   9.0624714  79.0065002  40.5959778  67.3218002  28.6001263
  41.4019623  66.8220978  28.4700527  40.4085579  67.2350082  29.5347786
  74.9552765  48.5462723   1.0699476  75.4581909  47.8736572   0.6107060
  74.2981491  48.8297768   0.4343125  30.0890598  62.9223251  45.1790619
  30.4800949  63.6806412  44.7451515  29.6985226  62.4144440  44.4678879
  27.1683044  50.2321014  72.8848114  26.5925770  50.9064293  72.5241852
  27.9020405  50.1905708  72.2715149  53.6451836  38.4712296  86.4541779
  54.4946136  38.6178665  86.0380173  53.2579880  37.7485695  85.9601364
  63.1204529  33.9552917  20.4524136  62.8297920  34.8321457  20.7031555
  64.0158081  34.0805511  20.1379604  32.6470718  42.2061691  22.2651901
  31.8393135  41.9317818  21.8310604  32.3603058  42.8286247  22.9334316
  71.3355331  46.8266563  57.7444458  71.2305450  47.7662544  57.5948982
  70.5889206  46.4280624  57.2973175  59.8427582  51.0333214   0.6036884
  59.9387703  51.9556351   0.8410781  60.7399292  50.7025032   0.5603691
  31.2038765  68.7249680   8.9149027  30.8190708  68.5233307   8.0619678
  30.5395451  69.2520828   9.3587971  64.9232788  18.6502895  26.9009590
  65.2918396  19.3313522  27.4635868  65.5156784  18.6134644  26.1499958
  86.8275223  66.0319519  23.2599449  86.8913727  65.1033325  23.4831371
  85.9149170  66.2589722  23.4383736  26.7452259  57.7372894  11.3015289
  25.9390659  57.2932701  11.5645628  26.4809418  58.6451149  11.1524000
   0.3791060  23.5603905  86.1334229   0.8802133  24.2102242  85.6406326
   0.5319573  23.7856236  87.0511017  75.4812241  44.8633270  38.6477928
  75.8055267  43.9737587  38.5073547  74.5687027  44.8337708  38.3602676
  65.1154251  20.4025860  63.1225777  64.5988159  20.8741589  62.4691505
  65.3243561  21.0620346  63.7841721   9.7147570  21.2839737  24.8295803
  10.5062237  21.6341324  25.2384834   9.8267708  20.3340321  24.8655682
  55.1550255   2.6788564  61.2555695  55.2804718   2.5816548  62.1995239
  55.3259544   1.8066711  60.9001732  39.1945343  68.9969025  24.5838966
  38.9658470  68.0911484  24.3752365  38.4388199  69.3292236  25.0683460
  20.6324291  38.7587471  37.9292259  20.1546803  38.8564758  38.7528954
  19.9552631  38.7957573  37.2537193  16.7298527  68.5270615  33.0781059
  16.7283840  67.7207718  32.5622368  17.0528221  68.2601776  33.9387436
  10.1627789  49.0706825  43.1594543   9.2970572  48.7628555  43.4277840
  10.6932421  48.2758026  43.1046295  21.9516373  63.0731087   8.5888968
  22.5140018  62.9008293   7.8337150  22.4576035  63.6781807   9.1312246
  43.8751411   3.0174286   1.8523265  44.5722809   2.6517236   2.3968329
  43.5188255   2.2640476   1.3814889  22.4464474   8.8303528  67.3494797
  22.8082581   9.1892910  66.5392456  22.4421635   9.5693121  67.9578857
  68.3317947  44.2230377  16.4625301  67.6667709  44.8309860  16.1394653
  69.1610870  44.5907707  16.1571102  33.7934685  54.6395035  28.2892952
  33.1867714  55.0133400  27.6502342  34.0351944  53.7895508  27.9213543
  28.0299129  60.0326576  32.7524414  28.5694237  60.5203896  33.3747559
  27.4589367  59.4945564  33.3007774   8.2722902   3.8106530  23.7711048
   7.5611081   3.1735277  23.8383617   9.0112238   3.3923030  24.2129116
  73.1851501   6.6026087  65.2571869  72.9897690   7.4191308  64.7974548
  73.9791946   6.2743263  64.8353424   6.8277817  22.4231453  77.2232513
   6.3307676  21.6051235  77.2302322   6.7356229  22.7669792  78.1118011
  80.7772064  12.6442013  85.9294357  81.6691895  12.8423347  85.6442413
  80.2552109  12.6835766  85.1280594  37.1372719  42.7842903  44.3675880
  37.9930267  42.8082466  43.9394112  37.3332520  42.8770828  45.2999039
  15.1264639  31.3543968   3.8168259  15.8405447  30.9527130   3.3218808
  14.9255581  30.7200928   4.5049582  68.8515472  53.3555222   8.1654291
  69.6794739  52.9375572   8.4022341  68.3130493  52.6426659   7.8217945
  50.3079224   6.6358995  28.0315304  50.4045448   7.1593232  27.2359657
  49.6296768   5.9957271  27.8161449  17.0079861  69.3532181  55.8062897
  16.3459911  69.2616425  56.4915695  17.6061954  68.6202469  55.9516754
  26.8991451  56.0573769  48.3183899  26.1564445  55.6587372  47.8648338
  27.2169247  56.7281303  47.7139587  51.8880692  29.5691738  20.6765347
  51.5287590  29.7335567  19.8046951  51.2559090  29.9671326  21.2750626
  85.5666504  43.9808044  60.2667656  84.6386719  44.1640778  60.1201591
  86.0157242  44.7773895  59.9838791   3.8663125  27.4043884   4.4650207
   4.6394014  27.6004925   4.9942741   4.1901932  27.3891029   3.5644102
  38.0142136  61.6047134  20.7094746  38.9066696  61.8255653  20.4430580
  37.5388908  62.4343948  20.6655407  73.0583191  60.0667610  17.1101570
  72.1295929  60.1617126  17.3215256  73.1011810  60.1840668  16.1611404
  82.0252609  64.5504761  65.5494156  81.2318573  65.0545654  65.7300568
  82.6103134  65.1718292  65.1159744  11.1472120  16.2891827  72.2240753
  10.2263441  16.3967762  72.4621048  11.6056147  16.2277336  73.0621185
  34.4924011  64.8140488  51.2000237  34.5811539  64.3612061  52.0386467
  34.7732773  65.7109909  51.3812523  17.5865421  57.3714485  20.5298939
  18.3631039  57.1416779  21.0401783  17.2220974  56.5297165  20.2562180
  83.5363617  38.8360138  50.0415459  83.8438187  38.4688797  50.8703499
  84.3277359  38.9238815  49.5102844  77.7600555  21.1669235  71.9827957
  78.2421417  21.9933624  71.9540939  76.8581390  21.4082985  71.7718124
  47.7016106  60.7091103  60.7134399  47.9920006  61.6191368  60.7747154
  48.0333214  60.2975998  61.5114746  71.8467026   7.2024226  60.6685829
  72.1655731   6.3138967  60.5102425  72.3719940   7.5179148  61.4039497
  85.1050797  -0.0764039  86.7099380  84.8872299   0.5868360  87.3648300
  84.2604675  -0.4475693  86.4547958  48.6329422  49.9969521  14.2850389
  48.0341187  49.5411606  14.8765602  48.9163780  50.7670708  14.7778034
  54.2546425  63.9899330  51.0074921  53.7273102  63.1958504  51.0945587
  54.5879936  63.9589500  50.1107483   4.0135117  31.8686771  44.4974899
   4.5186086  32.1670036  45.2538719   3.2664590  31.4051838  44.8760643
  79.8709030  30.1026459  32.2842140  80.8071442  30.1823444  32.1016693
  79.8250198  29.5467567  33.0621033  34.4156265  39.4236717  82.4743118
  33.9632263  38.6035995  82.6719208  33.9168396  39.8041916  81.7513657
  86.2297363  67.6320953  31.5424461  86.0821381  67.2204742  32.3939285
  86.8595810  68.3306503  31.7200642  70.2609329  34.5958557   7.6007605
  70.6945419  34.0851974   8.2844591  70.8716354  34.5768509   6.8639312
  57.8235664  34.0619812   4.1128936  58.1800766  33.2013817   4.3331280
  58.4504356  34.6829910   4.4838572   8.3662014  35.7124519  40.7564964
   8.5883522  36.3707924  41.4148827   7.5890813  35.2766151  41.1063004
  19.8031216  42.6871834  23.1233482  19.2944927  43.3132973  22.6080704
  19.6080246  42.9113579  24.0332470  64.2868881  59.2048302  54.6005135
  64.7626724  58.7928200  53.8793259  64.9037018  59.8415489  54.9615746
  48.9978447  44.5803413  27.8557873  49.8168564  44.1842880  27.5581360
  48.3132591  44.0406990  27.4603634  77.6116867  11.4096098  22.5689487
  76.7541275  11.1979313  22.2001514  78.0932159  10.5826797  22.5455303
  39.3544044  27.1627083   4.3338361  39.0557175  27.2502670   5.2390165
  39.1989250  26.2431641   4.1182051  67.8401718  47.9804840  54.7085609
  68.1967773  48.5028572  53.9900970  67.1613388  48.5346680  55.0936546
  24.5613518  59.7200661   1.3625597  24.9950294  59.8154335   0.5145854
  23.8047981  60.3042526   1.3117003  50.3646812   1.4940919   1.1229270
  50.1040726   2.0069284   1.8879848  50.8272781   0.7392371   1.4868382
  23.8422604  43.2187157  76.7948990  24.3200054  42.6209450  77.3699265
  23.5522442  43.9253693  77.3717575  12.6000862  10.8493338  60.8011894
  12.4676924   9.9579954  61.1240196  13.0939655  11.2848139  61.4959373
   9.6573715  32.3206444   7.1892219  10.0125074  31.9098282   6.4009705
  10.3899088  32.8203392   7.5496759  82.9559402   0.7327064  71.2428665
  82.5808792   0.2545372  71.9824066  82.8010635   0.1654730  70.4875565
  28.2745438  15.1102962   3.2987564  28.0265255  15.6294222   4.0637579
  28.0941029  15.6820469   2.5525832  84.2550583  46.1653061  84.1973419
  84.4537582  47.0135612  83.8008423  83.4202805  46.3002319  84.6458740
  16.5195885   9.6161804  31.6379032  16.3169842  10.1130466  32.4305611
  17.4712124   9.5145321  31.6556244  78.6846161  18.0008812  79.3989258
  79.5340500  18.3810272  79.6229401  78.2096863  17.9696274  80.2294006
   0.5541589  50.7435837  34.4125557   0.4963070  50.2264938  35.2159920
   1.0279723  50.1814804  33.7995529  13.9052811  56.4301872  72.2991180
  12.9711304  56.3294754  72.1162186  13.9891710  57.3236504  72.6321640
  60.5497971  41.6473160  52.3956833  59.8796120  40.9680710  52.3200874
  61.3178177  41.1890907  52.7368584  22.3910427  38.4797058  15.8531532
  22.2679958  39.4283142  15.8179798  22.9570198  38.2837563  15.1064901
  68.8595734  67.2846069   4.9048738  67.9585266  67.4198074   4.6115232
  69.3273926  68.0657043   4.6094699  71.4606476  15.4995527  57.6844635
  71.4114761  16.3520050  58.1170578  70.8679962  15.5759020  56.9366875
  60.7279015  19.5820103  21.5038071  60.9294624  18.9604683  22.2033005
  60.8290977  20.4422302  21.9112549  68.7351913  58.9336433  57.4640541
  69.0245743  58.0279732  57.3533630  68.3173447  58.9480286  58.3251152
  48.2595291  39.4411087  40.3213692  48.4016685  38.7632828  40.9821129
  49.0998535  39.8952713  40.2595329  19.6910572  28.8713818  25.3877525
  19.4862156  27.9486694  25.2365189  19.1754303  29.3416882  24.7326393
   4.0794806  19.7886963  61.1290245   5.0272112  19.7620983  60.9973755
   3.8800104  18.9785595  61.5981941  47.8451653  62.7643394  12.5214109
  47.6312752  63.6890717  12.6453228  47.8469963  62.6440887  11.5717964
  55.2846451  13.1919794  15.2392874  54.7499352  12.9402056  14.4863434
  56.0631256  13.5959330  14.8558521  40.4327736  70.1976013  59.6575508
  41.0827293  70.5676651  60.2549133  40.4609451  70.7682724  58.8895836
  17.9339027  27.0279770  15.6287785  17.0667915  26.6991978  15.3915997
  17.8059921  27.9673538  15.7608538  52.2007065  18.2927551   7.6556020
  53.0412254  18.6740303   7.9093451  52.1915817  18.3475246   6.7000136
  31.8702984  31.0731354  80.5186996  32.2350883  30.3066063  80.9609604
  32.1265793  30.9657059  79.6027222  34.0917053  22.5657082  79.7644730
  33.4089088  22.6340904  79.0971375  34.8255615  22.1473484  79.3142929
  60.4480820  10.9794254  12.4503202  60.7453842  10.7337246  13.3263760
  59.6359749  10.4881334  12.3264351  41.3119164  28.3251419  30.5360622
  41.8788490  27.5879688  30.3093624  40.9091949  28.5815582  29.7064266
  29.0728741  69.9781570  72.1106796  28.7626953  69.3985977  71.4148788
  29.1411972  70.8372574  71.6941376  51.2189026  13.3967552  55.9965210
  51.6015701  13.4074268  55.1192055  51.3641891  14.2813988  56.3319740
  40.8975945  59.2802353  59.1845856  41.7254753  59.6279411  58.8530159
  41.1144066  58.9277000  60.0476875  19.5160599   1.2333293  35.0581551
  19.3227367   2.1696038  35.1055679  20.0902672   1.0691470  35.8061943
  47.2443886   2.8822598  43.6442642  46.7922440   2.6620216  42.8298378
  47.3117943   2.0505519  44.1132545  59.4123192  48.3535233  29.7355080
  60.2676010  48.1963654  30.1355419  59.3810616  47.7508888  28.9924812
  15.0590515  70.2004013  87.7634583  14.4190760  70.9040604  87.8708267
  14.9742517  69.9372864  86.8470535  85.6888580   6.0823627  63.0593491
  86.4898300   6.1492209  63.5791626  85.1330948   6.7910714  63.3835258
  57.5097961   4.5829458  66.8468857  58.2585869   4.1662621  66.4203644
  57.8754845   4.9824018  67.6361465  56.5610809  18.0472336  52.5379906
  56.9048386  17.1581573  52.6251793  57.1820755  18.5925617  53.0209122
   4.1683917  59.6912155  75.6237106   3.6592791  60.3743324  75.1873779
   4.5273819  60.1195259  76.4008255  46.7582474  42.0811424  83.1409454
  46.0320511  42.0535431  83.7639313  47.5337448  42.2249947  83.6832962
  53.6269798   7.2940040  88.2703171  53.8352852   7.8781705  87.5412140
  54.4313393   6.7958226  88.4154129  71.3736572   7.3976860   8.6352997
  71.0734329   7.6761084   7.7700949  72.1550903   6.8732944   8.4603739
  50.8762360  48.9100075  31.4696331  50.0281715  49.0861473  31.8770580
  50.6708374  48.3484764  30.7221527  56.2673874  26.6610031  66.8047562
  57.0648537  26.2799664  66.4372025  56.5751877  27.3980656  67.3322296
  15.3799410  55.8690987  53.6364403  15.8210115  56.6155701  54.0419884
  15.5995054  55.1265335  54.1991272  44.5692101  48.8381004  69.2167282
  43.7560349  48.8490562  69.7215652  45.2532158  48.6815262  69.8677673
  41.6664658  61.6726036  15.0895510  41.2477989  62.3117180  14.5129375
  42.0373688  61.0205002  14.4950581  62.5620842  26.4774532  24.6270390
  62.2422447  25.8364449  25.2618942  62.7344208  25.9661045  23.8364334
  49.3447342  55.0943871  72.7771683  48.7204933  54.4228363  72.5022583
  50.2004166  54.6727409  72.6981049   4.9869947   4.5688105  72.1243210
   4.7751579   3.7151654  72.5020065   5.0505676   4.4052734  71.1833420
  29.9084187   4.0937705  11.4169235  29.9857159   3.3157520  11.9691410
  30.8104534   4.3110986  11.1816893  10.0105286  28.1602707   0.5895932
   9.7815628  28.9660015   1.0528480   9.3044491  27.5510540   0.8053191
  63.9844933   3.0694747  51.4182968  63.4281998   3.7018037  50.9634018
  63.5342598   2.9071686  52.2472572  83.2399673  62.8157692  35.4639091
  84.1394653  62.7008820  35.7704086  83.0411987  62.0051003  34.9953613
  68.2880630  10.7240858  34.9878807  69.1139832  10.5675049  34.5300941
  67.6580658  10.1539869  34.5470619  65.6632004   1.3954868   9.7209702
  65.7719193   0.4957914  10.0291243  66.3885193   1.8750366  10.1211891
  43.6511841  46.8123360  25.1586494  43.8302383  47.1821442  26.0231800
  42.7588425  47.0943756  24.9576340  80.2238083  63.8213348  14.4911890
  80.4085617  64.5580368  15.0737419  81.0750427  63.4059639  14.3529692
  49.9010696  24.9675770  58.2991257  50.0914154  25.6071205  57.6128426
  49.9211082  25.4742985  59.1109543  82.3718109   1.7690659   6.4067044
  82.3112335   0.9132530   5.9822683  81.4849625   1.9434288   6.7218657
  46.6886406  52.2353134   7.7844300  46.7647400  51.6136131   8.5082607
  45.8322639  52.6443596   7.9090648   8.7784586  39.6108055  44.8376884
   8.5819969  38.6922035  45.0215378   8.9899244  39.9862251  45.6924248
  73.5443420   8.2239285   5.6529956  73.8193207   8.3907814   4.7514548
  74.1693497   8.7127466   6.1883984  23.1022320  37.8000374  24.6361217
  22.9452877  38.6274567  24.1811695  22.2657318  37.5935593  25.0530910
  82.8494568  60.6517220  19.1309090  83.1192856  60.2231178  18.3186741
  83.0044632  59.9959259  19.8107147  65.1288681  34.3155251  64.7411194
  64.5592957  34.0338135  64.0252609  64.5783081  34.8897591  65.2734528
  62.7935257  19.0761223  79.1356812  63.4860420  19.7352161  79.0883255
  63.2307320  18.2929077  79.4698334  46.8771019  63.3193207  38.0960693
  46.2619591  63.2304764  38.8240395  47.7408371  63.2925262  38.5077362
  78.1937256  57.1491203  50.8983231  78.1493149  58.0949173  50.7578621
  77.7625809  56.7725449  50.1311607  67.4664536  35.4622269  57.2838783
  67.3560181  34.8137054  56.5885696  67.6915817  34.9469185  58.0584793
  32.0060959  46.4031067  88.2188492  31.3748779  46.0333977  88.8361816
  31.9141788  47.3504105  88.3208084   4.8166890  67.3240356  52.1502762
   4.0597215  67.9000244  52.2573891   5.0917091  67.1211700  53.0443916
  21.9723835  59.1873436   4.4688907  22.8386536  58.7822723   4.4273739
  22.1248550  60.1032333   4.2362213  52.9364624  40.2034607  60.9919090
  53.3361740  39.3936691  60.6745720  53.5203094  40.8960075  60.6825027
  83.5945969  27.1549664  25.0494633  84.2435760  26.5163651  25.3448353
  83.7723770  27.2624645  24.1150818  79.6806793  20.5321770  11.7097664
  78.9815903  19.9220219  11.4747868  80.2422714  20.5627613  10.9352245
  66.0868835  60.8235817  11.8843555  65.5050125  60.1089096  12.1430225
  65.7713928  61.5801392  12.3786449  72.5789108  20.1377831  22.0734043
  73.4602051  20.1861095  21.7029762  72.0931091  20.8312855  21.6269970
  30.2563057  52.2817612  83.9490356  30.8060379  51.9746017  84.6699219
  29.9622669  51.4813347  83.5141830   3.5660219  20.1222725  41.9437790
   3.8108134  19.1992912  42.0102081   3.6510165  20.3261738  41.0124168
  56.6559525  11.4394732  60.7744827  56.8685036  11.2594948  59.8586998
  56.0524864  12.1816292  60.7389107  80.2316132  11.0523682  69.2700424
  79.6038208  11.1667242  69.9835052  80.0019836  11.7331324  68.6375351
   6.1078038   6.6939983  89.1397781   5.9394765   6.0077577  88.4940414
   7.0576553   6.8111453  89.1227188  52.8811073  29.5970650  64.3857422
  53.3364334  30.0253811  65.1106186  51.9638786  29.8466377  64.4981461
  56.3150215  59.0301781  59.3643074  57.1918373  58.6731300  59.5055275
  56.4150887  59.9722176  59.5013618  80.6975174  30.7525711   4.6115680
  81.0011444  29.9271069   4.9892559  80.3338165  30.5072670   3.7608159
  34.0669250   1.3282217  66.2306595  34.6242065   0.5676417  66.3955383
  34.0787354   1.8167322  67.0537262  68.8900833  33.2134514  52.8843727
  69.6919479  32.6910553  52.8658104  68.8829117  33.6711769  52.0437355
  56.8244896  47.8642578   5.5754509  55.9992714  47.5882912   5.1765876
  57.4754181  47.7491608   4.8831520  53.6249199  43.0730324   2.4521832
  53.3249550  43.9011650   2.0774167  52.8252602  42.5607643   2.5720043
  58.3556328  32.1495247  40.6923332  59.2636032  32.3791237  40.4945717
  57.9157410  32.1583748  39.8422470  82.6758881  52.2545471  31.5552425
  82.1601257  51.6817245  32.1227760  83.5797119  52.1261940  31.8431015
  73.3688812  42.9910126  -0.3107700  72.9883423  43.8457718  -0.1087631
  73.1639862  42.4511566   0.4526473  53.0153198  33.9679146  88.8963623
  53.6756935  33.4478531  89.3542709  53.4114304  34.8349342  88.8091507
  80.2182159  39.5425262  57.3351784  79.3226929  39.2486343  57.5021973
  80.2736359  39.6121216  56.3821220  23.0542336   3.5914731   8.8596487
  23.3663769   2.7884760   8.4425230  23.7814407   3.8707027   9.4159155
  38.6754227   6.8506794  75.3549194  37.7268524   6.8654776  75.4823227
  38.8299484   6.0904102  74.7942505  42.3693390  56.6592064  23.3163776
  41.7928696  55.9667511  23.6395283  41.9924355  56.9105568  22.4731712
  59.3020592  50.4251442  78.4028091  59.8646126  51.1765480  78.5903091
  58.6140060  50.7762184  77.8375168  34.9581528  51.7385139   1.3271224
  34.7760429  50.9772644   1.8780912  34.1019897  52.1428680   1.1867067
  41.8895683  51.7252655  41.2615089  41.1127167  51.5554771  40.7286835
  41.6228676  51.4993706  42.1526184  73.2392349  15.5340500   2.7232003
  73.2106705  14.9780397   1.9445685  72.3320618  15.5679502   3.0267131
  33.7040558  14.5495567  14.7888327  33.6287117  13.6473417  14.4780865
  33.4787254  15.0846043  14.0277920  43.1495438  53.9330711  49.1216393
  42.4757118  54.6067734  49.0304871  43.8878021  54.2617645  48.6086464
  27.4026451  43.1906242  76.9594498  26.6980267  42.7538986  77.4380112
  27.8453102  42.4848595  76.4880905  23.3380241  14.3300676  37.4804764
  23.1449528  14.1356125  38.3976173  24.2167587  14.7093058  37.4958992
  52.7014885  69.0864182  34.6101799  53.3844986  69.7518463  34.5269241
  52.0801888  69.2922134  33.9117012   6.4944386  52.6904869  42.3922691
   6.9544024  52.6076431  43.2276154   5.8508863  51.9819832  42.4019127
  61.7657814  41.5205688  15.2410774  62.6378746  41.2194481  14.9861012
  61.7931061  42.4688721  15.1137571  44.9591560  35.6802444  88.1318817
  45.3354225  35.0265160  87.5425644  45.5765038  36.4112320  88.1041946
  22.9432182   9.6492090  12.1346560  22.6273861   8.7856417  11.8687000
  22.6225338  10.2414513  11.4544773  47.7578239  46.0827255  40.1612701
  47.0397797  46.6220322  39.8299141  47.4042358  45.6714325  40.9499664
  59.5853729  14.7759161  44.6012726  59.1466103  14.0256233  44.2002983
  59.1791229  14.8579378  45.4640923  17.7566929  62.2152290  70.6929321
  17.9305248  62.7748260  71.4498138  18.1349297  61.3683014  70.9293365
  18.3430672   5.9411674   0.6501945  17.9811573   6.7767458   0.9452558
  18.7468643   6.1399975  -0.1945818  86.1633987  31.0977592  79.8296051
  86.1532135  30.8225174  80.7463226  86.6261826  31.9356232  79.8362274
  59.9197426  17.3704758  15.7319021  60.7560425  17.8021679  15.9064884
  60.1424561  16.4437675  15.6433420  13.5913954  38.0153770  19.7477646
  13.4145889  38.8353271  20.2089062  14.4939365  38.1028214  19.4411621
  50.6452408  23.6728420  74.8389359  50.2605171  22.7970600  74.8039474
  51.2693863  23.6894245  74.1134033  78.3142929  50.2454758  77.8537292
  77.4651642  50.5501518  78.1737137  78.8139801  51.0472641  77.6998367
  44.3167763  57.2605286  63.6346397  45.1135635  57.7901993  63.6631584
  44.6295700  56.3560944  63.6543617  19.8120899  35.2292442  58.3325195
  20.4012890  34.8513107  58.9853935  19.3813667  35.9522285  58.7885933
  18.4777718  39.6100388  20.0409870  18.6704712  40.1226654  20.8260441
  18.1368637  38.7801285  20.3745480  79.7155609  58.3540955  57.8362312
  79.3091812  58.1118469  57.0041237  79.3256149  59.2002296  58.0558548
  71.0431213  51.6729393   8.3443708  71.4309692  51.9153824   9.1852217
  71.7669525  51.7319984   7.7208214   9.3277378  39.8793564  55.8486023
   9.4890423  39.0807457  55.3461761  10.1642447  40.0677338  56.2740440
  25.2819786  44.7802544  32.0827026  24.3291779  44.8005524  32.1720963
  25.5561180  44.0301247  32.6103249  71.7718124  62.8273277  46.7400894
  70.8816528  63.0678482  46.9969978  71.6692123  62.4058113  45.8868408
  61.7729759  19.9633369   2.1342595  62.4706650  20.2599716   2.7186141
  61.9370918  20.4246826   1.3117889  54.4882622  61.3522568  68.9330368
  53.5546303  61.3784943  69.1425018  54.6852341  62.2302170  68.6064987
  67.4484863  69.3326035  65.1717834  67.1432343  68.5440979  65.6204529
  68.3815460  69.3805847  65.3799286   3.7967877  60.6139717   6.2594657
   3.0012968  60.1690369   6.5518017   4.3984351  59.9047699   6.0330038
  81.5726013  37.3949127  48.3919334  80.9196472  37.5424004  49.0761375
  82.4120483  37.4289818  48.8506241  58.5805359  28.5350246  49.4596062
  58.7136116  29.4829273  49.4609146  58.6431694  28.2830982  50.3809319
  85.4385071   8.0494833  28.0930691  85.5133514   8.6341610  27.3388939
  85.9583740   8.4724026  28.7765236  75.1227341   8.0465965  80.3130722
  75.0597992   7.6227317  81.1689987  75.3655624   8.9510813  80.5109863
  63.5070381  26.0021667  40.6201591  63.3504868  26.6800175  39.9627075
  63.6970978  26.4868870  41.4233742  49.3977280  21.7047462  13.1037703
  49.8907394  21.4803028  12.3145962  50.0685539  21.8723640  13.7656832
  51.6621590  50.4194374  35.9503326  52.2032661  50.9456444  36.5390129
  52.2822495  49.8371506  35.5113983  48.1192245   9.4188118   8.3820324
  47.5850372   8.6337996   8.2610731  48.2764740   9.7406301   7.4943738
  23.3491421   6.6697683  73.0566635  23.4337502   5.7737918  72.7306290
  23.0796261   7.1784725  72.2919312  82.7319260   6.4399686   0.7474511
  83.4810715   6.8853092   0.3516203  82.3612442   7.0845180   1.3502672
  16.6508942  12.2112818  33.0010033  17.2900085  11.7251883  33.5220375
  15.8754139  12.2622929  33.5598106  83.5225372  28.6289463   4.9933739
  82.7783051  28.5880604   5.5939336  84.2902908  28.5292454   5.5562677
  80.9287643   8.0043983  10.9839172  80.5044556   7.7160058  11.7920160
  81.3116226   8.8535643  11.2042913  16.9454384  32.1337929  81.1702194
  17.5909691  31.4271164  81.1815567  16.1757298  31.7620144  81.6009903
  50.2727737   9.8640594  26.2239647  49.7146759  10.0873194  26.9688873
  51.0209618  10.4563265  26.2992382  48.6294098  50.2330589  82.7590332
  48.7609367  51.1407089  83.0330887  48.1286697  50.2985535  81.9458923
  84.1629715  52.9593468  58.9714890  84.8156509  53.6064720  58.7041550
  83.8240585  53.2904739  59.8031883  53.7838020  48.9563141  17.8788147
  54.0681953  48.0840302  18.1517086  54.5455971  49.5153465  18.0317192
  19.4524307  44.2685280  12.1619930  20.2511501  44.2399025  12.6887398
  19.1945705  43.3515244  12.0679235  22.6900539  66.9989853  52.7997208
  23.2154675  66.9275589  53.5966339  22.1665058  67.7899628  52.9281120
  63.6253891  50.1224785  71.2178345  64.5128632  49.8041039  71.3829498
  63.1261597  49.8503227  71.9878540  10.0526886  67.7397156  57.7698517
  10.7428408  68.1940842  57.2866592   9.3052311  68.3368225  57.7382050
  59.2060013  54.1976013  18.4733791  59.2473831  54.2396660  19.4287586
  59.4564972  53.2982292  18.2621613  80.1230392  46.9421654  36.4293785
  79.7898026  47.4159203  35.6673126  79.5603867  46.1707191  36.4966660
  18.8401127  44.1354370  77.9478378  18.3387756  44.9471779  77.8705826
  19.5930901  44.3696861  78.4904099  54.8389740  43.5159950  22.5106831
  55.6673088  43.4481773  22.9855461  54.8313065  44.4100838  22.1689568
   7.4903393  21.9295158  10.1638451   7.0308714  22.7485409   9.9785957
   6.9503341  21.2539024   9.7537565  23.4764881  46.1344604  14.7998724
  24.3856163  45.9577217  14.5580444  23.3080692  47.0170021  14.4697447
  77.1941757  25.9499130  57.2346611  77.5488434  26.0587044  58.1170464
  77.7400284  25.2702732  56.8392296  36.1449471  62.7932510   2.4054110
  36.3723183  62.1448708   3.0718479  35.2617188  62.5510330   2.1270816
  63.9247055  39.6214104  39.9528465  63.0741692  39.9639473  39.6781044
  63.7124786  38.9054222  40.5516396  29.3976421  51.0309868  18.1055412
  30.3192253  51.1968117  18.3040791  28.9180622  51.4811554  18.8009434
  20.8791599  36.7563934  69.1475983  20.5812035  36.8668442  68.2446823
  21.4500484  37.5083961  69.3051147  64.0770493  27.8167610  11.2447672
  64.4475784  27.4346581  12.0403414  64.6178665  27.4669266  10.5366974
  49.4768791  34.0634499  83.4763336  49.3384781  33.3611069  84.1117783
  48.6892395  34.6035271  83.5409317  37.5907669  32.6259613  84.3047714
  38.0848198  33.4437485  84.3628235  37.8437080  32.1372108  85.0879517
   3.4394276  23.9087753  26.2563896   3.1641290  24.5544243  26.9072208
   3.5971799  23.1113949  26.7618885  39.5862579  54.6439552   1.5845891
  38.7821579  54.1268311   1.5372809  39.3924942  55.3301659   2.2231808
  82.8836899  26.4542770  42.8016586  82.7870407  27.3871384  42.6101952
  82.0713272  26.2160320  43.2483521  61.9392738  36.8598938  54.7926216
  61.8521690  36.4481163  55.6523209  61.3322906  37.5995674  54.8187370
  81.6296768  17.9066525  44.3423195  82.1098785  17.8665066  45.1693840
  82.1544418  17.3849602  43.7351189  41.0558014  70.0049896  65.1606979
  41.9193840  69.9505844  64.7514267  41.0041924  70.9012375  65.4928284
  72.6666336  13.6149950  54.0693741  72.9210129  13.7503452  54.9821701
  73.4428864  13.2346563  53.6582756  73.9350433  14.2707834  56.6676216
  74.4840927  15.0407219  56.5193977  73.2231293  14.5877028  57.2234688
  10.4922380  51.2208862  45.4146080  10.3044214  50.5226440  44.7873802
  10.9054070  50.7742844  46.1535721  77.2623901  37.2428207  73.6337433
  77.7136612  38.0397377  73.9121475  76.3998489  37.5435066  73.3476715
  73.3676453  23.8718014  50.9994774  72.7679901  24.4951477  50.5894890
  74.1149750  23.8304825  50.4028015  38.0489616  54.8188019  46.5010223
  38.4809303  54.5034180  47.2948570  37.2536621  55.2485580  46.8157272
   9.6742077   2.5926321  75.0907593   9.8386621   1.7660698  75.5446091
   8.9642048   3.0008059  75.5862656  60.9609261  48.6087112  45.1740189
  61.3393326  47.8146515  45.5515327  60.7283058  48.3611259  44.2791328
  65.6779709  55.4271622   0.3469808  66.4861526  55.8035469  -0.0014613
  65.9705658  54.7076721   0.9064043  63.7595215  45.2018738  69.9606018
  63.1038513  44.5052071  69.9920273  63.2486038  46.0091286  69.9011612
  52.0478859  53.5278969  45.5944328  52.6887360  52.8635521  45.8477821
  51.3967705  53.5124016  46.2958908  58.1431770  40.7296600   3.0423889
  57.3606606  41.2740211   2.9553456  58.5742836  41.0546074   3.8328247
  68.2355804  52.5091362  32.6031418  68.1470032  51.6826057  33.0777359
  68.7624893  53.0615921  33.1805420  10.5703135  50.6973114  35.8227539
  10.8073635  50.0546532  35.1541557   9.6447506  50.5288887  35.9993858
  86.1074448  14.2487688  15.2108946  86.8667068  14.5175524  14.6936827
  86.4309769  13.5320024  15.7566109  52.2849045  13.8168058  30.5555820
  51.7527428  13.7624617  29.7618046  51.7440262  13.4135904  31.2346249
  23.9580994  53.7466507  75.2307968  23.4914017  53.7034950  76.0653992
  24.8583717  53.5037231  75.4469604  20.0984230  70.7991028  71.7686768
  19.2652874  70.9969406  71.3409195  19.8508511  70.3828888  72.5943298
  80.1640778  36.7857704  21.8109093  80.7178955  36.5617828  22.5588036
  79.3077240  36.9740524  22.1948910  55.9843407   4.8088632  41.3401413
  55.7418976   5.2453408  42.1568031  56.6226082   4.1458287  41.6032639
  48.1349068  19.7849979  28.3643723  48.5152931  19.2628536  29.0707035
  48.8474426  19.8903599  27.7339554  47.5501366  63.0552826   4.0252175
  47.9041481  62.9091225   3.1479800  48.1892128  62.6507339   4.6118646
  67.1925354  59.9450836  25.4418983  67.9144745  60.5583878  25.5793571
  67.6192169  59.0981789  25.3117809  44.2857132  37.8415337  44.0748978
  45.0027657  37.7410774  44.7009773  44.3871651  37.1033287  43.4740715
  64.0970459  28.2908058  57.7878265  64.9278336  27.8608665  57.5848846
  63.6544914  28.3678551  56.9425850  54.9676056   9.9403343  76.1808014
  55.1604195   9.6770821  77.0806656  55.4429970  10.7630033  76.0648346
  51.4918861  21.8383160  29.8952217  51.5025673  22.7316093  29.5515003
  50.6650162  21.7755146  30.3733139  75.7594910  16.7723885   2.8032537
  75.2430344  15.9849167   2.6318150  75.9214478  17.1459084   1.9369479
  31.3709431  64.0564651  32.5745964  31.5310249  63.5570221  33.3753242
  31.0516796  63.4076538  31.9474220  33.0413361   5.3839231  77.2804871
  32.4214745   4.6613379  77.3798676  33.8376617   4.9719772  76.9452362
  77.9908142  23.1438961  68.7721863  78.5425949  23.1293335  67.9901657
  77.3962021  23.8808098  68.6320801   2.2153594  22.8145866   9.4889565
   1.2994140  22.9549675   9.2490215   2.6116056  23.6845894   9.4408340
  12.8346472   3.3996184  13.2111063  13.0531454   3.8574724  12.3994045
  13.5696487   3.5845866  13.7957363  40.3879623  34.9545364   6.8699870
  40.0744553  34.1124802   6.5400090  40.3645935  35.5339355   6.1084213
  71.3497162  16.4808044  79.7822723  71.8125992  16.2152519  78.9876251
  70.6462250  15.8384609  79.8756485  72.6937485  17.3162880  59.6870346
  72.3571472  17.9729996  60.2966766  73.2541962  17.8101044  59.0884705
  66.4774780  65.4569016  71.7301331  65.9173203  66.2274933  71.6371841
  65.9355545  64.8219604  72.1985474  25.4576683  71.1226807  71.8371735
  25.3891850  71.3195267  72.7714081  25.1176910  71.9045792  71.4020996
  57.9257660  40.8398323  17.8493080  58.3422318  41.7015686  17.8634777
  57.1815491  40.9432106  17.2562752   5.1600161  45.8236198  57.5442963
   5.1858168  45.1306152  56.8845139   5.9644637  46.3218613  57.3999062
  73.3214493   2.0744338  62.5819702  72.6905060   1.7333702  63.2158585
  72.8250961   2.1502268  61.7670326  21.0109711  25.3665600  61.3655739
  21.6626835  24.7492504  61.0332603  20.2021675  25.1278591  60.9127045
  80.5671997  59.5174713   8.7336779  80.7693100  60.2695808   8.1771545
  79.6352615  59.6096230   8.9317236   1.2868090  55.7254448  30.7808075
   0.4870137  55.7278252  31.3066902   1.7120299  56.5576591  30.9877853
  51.0435181   4.0899038  89.0258865  51.1476784   3.1873353  89.3271332
  51.8393021   4.2685075  88.5248184   5.0121980  54.8498688  28.7247448
   4.6186328  55.2924805  29.4766979   4.9762678  55.4968567  28.0202255
  81.4773941  17.6514492   9.0191240  82.1676712  18.2002640   9.3913546
  81.2904587  18.0464439   8.1674976  59.5870552  60.4206085  52.5227051
  60.4401054  60.7499466  52.8056831  59.4538727  60.8114548  51.6591454
  34.7788773  44.9929924  86.1893234  34.6666374  45.9191322  85.9750748
  35.4084435  44.9885445  86.9103394   0.9890884  11.4888954   4.2561140
   1.4776039  11.8737640   3.5284739   1.1984044  12.0455532   5.0061483
  77.4375916  63.0594673  53.4002419  77.0445023  62.7102890  54.2001114
  78.1524048  62.4548531  53.2009697  76.3452606   4.2985821  28.2165298
  75.5138321   4.7344170  28.0293980  76.4275970   4.3387384  29.1693363
  19.7603874  68.4429092   4.0099607  20.0344238  68.0544586   3.1791503
  20.5783539  68.6047821   4.4800224   3.9418793  54.5240669  14.2759123
   4.7917080  54.3915443  13.8558407   3.8688207  55.4733810  14.3743877
  40.3178329  62.6208687   1.7184467  40.2072372  61.9779587   1.0179690
  39.6140823  63.2538376   1.5759028  12.7489576  25.5741024   5.5395222
  12.4706488  25.1575794   6.3551722  11.9930811  26.0937195   5.2658801
  45.1230164  44.6875648  24.3646221  44.5496559  44.0714760  23.9086323
  44.5389099  45.3877258  24.6558685  60.1389618  18.8227234  63.0036125
  59.8601952  17.9541607  63.2936478  60.4972534  18.6791897  62.1276817
  17.4399624  12.8583412  18.1032715  17.0214214  11.9976892  18.1215782
  18.3592453  12.6819239  18.3033352  29.5291557   9.9334307  78.2338562
  30.3957386   9.8533640  77.8352890  29.5962467   9.4434214  79.0533829
   0.7863188  49.8978081  67.8901520   1.1427451  50.7413635  68.1687393
   0.2447823  50.1062546  67.1288910  49.0827293  47.7103806  72.4908066
  48.5921555  47.2127724  73.1449890  48.4138489  48.0457039  71.8938293
  69.7571106  43.2122383  87.1533585  69.0291214  42.9553375  87.7192841
  69.3420410  43.4624863  86.3279343  13.8498163  68.7355576  57.5672417
  14.3317652  68.0008011  57.9468231  13.9339314  69.4366226  58.2135201
   3.4540470  60.3343582  46.0298729   3.4981072  60.2560730  45.0768967
   3.7718954  61.2185822  46.2125015  30.1071644  14.7703238  21.2325497
  30.2636395  15.0417261  22.1370316  29.4825516  14.0485048  21.3037262
  32.6583672   2.3969157  87.4556580  32.6477814   3.1223438  88.0800552
  33.1181641   2.7451179  86.6917419  44.1129303  58.3170776  28.9370804
  43.5559349  58.0508003  28.2055874  44.9882698  58.0158463  28.6936245
  72.3145447  45.9150162   3.6930809  72.7525864  45.1384926   3.3447075
  71.7284241  46.1950340   2.9900281  69.3856277   4.3706083  54.7561035
  69.3983841   3.9304035  55.6059761  70.0028839   5.0957956  54.8526993
  51.9931526  25.7545338   8.3243456  51.6874275  25.7644272   7.4173369
  51.7659454  26.6204586   8.6631422   1.6758444  42.3783989  24.8998222
   1.8411413  42.9029236  24.1163788   0.8076806  42.0014420  24.7569065
  69.2089539  50.4046936  67.7227478  68.4726944  50.9094772  67.3772736
  69.8910217  50.4893951  67.0565414  49.5759544  66.6206970  15.5155125
  49.9589195  65.7960358  15.8146858  49.8196182  67.2560654  16.1886826
  77.7492981  70.7047424  44.3664055  78.1536789  69.9706802  43.9039459
  77.5535507  71.3419800  43.6795006  52.4214859  50.3083687  64.0914307
  51.5521164  50.6434822  63.8720665  52.9973755  50.6813240  63.4239845
  68.4345856  25.9543152  32.4798851  69.3722153  26.0571690  32.3171043
  68.2326355  26.6149349  33.1424789  68.3866348  56.5861626  61.0357132
  68.1712189  57.1395950  61.7864113  69.2955704  56.3250465  61.1836395
  46.6919060  54.0268021  33.4482422  46.9979782  54.3231010  34.3054237
  46.3262062  54.8115997  33.0400848  41.6766205  70.2145538  30.5350704
  42.5569496  70.4788361  30.8022919  41.7690887  69.9701309  29.6142330
  54.1331673  28.5580235  71.4811935  54.1484528  29.4615173  71.1654434
  53.2878456  28.2166214  71.1894608  52.6035233  25.0439281  69.7281265
  53.0051193  24.3595982  70.2635193  53.1043625  25.8334084  69.9333420
  37.1265182  53.1640892  87.1443863  36.8878937  53.7659111  87.8494415
  37.6505203  53.6943245  86.5439682  33.8033791  47.1412621  69.2882538
  34.7253876  46.8845291  69.2733994  33.7517166  47.8835564  68.6861267
  37.4250641  46.7437630  17.0030537  36.5609436  46.3383865  16.9309502
  37.4630470  47.3586540  16.2704563   7.4955463   5.5289965  56.6001778
   6.6512370   5.1060662  56.4436417   7.2741618   6.3511620  57.0375175
  67.4213943  56.3382988  20.6712112  67.9161682  57.0506706  20.2663021
  66.5286179  56.6763535  20.7412415  44.1822929  23.5156689   6.7329173
  44.5090332  22.7964916   6.1923075  44.9452629  24.0767937   6.8716574
  10.5448227  65.6626968   0.2314409  10.4304399  64.7299881   0.0492578
  10.7689552  65.6993866   1.1613067  47.0232811  32.5864601  67.6492920
  47.7485046  32.5697937  67.0247879  47.4252853  32.8528709  68.4761200
   2.2769153  58.7055054  33.4091415   1.3612853  58.9239922  33.5826874
   2.5654571  58.2412643  34.1949234  42.1990433  54.1037216   1.7596602
  42.2198639  54.2090492   2.7108195  41.2987480  54.3174438   1.5146661
  44.0482101  35.3206825  33.8797150  44.2703094  35.5731087  34.7759209
  43.7400818  34.4175339  33.9546432  38.0122566  46.6204147  31.5940189
  37.2494507  46.9178505  31.0981445  37.6641808  46.3953934  32.4568291
  23.8232956  63.9508743  45.9548073  23.2688694  64.3330612  45.2745285
  24.0432034  64.6867905  46.5260353  58.5468330  36.1599731  80.7479706
  59.0471687  36.7438240  80.1778717  58.4587288  35.3508682  80.2441635
  77.7625809  10.6462469  15.6925211  77.4316788   9.7991858  15.3938179
  78.4905319  10.8407049  15.1021814  65.7067947  28.1060848  30.9995537
  65.0158615  27.6185951  31.4481144  66.0981598  27.4703941  30.4004250
  75.5756454  10.5306129  21.1193256  75.2917252   9.6275740  21.2612343
  75.4409103  10.6797867  20.1834717  38.7950325  60.5769730  68.2646179
  38.5831108  60.1798973  69.1093979  38.5804062  61.5032730  68.3747864
  22.3459053  36.0711708  85.6667786  22.1835079  35.6104126  86.4899216
  21.5143032  36.4996071  85.4640121  13.3529034   0.5230054  76.1236191
  12.9907827   1.1274559  75.4757462  14.2338428   0.8556513  76.2954407
   0.8579904  -0.2237554  84.7719269   0.6087145   0.4727689  85.3793335
   1.1798337   0.2376391  83.9974823  70.2502899  37.0848427  24.5024109
  70.3752670  37.9588127  24.8722610  70.9772949  36.5702248  24.8529339
   1.7936586  24.7651329  77.0623550   2.6995502  24.4800739  76.9426270
   1.5197955  25.0633659  76.1950073  22.0676212  29.7858696  26.6246662
  21.2627316  29.4351311  26.2433929  22.6525955  29.0306854  26.6857624
  10.2709007   2.1725769  70.5648422   9.4524717   1.9089547  70.1442337
  10.3865337   1.5449787  71.2782669  25.4012318  63.4468689  73.9508438
  25.9610252  62.7539406  73.6005325  24.9425411  63.0365372  74.6839600
  40.2933044  61.5129776  38.0627098  39.3998184  61.2073097  37.9062309
  40.7181053  60.7872314  38.5199471  35.1757889  69.3708267  15.6986771
  34.8672142  69.9633179  15.0131369  35.0025597  69.8387909  16.5155201
  51.6346207  21.5038471  20.4227810  51.9245186  22.3050671  20.8589458
  51.1310349  21.0369263  21.0895786  78.0543594  56.8683395  81.8445511
  78.2536316  56.7729568  80.9131927  78.6855240  57.5153809  82.1594925
  11.8463249   0.8643917  12.2205048  12.0727377   1.0150543  11.3027515
  11.8080101   1.7402890  12.6046505  63.1516609  47.4787865  63.8776550
  63.4707336  46.6476593  63.5260201  63.9455528  47.9735146  64.0806656
  41.8108063  57.3848419  61.8800735  42.6108627  57.6020012  62.3585930
  42.0892868  56.7433777  61.2264633  65.4496536  49.5214729  25.9241676
  66.0609741  48.8544655  26.2366047  65.8882446  49.9134483  25.1690369
  34.3487930  66.3142853  86.7725296  33.6142731  66.9177551  86.8844757
  34.2743568  66.0116730  85.8674774  71.5371094  45.6724854  34.1061020
  71.9861450  46.1736412  34.7868690  71.3195724  46.3203468  33.4358902
  80.2496872  29.1745358  26.3753986  80.7801590  28.4807491  26.7671719
  79.3545685  28.8366089  26.4038029  69.2028580   6.3558311  86.0672455
  69.0541611   5.4579091  85.7708282  68.5338364   6.5011044  86.7362289
  84.9577484  41.3052750  18.4916401  85.8322830  41.4146461  18.8650837
  84.6294479  40.4960480  18.8835564  56.6635971  15.9968281  56.6901245
  56.6711426  16.7748356  57.2476921  57.3603096  15.4429693  57.0423546
  22.0015831  29.8633804  23.3077888  21.7446556  30.7854347  23.3137283
  21.2797775  29.4164581  22.8656483  60.8922882  34.6788521  53.2532806
  61.1523666  35.5847816  53.4202538  60.4432602  34.4071541  54.0537720
   4.5401535  18.9457607  31.5884438   5.2766051  19.1458569  31.0106621
   4.8783975  19.1013794  32.4702644  16.4828186  48.1668358  17.8107986
  16.0664616  47.3064232  17.7601128  15.7583742  48.7881660  17.7375793
  58.6020660  25.1244564  32.8284378  58.7740517  25.0189686  33.7641335
  59.3431702  25.6366615  32.5049477  64.8264771  11.8206949   3.5381634
  65.4942017  11.8284988   4.2239518  64.1614380  12.4373016   3.8443656
  18.8447762  34.2848282  18.7720985  18.5755138  34.3513908  19.6882305
  19.7849236  34.4642220  18.7851372  21.9824142   1.6463498  33.8962021
  22.9225979   1.5646008  34.0562172  21.6455498   0.7550356  33.9873810
  42.8161736  45.5156555  68.7001343  43.7143669  45.5880089  69.0230026
  42.8437004  44.7904434  68.0760040  12.5946636  59.7442322  20.8444023
  12.1472073  58.9112129  20.6957626  13.5246305  59.5358467  20.7551365
  81.1191559  50.3811150  47.5274658  81.1646957  51.1694450  48.0684776
  80.2208328  50.0685158  47.6348381  69.8810730  19.4933262  28.5137329
  70.0131073  20.0800076  27.7690163  70.5501938  18.8171349  28.4075165
  43.8777885  47.3472900  58.1684837  44.3526955  46.7282410  57.6139793
  44.5113754  48.0415878  58.3494568  65.1770020  70.6207428  11.1242771
  64.7140274  71.1704178  11.7565308  64.4908371  70.2969971  10.5406723
  32.7878075  21.4508743  13.4784136  33.2242546  21.2691040  12.6461248
  33.4605103  21.2936573  14.1409712  69.7729950  54.5325394  52.3928604
  69.8197250  53.6295967  52.0786324  70.6279602  54.6914787  52.7928810
  84.1157761  20.5320320  29.4166412  83.2746735  20.1723366  29.6984138
  84.7009125  19.7752304  29.3835773  80.4368134  29.0526199   9.9762888
  79.8959122  28.6321793  10.6447840  81.3315887  28.7898140  10.1920404
  56.7029839  38.2583008   7.5107193  56.6897850  38.7291565   8.3439980
  56.3346558  38.8770828   6.8801036  82.3929291  13.1931572  47.8539772
  81.4552460  13.3344002  47.9844704  82.5654602  13.5282707  46.9741096
  35.7704544  32.6260948  75.2335968  35.5321083  32.5353813  74.3109970
  35.4860115  31.8056107  75.6362457  50.5565109  24.5653763  17.9554405
  50.2681694  24.6435509  18.8648243  49.7451096  24.5391312  17.4483185
   6.2936559  48.5923500  60.3634338   5.7514086  48.8280220  59.6106644
   5.6986585  48.1260414  60.9505997   2.3827653   9.4208899  63.1127396
   2.2753208   9.6455088  64.0369873   3.1921971   9.8602839  62.8520012
  27.8969612  69.0204086  27.9256420  28.5937767  69.0005341  28.5816021
  27.1098499  68.7606430  28.4044018  43.6502190  28.1472588  27.3889484
  42.9730377  28.4588566  26.7884808  44.4114990  28.6945610  27.1962166
  43.8889580  26.8421745  72.8282394  43.1813011  27.4111481  72.5253830
  44.2867584  26.5064163  72.0249634  33.9034958  42.7031479  11.9146614
  34.0206108  42.7625084  10.9665098  34.7935295  42.6523209  12.2632141
  68.2770767  10.0779743  71.2040558  68.0965958   9.1481972  71.3425140
  67.4499664  10.5152311  71.4063416  24.1986179  64.8845367  48.9029236
  24.5077820  64.5603638  49.7488327  24.8468075  65.5404816  48.6463737
   3.6095293  56.9038391  83.2323685   2.7619464  56.4822311  83.0906601
   4.0212359  56.3871346  83.9250031  50.2688370  44.5602837  36.7317238
  50.7004967  43.9622803  36.1215630  50.8170929  44.5391197  37.5160675
  81.7751160  13.5890694  88.5934448  81.8578796  12.9568672  87.8795090
  81.8571320  13.0636559  89.3893433  12.9484987  28.2214317  78.9168701
  13.7041769  28.2253876  78.3293686  12.5717134  29.0968914  78.8283615
  63.1953735  34.5503387  62.9170418  63.7440567  34.6134949  62.1352539
  62.3193779  34.3620300  62.5802803  32.3993835  53.1713066  45.3501129
  32.0756187  53.5779114  44.5463219  32.5634842  52.2598457  45.1081696
  69.5360794  70.1456375  42.8129005  69.8662262  69.3397598  43.2101440
  70.1408844  70.3227539  42.0924339  30.8214016  60.3523712  15.5979881
  30.3898563  59.9058609  14.8695450  30.2033424  61.0343933  15.8608122
  23.2718105  61.0994911  14.5392265  22.7385902  60.6492767  13.8840818
  24.1171436  60.6514587  14.5090380  54.1894455  24.9209042  67.0273590
  53.4968109  25.3921337  67.4904251  54.9412308  25.5127811  67.0544510
  43.2228012  54.7547989  77.1211166  42.4944191  54.8392181  77.7363892
  43.6999664  55.5808258  77.2000504  46.8892784  66.8471527  15.2228537
  46.8998718  66.4796219  14.3390903  47.8131294  66.9605408  15.4461870
  74.2607346  28.7210846  31.5470352  75.0609589  29.2461853  31.5350914
  73.6217880  29.2685719  32.0033684  77.9034424   0.1789866  41.5312500
  77.8411179   1.1051464  41.2976341  77.0453796  -0.1823529  41.3089981
  83.4333725  63.9422989  27.1425552  83.9915009  64.3794861  27.7856674
  82.7024002  63.5970726  27.6551304  45.7198563  60.0612984  38.8831139
  46.0891609  59.1793480  38.8382530  45.0611839  60.0102043  39.5757713
  72.0887909  33.6042213   0.7917027  72.3559189  33.2497520  -0.0563707
  72.0247498  32.8381691   1.3620490  17.7814541   2.4240603  55.5731087
  18.5860367   2.9145396  55.7413635  17.5292835   2.6751270  54.6845093
  59.5433388  17.5345364  58.2188721  59.0359268  16.7284660  58.1239281
  60.3885727  17.2463017  58.5634460  43.0153084  14.2773476  81.5602341
  43.1072960  14.8902388  80.8307648  43.0921555  14.8231697  82.3427963
  10.3240566  12.4264164  60.3172188  11.2355385  12.1815443  60.4768105
   9.9392862  12.4996643  61.1906128  30.2748947   1.2469972  83.0118866
  29.9816265   2.1573906  83.0494385  29.6778316   0.8284125  82.3917770
  23.9372654  53.7420158   7.7444181  24.1402645  52.8252296   7.5586109
  23.8027325  54.1369019   6.8829083   7.4125404  49.0762978   8.5949364
   6.6561046  48.7918358   9.1078863   7.5865474  49.9672012   8.8986568
  78.5829849   2.7318494  43.3957214  77.9565277   3.2186379  42.8601646
  79.2483368   2.4344258  42.7751770  61.1732483  66.7458801  80.5427017
  60.9895668  67.6047974  80.1622391  61.9598160  66.8812256  81.0711136
  86.0781860  69.4512863   4.2282276  85.6550751  69.2161636   3.4024374
  86.9832916  69.1571121   4.1258659  46.2377434  65.4823914  36.5516243
  46.5000725  64.7302551  37.0823784  46.0542297  66.1727829  37.1887398
   8.6590376  53.6375237  39.0689316   9.5354576  54.0200043  39.1116753
   8.8106899  52.6925735  39.0514793  19.6320152  55.5459442  45.7184563
  18.7923298  55.1921997  46.0117569  19.8956680  54.9719086  44.9992867
   1.7063886  68.0516815   0.7481567   2.2182169  67.3288498   0.3851417
   1.6043282  68.6629486   0.0186580  61.9208260  16.9375191   9.7463102
  62.7422791  17.2467060   9.3644037  61.7760010  17.5106850  10.4991302
   8.6825266  65.5252686  12.4927349   8.5964823  66.4716873  12.3782015
   7.8650694  65.2596893  12.9139986  66.2134323  33.9118767   0.3973594
  66.1118927  34.5032234  -0.3484487  66.1371918  34.4789200   1.1647446
  84.9738159  47.5414925  27.2598934  85.7313766  47.1077843  26.8671665
  84.4855194  46.8347778  27.6822071  64.0300140  32.4705544  53.9770432
  64.5869217  32.1068306  53.2887192  64.2382050  31.9506321  54.7532959
  17.8883457   5.0107131  65.1122055  17.4008484   4.2222295  64.8737259
  17.5172768   5.6981831  64.5590973   6.3403511   1.6367254  78.2655182
   6.5276012   0.7021107  78.1779709   7.1927862   2.0366905  78.4376068
  65.9905472  50.4316559  39.8313141  66.2472458  51.2508469  40.2547073
  66.7803268  49.8914223  39.8562393  74.6498032  15.8247366   8.9470167
  74.2550354  15.9677925   9.8072062  73.9368134  15.4774513   8.4110384
   3.7959120  31.3177490  86.6954956   4.2441936  31.0212822  87.4875717
   2.9946773  30.7950115  86.6638641  74.2365570  43.1631432  40.8199577
  73.3919449  43.5858421  40.9754753  74.3861694  42.6319618  41.6020660
  81.0792847  26.3037605  12.0335560  80.3065338  25.9439278  11.5981207
  81.4237366  26.9487114  11.4158010  36.7387733  51.0372200   6.9108715
  36.0593796  50.7315788   7.5119019  37.5601387  50.7608871   7.3173614
  26.1977768  60.3744698  51.3742027  26.2552586  61.2845764  51.6651154
  25.3572006  60.0671539  51.7136459  41.2006416  20.8269119  22.8794670
  40.7371140  21.3674793  23.5191250  42.0162621  21.2993736  22.7128220
  11.5620842  51.1917763  70.1430969  12.4670954  50.8961334  70.2420044
  11.0843620  50.4110909  69.8628387  19.8167191  52.3169823  52.5937195
  19.9282913  52.6455917  53.4857941  19.3123837  52.9981537  52.1488800
  76.8590088  34.6025658   1.0834912  76.1598969  35.2290154   0.8963338
  77.4967804  35.1009903   1.5944285  79.2131348   6.7324057   9.1609993
  79.6568222   6.4373822   8.3658037  79.9208603   7.0220981   9.7367077
  41.0164261  37.3270531  65.0543900  41.3932114  36.5686722  65.5006256
  40.1410484  37.4161758  65.4312286   2.9660382  42.7393570  66.3172379
   2.7063437  41.8365784  66.1334457   3.5241685  42.9830894  65.5787811
  69.6601181  46.6487083  20.1185493  69.3438644  47.3550453  20.6818428
  70.5925446  46.8325653  20.0045071  83.6157455   0.1624581  49.4274597
  83.2101898  -0.5780075  48.9763832  83.2752762   0.9341916  48.9749718
  84.4617081  17.3953819  24.9929905  85.1652222  17.7460594  24.4467907
  83.6987610  17.9300671  24.7733288  62.1448059  61.0375710   2.6252732
  61.6147308  61.2760048   3.3857996  62.5089836  60.1804123   2.8463814
  85.7581635  54.0716591  81.8914032  85.7863998  54.7335243  81.2004852
  85.9469604  54.5561447  82.6950531  31.3817844  40.3699036  71.1849518
  30.4303036  40.4278908  71.0980453  31.6670723  39.9122276  70.3941422
  43.4545860  34.4270210  82.8819504  43.3033295  33.4896049  83.0028076
  44.3730278  34.4895782  82.6196747  18.1365547  68.9599380  14.8888617
  17.8686028  69.6996307  15.4341021  18.3140659  69.3464050  14.0313263
  17.2553959  29.4059620  16.6051617  17.0271091  29.9900932  17.3282871
  16.4143505  29.1672764  16.2154140   1.8492388  19.3097115  74.3136597
   1.8945216  18.5378952  73.7493210   1.3201225  19.0296078  75.0605316
  33.7800179   1.5425664  43.3773384  33.2338486   1.8144635  42.6397743
  33.2984314   0.8188362  43.7779922  51.7749557  34.5819092  11.2136059
  51.8807449  33.8175545  10.6472101  52.6419487  34.9870796  11.2335310
  67.5080566  17.9882641  36.2923965  66.6854630  18.0099850  36.7813683
  68.0663834  17.3903160  36.7893562  69.3156586  21.1273270  67.0738907
  69.3817062  21.8545952  67.6927261  69.1806564  20.3559666  67.6243515
  62.1782608  56.6112137  84.9032974  61.4410896  56.3143082  84.3697662
  61.7867393  57.2059784  85.5429840  38.0360413  15.1489239  17.2502670
  38.1447258  14.5873079  16.4827995  37.6707420  14.5709915  17.9201794
  57.6628189  22.1162853  69.0664825  57.9559250  21.7225685  69.8882523
  58.2648315  21.7708969  68.4072952  77.8572006   7.6965575  62.3426628
  77.0250397   7.8753996  61.9047546  78.4360275   7.3942699  61.6427956
  28.7799454   8.5419655  11.6375313  28.4212036   9.3667908  11.9649448
  29.1193428   8.7565422  10.7686243  32.5640717  45.5693970  71.3861618
  33.2360001  45.6832886  72.0582962  32.6875992  46.3125534  70.7956543
  38.9148140  43.4290924  81.2416763  38.0758247  42.9683037  81.2437057
  38.6984253  44.3218002  81.5109024   0.6572808  17.6843834  55.1363869
   1.1833218  16.9446659  54.8325233   1.2869983  18.2686844  55.5586166
  41.7536545  27.7597694   2.9502950  41.1132698  27.3286953   3.5162613
  42.1156921  28.4624748   3.4900775  80.2490005  45.4115982  66.4350204
  81.1337280  45.7217255  66.2418518  79.7828751  45.4832916  65.6020660
   8.2653561  44.0713844  15.1747122   8.9812641  44.6990700  15.0761490
   8.4153004  43.4265594  14.4833727   9.6109762  57.1823235  84.0083389
  10.5220270  56.8995399  83.9292755   9.1000853  56.4320297  83.7045593
  63.7555428  26.1479721  65.2841110  62.8326683  26.3868465  65.3705444
  63.8922081  26.0574608  64.3410492  68.8024521  65.3781128  34.7359962
  68.7783966  65.6308823  33.8130875  69.3110275  66.0690994  35.1604042
  12.6317854  14.0420980  30.3068790  12.3137484  13.9027910  29.4148712
  13.5450697  13.7564964  30.2828751   8.1387415  45.9122314   4.4312534
   7.3619523  46.2701759   4.8610287   8.3539181  46.5527496   3.7532640
  57.4211273  31.9318066  31.6298256  57.5967293  31.0104599  31.8209248
  57.0140800  32.2686119  32.4280128  27.8559151  64.5472031   5.3050327
  27.0107746  64.5959091   4.8582687  28.0792370  65.4583740   5.4950786
  61.6566315  11.5843096  37.9922485  61.2610893  10.8686018  37.4947128
  60.9163742  12.1318197  38.2539482  62.3970871  21.6956635  27.2070255
  63.2165794  21.5890045  26.7240257  62.6211777  22.2773190  27.9334488
  62.3952141  18.7160435  24.0172405  61.8132210  19.0102444  24.7179279
  62.9734612  18.0795212  24.4375973  44.2719879  16.4538631  68.8041077
  44.3305473  16.0305672  67.9475861  45.1663246  16.7384472  68.9922714
  27.6588078  69.1395111   4.5646381  27.4678211  68.7713852   5.4273319
  28.4483509  68.6805878   4.2778530  67.4892654  30.7275925  27.5161896
  67.3135452  31.6661854  27.4498672  66.6251450  30.3183537  27.4708443
   7.7611852  51.9367256  21.8839035   8.3834620  52.0302544  22.6051922
   7.8873329  51.0400887  21.5734882  16.6290340  26.2104511  85.9791260
  16.1944122  26.8241310  85.3868942  16.3504219  26.4831905  86.8533249
  53.2107658  53.0645180  25.7938595  53.4224091  52.8137474  26.6930542
  52.3266220  52.7260399  25.6525993  46.8694916  47.3453140  62.5184479
  47.1605072  46.4410019  62.4011307  46.8924065  47.4833641  63.4653664
  26.7725925  68.1358261  88.1486664  26.6925163  67.9381714  89.0818100
  27.3343697  68.9101105  88.1151962  63.9448776  65.9674606  43.2148705
  64.0262604  65.1070099  42.8034897  63.2774239  66.4181137  42.6975212
   5.3098536  54.7463264  40.8185310   5.4010744  55.5195580  41.3753281
   5.8429794  54.0774918  41.2482605  27.4626598  12.8127861  75.4554443
  28.0797901  12.4234018  76.0749283  27.5115299  12.2498360  74.6828308
  37.9163818   1.1696758  67.8902283  37.6181984   2.0777147  67.8374634
  38.4377213   1.1350009  68.6922455  34.6673622  51.0629044  36.8236542
  34.8216629  50.2345886  36.3694267  35.3107452  51.0709152  37.5323334
  66.9521713  32.0938873  85.9822845  66.8484421  32.8098755  85.3555222
  67.6850739  32.3641357  86.5354996   9.5188017  53.5983162  81.5356522
   9.7200222  54.4395332  81.1256638   8.7881365  53.2511635  81.0239487
  50.3850212  45.4101791  24.3484955  50.6626587  44.5679092  23.9883156
  49.4731865  45.5002251  24.0715771   4.4518723  21.4794388  88.2232361
   4.2996745  21.3301010  87.2900848   5.2377172  22.0251198  88.2534180
  29.3257046  47.1135254  69.6005096  28.9117546  47.9461555  69.8276749
  28.8107147  46.4549637  70.0666809  30.7373943  51.4311981  87.9255066
  31.0877686  51.3390770  87.0395126  29.8123245  51.1997032  87.8425064
  50.7235184  44.5275764  46.7840919  51.3306084  43.7923393  46.6998291
  49.9180870  44.1356659  47.1216049  38.3744659   8.9813671   4.9984918
  38.6147881   8.3405991   4.3292437  37.5601120   9.3688231   4.6776571
   3.9956455  71.2466812  82.1561432   4.8117990  71.0010757  81.7204819
   3.3268204  70.7083817  81.7328949  56.5236397  21.5837498  11.6684523
  57.4572372  21.7803650  11.5911818  56.4591484  21.0296593  12.4463062
   3.1119761  65.1646881  15.4056549   3.9582045  65.4797211  15.7232819
   3.3018839  64.3045883  15.0309725  18.0281010  26.7525921  28.2200127
  18.1034985  27.6395493  27.8680859  18.8197765  26.3071060  27.9183121
  60.0667915  48.3434448  25.9465733  60.1362038  49.1800919  26.4063931
  59.6948051  47.7444839  26.5939560  45.2305794  11.5701733  24.6217594
  44.4403305  11.8312473  25.0945988  45.9191132  11.5718584  25.2867050
  17.9009018  15.4828520  16.5479794  17.2207508  14.8365746  16.7375908
  17.4199333  16.2895126  16.3630466  29.4051647  45.7634773  29.6753006
  29.3727379  46.2677498  30.4882507  28.8959637  46.2813110  29.0517673
  15.7147741  42.9418106  50.2789612  14.8679495  42.4993629  50.3368988
  15.5203028  43.8580284  50.4763336  44.1273346  42.7327805  74.8990860
  43.3210297  42.2230644  74.9783936  44.2371063  43.1424294  75.7572021
  17.2692394  67.4395370  44.2629166  18.0275002  67.9760666  44.0318069
  17.2364140  66.7660065  43.5835762  86.2154617  65.0660400  85.8353806
  85.6342468  65.5698929  86.4050827  86.3476791  65.6273651  85.0714035
  69.8843155  53.3321991  89.3259201  70.1843872  54.2227211  89.5080109
  70.0373917  53.2148857  88.3883514  38.0075951  39.0323524   2.8398590
  38.8917999  38.8568077   2.5179944  38.0965385  39.8300209   3.3614421
  79.4132004  31.8629379  62.7257729  80.2814178  31.9775028  63.1121674
  79.4454956  30.9983940  62.3162003  35.0360947  63.9081535  10.9970198
  35.9171181  63.5340042  11.0036831  34.9802170  64.3744659  10.1629581
  67.4234390  28.2266693  34.4099770  68.1367645  28.0987530  35.0353088
  67.6595917  29.0247746  33.9372292  84.7521286  28.7655087  58.0988617
  85.0812149  27.9095345  57.8245659  84.6658630  28.6955166  59.0495949
   6.8793602   5.1282744  33.2287903   7.3748422   4.4302597  32.8004150
   6.2657347   4.6691723  33.8023071  29.9479961  67.5107651  40.8491783
  29.4895973  67.3578491  40.0229073  29.2924519  67.9188995  41.4147949
  70.9553986  35.3156395  26.6184902  71.4196701  34.5209084  26.3556480
  70.0367050  35.1324768  26.4218102   9.7187061  49.1572533  85.2781830
  10.3293686  48.8070107  85.9267578   9.1057253  49.6870155  85.7879257
   2.3915994  38.9369049   5.3240352   2.2956533  39.5668449   4.6097507
   1.7884597  38.2279510   5.1007810   9.9862537  30.1136017  75.5934143
  10.0052090  30.0764523  74.6371231   9.3546782  29.4404411  75.8467865
  58.2977066  59.8702393  39.4798546  57.4390678  60.1878471  39.2003975
  58.6349869  60.5615273  40.0495872   0.8794907  42.6415024  50.4506454
   1.4826369  42.4798775  49.7251663   1.0324296  43.5555382  50.6901779
  22.7222614  71.2974167  85.8994751  23.6505737  71.1638641  86.0908661
  22.2821293  71.1558990  86.7376175  11.8104515  63.6677284   2.2092409
  11.3761187  63.1137047   2.8578126  11.6834860  64.5596542   2.5326302
  46.1292992  55.0012703  83.2230377  46.9693489  54.5964279  83.0070496
  45.4947433  54.5462189  82.6694107  69.4685898  44.2253876  40.8480682
  69.0734024  43.4513588  40.4468918  68.8212738  44.5200348  41.4886932
  45.9122925   3.4043167  28.0466995  45.7522354   3.1038458  28.9413128
  45.9341469   2.6021357  27.5249157  77.5349121  69.1259689  75.2095490
  77.8642197  70.0214462  75.1327286  76.8798370  69.1705933  75.9060440
  81.9301147  47.3165894  38.2999344  81.4303207  47.2248764  37.4887466
  81.2721252  47.5186157  38.9651184  83.0716476  17.9521980  48.5356369
  83.1449814  17.3579674  47.7888145  83.2866211  18.8137474  48.1782112
   9.0036602  16.0800705  63.8927002   9.2166252  16.7078876  63.2022476
   9.7481384  16.1223984  64.4928589  32.0765495  71.3254623  44.3003159
  31.2565594  70.8338776  44.3471107  32.2890816  71.5241241  45.2122345
  63.1747513  59.8124657  37.6168633  63.4780617  59.4666443  36.7774315
  62.2398758  59.9714966  37.4866638   3.7019970  69.0594559  16.6198521
   4.3607492  69.0978851  15.9264536   3.8726511  69.8341446  17.1555424
  72.1763306  60.1323166  69.4907455  72.8176117  60.8221283  69.3200150
  72.4426422  59.4112167  68.9203720  17.3702221  14.7781744  89.5273056
  17.5932922  15.5273438  88.9748383  17.0255260  14.1254206  88.9179306
  82.3240814  41.0668755  29.4227581  82.5557175  41.4187355  28.5632401
  81.4882965  41.4826584  29.6344624  28.5672836  31.3409309  48.5027428
  28.3481693  30.4464931  48.2415848  29.0537014  31.2392197  49.3208427
  42.9244766  48.6404190  48.8275032  42.2033539  48.3527451  48.2676315
  42.8683968  48.0765457  49.5989532  41.6516571  58.7323799  43.3659668
  41.9046059  59.4760742  43.9129295  40.8412170  58.4098434  43.7601547
  37.5273590  71.8947144  72.0382309  37.8411026  70.9918747  72.0898972
  36.6839485  71.8299255  71.5902481  77.8147507  59.5286446  43.2958374
  78.1072159  59.0992317  42.4919090  78.5709686  60.0405922  43.5826683
  50.0972443   3.0253494  86.5305252  50.4071579   3.7098143  87.1235657
  50.1425743   2.2214303  87.0481110  61.3076439  59.0259590  71.5036392
  60.6815262  58.3478813  71.2498169  61.3491974  59.6093292  70.7458878
  18.2276478  32.1111641  24.9961948  17.9309025  31.2030182  24.9375172
  18.2973461  32.2801323  25.9357815  61.2196198  64.6031494  53.0907097
  60.9676971  63.9689064  53.7619057  61.1797752  64.1120071  52.2700882
  46.0023270   1.7999318  87.8880386  46.3380013   1.8713741  86.9944763
  45.4613342   1.0103359  87.8782425  24.8538723  40.6373787  20.0642376
  23.9424229  40.3987579  20.2332115  25.1999264  39.9100838  19.5470142
   0.7128823  29.2083092  84.3611298   1.0168209  28.7864227  83.5574722
   0.8473178  30.1433067  84.2064133  56.3111801   6.5042443  84.4484253
  56.5257835   6.8388042  85.3191986  55.3590775   6.4059997  84.4575348
  71.2664185  50.2846375  39.0685616  71.6628799  50.7241211  39.8208237
  70.3544540  50.5753593  39.0745888  57.7807236  63.7177849  19.0685940
  58.5501328  64.2494736  19.2724285  57.1707611  64.3281174  18.6542645
  49.7284241   6.7856627   0.5680104  50.4075317   6.1754017   0.2805597
  49.6826706   7.4391599  -0.1299004  19.6119938  60.2618980  52.2869911
  19.5035210  59.5669022  52.9361839  18.7628918  60.3144684  51.8482475
  54.6373787  47.3176422   3.8810031  54.7824173  48.1835594   3.4997087
  53.6852989  47.2205162   3.8995430   5.9621725  65.5323105  34.9951706
   5.2346649  64.9284363  34.8458328   6.3053317  65.7148666  34.1204453
  53.2597351  30.9069500  12.1676931  53.1156044  31.7880783  12.5127602
  53.8994751  30.5178795  12.7640057  72.9178848  61.8615532  13.5080338
  72.0800400  62.0456047  13.0833311  72.8315506  60.9639816  13.8291988
  38.7539482  49.3401413  53.1040421  39.4986572  49.7035294  53.5831947
  39.1490097  48.8535004  52.3806190  70.7796021  58.4866562   8.4496183
  70.4105301  57.7784843   8.9773607  70.9673157  59.1822166   9.0798454
  74.5708771   3.2181311  80.4652863  74.3666916   4.0692616  80.0778351
  74.2774963   3.2917910  81.3734360  31.9829216   9.4334764   5.1611824
  31.0324326   9.3807583   5.2612829  32.1647873  10.3706408   5.0913248
  23.4045238   7.1339483  20.5319576  23.7603168   6.8518023  21.3745956
  22.4562683   7.0504522  20.6323166  27.6571140  16.7863064   5.6063852
  28.2953644  16.6348991   6.3034830  27.0146999  17.3802376   5.9946895
  70.4197083  10.9801483  61.0199776  70.8240204  10.2765455  61.5276299
  70.3138657  11.6966763  61.6457710   5.6222548  60.0312347  85.5331192
   6.1903248  59.2609329  85.5203247   6.1625762  60.7333450  85.1707306
  57.6000748  47.0054970  19.2428875  58.4404144  47.0026779  18.7845707
  57.7971954  47.3781815  20.1022396  77.9119110  12.9053679  31.6233692
  78.2300873  12.8339567  32.5233116  77.3936386  13.7100811  31.6157093
  49.0746727   8.0725756  30.4383469  48.5640411   7.3066263  30.7006683
  49.8298187   7.7098732  29.9752789  76.0116882  40.1693382  82.9300995
  75.6639709  40.1610451  83.8218689  75.2366714  40.2274704  82.3713531
  42.0361366  28.1958981  47.1936417  42.1599236  29.1104736  46.9397507
  42.9208603  27.8728733  47.3643761  15.8773546  69.4583588  41.5946083
  16.1534405  70.0116272  42.3252907  16.6931362  69.2144241  41.1573105
  66.8484802  25.3986702  10.3321695  67.4964218  25.9603291   9.9067965
  66.3229294  25.0510597   9.6116161  17.9100533  41.2883759  70.8627167
  17.7042656  40.6174736  71.5136948  17.1734829  41.8981400  70.9061203
  57.0179367  42.0070038  77.9860229  57.4427834  42.8506203  78.1410904
  56.2122307  42.2269592  77.5183792  81.7500229  36.9925232  37.2140274
  82.6981125  37.0326691  37.0885239  81.5404129  37.7837067  37.7103348
  53.6700249  40.0067444   7.7505789  53.6050415  40.7860756   8.3025331
  54.0108223  40.3313141   6.9170661  79.3261642  19.5863724  19.6662827
  79.1784592  18.7963066  19.1464653  79.9920807  20.0722008  19.1797009
  -0.1521271  62.4530182  85.1874466   0.5992278  62.1424789  85.6926804
  -0.2900916  63.3504486  85.4904480  69.2299423  35.5673294  87.0186310
  69.8817215  35.9221497  87.6232071  69.2226639  36.1831360  86.2858582
  32.1452713  65.6009293  39.0429611  32.1417770  65.6853409  39.9964256
  33.0703468  65.6484528  38.8016968  33.8142815  16.2477932   4.7349992
  34.6106720  16.7426338   4.9276919  33.2729263  16.8530750   4.2282457
  66.1123047  64.6041946  26.1955528  65.6016541  64.6847763  27.0011406
  66.7083206  63.8738823  26.3618279  17.8166943  40.0712585  87.8806381
  17.5014515  39.7748871  87.0268097  17.0601864  39.9803658  88.4600067
  18.5421143  26.6693916  20.7791348  18.5253716  25.8062305  21.1925392
  18.8414173  26.5012474  19.8856163  19.9666290  22.1933517   9.9317436
  19.4003162  22.3062515  10.6951418  19.6947460  22.8842068   9.3275661
  38.2623749  20.4850960  15.6336298  38.0143051  20.5328503  16.5568924
  38.1124725  21.3693924  15.2992973  75.6517181  63.1482086  51.3889847
  76.3409882  63.1973076  52.0513496  74.8726273  62.8758087  51.8737984
  37.6325035  68.0845718  16.0963593  36.9005089  68.6344757  15.8170385
  37.2269211  67.3942337  16.6209221  72.9172745  50.7322426  53.1388359
  73.5590057  50.2171631  52.6498528  73.4330902  51.1895065  53.8029709
  80.7970123  70.6224365  38.6654472  81.4025421  70.2969666  37.9993820
  81.1057663  71.5078354  38.8576927  86.1062622  21.2614098  82.1693726
  86.3719635  22.0977898  82.5516052  86.7479248  21.0995216  81.4777756
  40.9108543   3.4967499  22.0319576  41.8387184   3.7057004  22.1398602
  40.4542618   4.1595311  22.5501022  27.5281010  70.9028168  50.3486404
  26.7427979  70.6818771  50.8493576  27.3091927  70.6723557  49.4457588
  38.8313217  65.2694092  52.1852684  38.2884331  64.8309250  51.5301094
  39.2874069  65.9555740  51.6980324  77.0464249  65.9974365  54.6505661
  77.0903549  65.1906357  54.1373634  76.1948700  65.9582825  55.0859528
  79.0575714  67.8140945   1.5554879  79.0546951  68.0163803   2.4910660
  78.2703247  68.2397919   1.2159833  64.2669373  43.3735733  39.1543808
  64.9450684  42.8029518  38.7927742  64.2506943  44.1286774  38.5663452
  34.4622612  29.7660732  75.3622742  34.7023430  29.0598545  75.9621506
  34.9950256  29.6095505  74.5826035  55.3439255  55.2660637  34.3703690
  55.4256859  56.1523209  34.7226372  54.4301987  55.2021484  34.0924263
   8.2450552  57.2323494  60.8123245   7.8786387  58.0681915  60.5236320
   7.6838517  56.9632187  61.5395432  85.8275986  69.2958603  49.6184654
  85.3514709  70.1239548  49.6800690  86.3020706  69.3535080  48.7891388
  19.0766182  51.2563477  61.2929993  18.9432640  51.0650597  60.3646393
  19.6541004  52.0196953  61.2997131  47.3833618  34.8099289   8.6834230
  48.2556801  35.1446190   8.8914623  47.4083862  33.8919220   8.9533625
  39.4519920  34.3391037   3.6077385  38.9996300  34.2074699   2.7745082
  39.0848961  33.6718445   4.1875973  64.5919876  50.7306404  67.1125107
  63.6639633  50.6016426  66.9166641  64.8829727  49.8874168  67.4596863
  69.0921173  45.0705948  35.3153152  69.8446732  45.2836418  34.7634964
  69.0221558  45.8089447  35.9204369  14.7085028  54.4011993   4.5987825
  14.2642908  55.0432701   4.0450201  14.9726763  54.8959122   5.3744788
  33.3233147  58.8494797  53.7266655  32.3764114  58.7330437  53.8044052
  33.4367981  59.7855377  53.5618858  75.3992233  32.6414070  48.4115868
  74.5556412  33.0838966  48.5053940  75.6864700  32.8589096  47.5247879
   4.7681322  46.1616783  40.2622070   4.6564593  47.1104393  40.3222847
   5.3085694  46.0330048  39.4827194  72.9552994  51.1998138   6.0377955
  73.5486298  50.5163269   6.3493047  73.0070038  51.1452179   5.0835538
   4.9555907  49.0198746  57.8164444   4.9625216  49.5659332  57.0303116
   4.2318602  48.4090462  57.6774025  13.4505014   4.7979655  74.3342743
  13.4108171   3.8974519  74.0121994  12.5663443   5.1393986  74.2004013
  13.9448423  12.0065689  86.8748169  13.3223190  11.9734182  86.1484604
  13.6768875  11.2920914  87.4527054  81.0104141  50.3258858  26.2900066
  81.4063492  50.3407669  25.4186611  80.5481491  51.1613541  26.3573341
   2.8367381  17.4075623  78.0938110   3.1883121  17.5734386  77.2191010
   3.5804160  17.5442600  78.6807404  50.1863022  24.3403435  27.1080399
  49.7693672  25.1926136  26.9814110  49.5185661  23.8091373  27.5418358
  73.1432114  36.8406258  39.6232338  74.0737610  37.0383072  39.5172691
  72.7757568  36.9398041  38.7449532  71.1225052  33.8373032  67.5389252
  70.3488159  34.1045341  67.0427094  71.7900085  34.4833641  67.3081131
  50.1968689  69.0211334  83.7096176  49.8210869  68.2941208  83.2131577
  51.1298523  68.9995880  83.4967651  45.0108299  49.0746956  29.7996197
  44.5000191  49.7392082  29.3373089  44.5421371  48.2561302  29.6368046
  56.8571053  37.1762924  17.0718327  57.7688217  37.4377251  16.9427586
  56.5618896  36.9004517  16.2040806  55.2704887  18.1143894  31.8561573
  55.2105637  18.3575916  30.9323101  56.2021980  17.9489746  32.0003357
  32.6580544   1.8928283  22.5474644  32.7762146   2.5941906  23.1880589
  33.3996277   1.3059464  22.6953449  48.6734352  35.9310341  29.4651203
  48.7646103  35.1539612  30.0165520  49.4854393  36.4188728  29.6025658
  59.7380905  53.7967682  63.9935913  59.0214653  53.1694908  64.0895538
  60.3921928  53.5126534  64.6320724  59.1730461  58.8929482  82.8741608
  59.7361946  59.3345413  82.2384796  59.0289383  59.5448914  83.5600357
  69.2985535  28.7213230  26.5465393  68.5759735  29.3200531  26.3577633
  69.6292801  29.0061474  27.3984356  29.7742710  55.4172630  75.8454361
  30.4745884  55.4673920  75.1948471  30.1015568  54.8032875  76.5028152
  46.3606148  18.1962490  14.9441242  45.7107353  18.8940582  14.8607473
  47.1712379  18.5831184  14.6132870  59.4087753  22.5631828  77.5202332
  59.0058670  21.9906940  78.1730423  59.4348717  22.0352783  76.7221909
  33.2777596  65.5109024  41.5379829  33.4838448  66.1916046  42.1786079
  34.1275673  65.2527695  41.1810112   0.3107256  70.3627396  35.0142746
   1.1944472  70.0242157  34.8705025   0.4206230  71.0460281  35.6755371
  56.4659195  28.5813026  52.6913490  55.7006416  29.1550827  52.6544495
  56.1529579  27.7425461  52.3525658  80.0923843  46.9415054  81.5119934
  80.8669739  47.4485931  81.7551041  79.3679581  47.5634651  81.5798264
  58.7611465  57.9235992  59.3896332  59.5354271  58.0550499  58.8424187
  58.7948112  58.6365166  60.0274811  85.6247482  48.7409286  20.2018509
  86.0629425  49.2418556  19.5138874  85.8026733  47.8263512  19.9824924
  51.1541023  13.8368740  35.9463806  51.7665405  13.8729982  35.2116394
  51.6888847  14.0389538  36.7141075  58.3093872  67.0687943  36.8937111
  58.4448776  66.6647491  37.7508125  58.9224129  66.6149597  36.3153763
  22.7725201  65.9778137  39.1313667  22.2922058  65.2041626  38.8364258
  22.4756966  66.1155014  40.0309029  24.1748829  16.0682144  76.8267517
  25.0143719  16.2020683  76.3867798  23.5420361  16.5374069  76.2830658
  58.0977859  13.0088577  10.0996809  58.4172935  13.8615847  10.3946400
  58.3198586  12.9786863   9.1690874  60.1649933  53.3290596  14.2704248
  60.6634293  52.5120621  14.2880106  60.6793442  53.9349518  14.8038778
   2.5729053  19.9379292  30.0067043   3.2610261  19.5623913  30.5559673
   2.9546535  19.9646626  29.1293297  64.3078537  29.5193386  53.2309456
  63.6265297  29.2551193  52.6127090  63.8938408  29.4431419  54.0906067
   6.3592539  68.9070740  61.4978828   6.9235129  69.6008682  61.8391876
   6.9507256  68.1697235  61.3471832   3.5883114  15.7991076  30.6298637
   4.1507974  15.6466475  29.8705235   4.1923594  15.8383350  31.3713627
   8.1375217  68.0288315  12.4855919   7.3045716  68.1402512  12.0273228
   8.5940027  68.8604965  12.3583775   8.0847759  55.5259857  87.7812958
   8.7576494  55.3106689  88.4271393   7.5599785  56.2079887  88.2004471
  23.4808941  55.7881889  25.2090721  24.0417595  56.1351700  24.5153370
  24.0910988  55.4299393  25.8536949  47.1257172  52.9168205  54.0212097
  47.0281639  52.4058685  53.2176933  47.9282150  52.5824432  54.4217339
  72.9575882  40.8836823   1.4113846  72.4863815  41.3854752   2.0765152
  72.5577774  40.0144272   1.4392422   4.5053511  31.8861084  72.1945114
   3.6546161  32.1697769  72.5291901   4.7946844  32.6064186  71.6344452
  30.9348335  47.3574753   8.7616253  31.2653866  48.2437744   8.9080563
  30.2836552  47.4564171   8.0670700   8.2256851  51.7203979  67.1329041
   8.8466501  51.3202209  66.5242233   7.4249020  51.8305168  66.6202164
  37.7153015  35.1385040   1.3032174  36.8657532  34.8770523   0.9480529
  38.2899628  35.1859894   0.5391873  47.9511070   3.8632603   7.1105013
  47.5134621   3.7755971   7.9572663  48.8446655   4.1279340   7.3289852
  60.7711678  46.0654564  66.3142319  60.7025681  46.9824448  66.0484161
  60.4786339  45.5715218  65.5482788  38.0253525  39.8300629  71.5028076
  38.5765038  39.2389221  72.0156631  38.0039825  39.4398880  70.6290054
  21.3453884  28.5061741   2.8340178  20.6265945  28.7345734   3.4234250
  20.9198341  28.0737801   2.0936327  52.6430550  48.4733734  66.1128235
  53.4596519  48.5085449  66.6109772  52.6801682  49.2377090  65.5378036
  24.4462776   2.8822997  22.0355968  24.9146214   3.5887771  21.5908756
  23.5211735   3.1031306  21.9276772  44.9361115  55.9692421  85.6840210
  44.0047646  55.7499084  85.7108154  45.2105675  55.7405891  84.7959747
  23.5230122  41.6856804  24.3539314  24.0232716  41.6287117  23.5398502
  22.8972130  40.9632797  24.3015442  22.4373550  46.6612892  37.6305389
  22.2073555  47.1349411  38.4299049  23.0976772  47.2106781  37.2081909
  58.4825516   8.4476032  29.6012135  57.8021431   9.0648060  29.3322506
  58.3965187   8.3961439  30.5531502  56.3178444  57.3133163  87.3133850
  57.2493286  57.0972977  87.3570251  56.0087204  57.2237549  88.2148590
  44.7993469  68.2682953  77.5459900  45.2051086  69.1164093  77.7256927
  43.9041939  68.4820099  77.2828217  57.3759346   4.0042338  15.3407793
  57.9251175   4.1139126  16.1170521  56.5036964   4.2787714  15.6237307
  69.0229874  60.5180168  14.8764887  69.3052902  61.3298225  15.2978125
  68.9084778  59.9005203  15.5988579   0.9972134  49.5579605  78.8426056
   0.5641708  49.5693741  77.9890366   0.6759574  50.3438301  79.2846832
  85.0577469  54.4913063  18.7370300  84.7085800  53.6602516  19.0590019
  85.9994431  54.3400841  18.6558971  52.6922073  68.0024948  36.9960709
  53.4050636  67.4029999  36.7754326  52.5136871  68.4724350  36.1815033
  37.6196632  43.9577026  74.9660034  37.5106812  43.0382652  75.2088776
  37.4572868  44.4403915  75.7764816  40.5148239  68.5259323  33.9625435
  40.9153633  69.3736191  34.1554985  41.1481171  67.8834152  34.2824669
  53.1544991  69.4441528  56.0877838  53.5593262  68.6415939  56.4167824
  53.4832001  70.1326065  56.6659012  69.2611923  57.7568436  49.8210220
  68.4100723  57.6367035  49.3998489  69.0967865  57.5816422  50.7475777
  67.5498581  63.8620262  30.0515823  68.4659729  63.6027641  30.1502914
  67.2646255  63.4315643  29.2456207  50.5751953  21.7982025   5.3928366
  51.4836807  21.7783031   5.6936483  50.4428978  22.6964340   5.0896678
  12.7055836  71.4183121  64.9928284  12.7861509  71.6398849  64.0651169
  11.9385786  70.8473587  65.0369720  56.6189079  67.1945496  86.7155151
  57.1111679  67.9869537  86.9300232  55.7454796  67.5104675  86.4841003
  49.3361282  60.9832039  71.2714691  49.0598183  61.5465355  71.9943390
  49.7089882  60.2117004  71.6980667  63.0266418  51.9587975  22.5946178
  62.6721611  52.2895889  23.4199371  62.9525070  51.0071793  22.6664028
  33.7250023  17.6416988  28.4389992  34.1675491  17.1606998  27.7396984
  34.4334679  17.9439602  29.0072861  64.5783691  16.0594673   0.3031282
  65.1776505  16.1506538   1.0439227  63.7835007  16.5149002   0.5806152
  78.2138214  23.9669094  65.7987137  78.9274139  24.5142441  65.4709244
  77.6077271  24.5838814  66.2088699   6.5950780   1.4527867  38.7513313
   6.4955974   1.0583787  37.8848572   7.0891051   0.8051144  39.2540131
   7.3928337  37.3921165  46.1467323   6.5879030  36.9287109  46.3781929
   8.0581865  37.0203781  46.7258263  82.0910873  29.1122055  14.8513489
  82.5362854  28.7823372  15.6318722  81.3876419  28.4827099  14.6928148
  10.1800737  49.1934891  47.6949883   9.6053696  49.8915405  48.0091057
   9.6971598  48.3867455  47.8744049  18.0352383  71.3164444  81.6670456
  18.8034801  71.8424988  81.8890762  18.2110500  70.4597092  82.0560532
  67.1769257  50.6427956  85.8682404  66.7866440  51.5032082  86.0218735
  66.7929382  50.3497200  85.0418701  71.0164337  17.8088875  66.3776169
  71.5327682  17.4534760  67.1010132  70.3030701  18.2842960  66.8034363
  46.6601257  33.0098038  34.1257668  46.2189598  33.5276756  34.7991257
  46.2041855  33.2336311  33.3144379  42.1373253  12.4366283  63.5480804
  42.8360634  12.8954058  64.0144730  42.1941605  11.5334091  63.8598480
  47.5864143  45.8624344  73.9112930  46.6911621  46.0549698  73.6325684
  47.4892311  45.1774597  74.5728073   8.1405153  19.2317791  32.2467995
   7.6442399  19.1438103  31.4330406   7.4844704  19.4659367  32.9033127
   4.4510264  23.5699577  29.1829662   5.1053185  23.6525078  29.8767395
   3.6919870  23.1782131  29.6149693  65.7828217  68.9220581  48.1767006
  66.0847549  69.6351395  48.7393608  66.5865173  68.5260468  47.8398438
  85.8039627  66.1761017  33.9370346  86.5868683  66.6959000  34.1189690
  85.8589478  65.4392471  34.5455170  55.3727036  55.0237122  29.0684376
  55.4896049  55.6744499  28.3762627  56.2131958  54.5678444  29.1130295
  14.5560760  36.4739227   0.8156984  14.5352135  37.4275246   0.7354444
  14.8695135  36.1687126  -0.0356750  83.2259140   8.7477360   5.2542644
  82.9110565   8.5995235   6.1459651  84.1516190   8.5060368   5.2838516
  79.6486740  16.6467419  82.2712021  80.4723663  17.1303349  82.3336105
  79.2111435  16.8100700  83.1067429  36.4317970  59.8082619  34.8224297
  36.1051712  60.6685181  34.5587845  35.7548523  59.1962318  34.5336418
   8.2389860  63.1420784  75.9674530   8.7148361  62.6343918  76.6247635
   7.3524699  63.2193031  76.3200989  24.9057255  48.1615295  22.4440708
  24.5054817  48.7675323  21.8205357  25.6308403  48.6556549  22.8265343
  10.8853703  65.4801941  59.0299911  10.9199800  64.8181305  58.3395500
  10.7849340  66.3091812  58.5620918  33.7912407  24.5089626  73.2149429
  34.3126030  24.0174332  73.8496170  32.8999062  24.1799335  73.3310928
  52.0164375  32.2433968  61.5277824  51.9718513  31.9898643  62.4497147
  52.5651360  31.5726871  61.1211967   2.6302264  39.4884644  12.2830801
   3.2945666  39.3502693  12.9581985   2.2407398  38.6242943  12.1498690
  16.5480366  48.5953064  75.6706009  16.1204205  48.6865463  76.5221024
  16.3315468  47.7068176  75.3878479  50.7412529  34.0420914  33.7245789
  50.8732376  33.0951271  33.7700500  51.6218338  34.4017944  33.6177101
  68.9658432   7.4947853  52.1401672  68.3256760   7.5031929  51.4285889
  68.6212769   8.1180782  52.7797089  23.9810371  31.3613091  24.2090321
  23.4069805  30.6865597  24.5715332  23.8995361  31.2608910  23.2606106
  53.1371613  67.9005966  31.2853565  53.3082657  68.7764282  30.9391308
  52.3194237  67.9919205  31.7744312  76.0298233  46.7923203   7.8722615
  76.2136154  45.8825684   7.6381555  76.0554733  47.2637711   7.0396104
  64.9528961  44.4942589  21.8119488  65.5669785  43.8795471  22.2135239
  64.2983322  43.9376945  21.3900318  12.9146824  43.0473061  39.6290169
  13.5604277  42.7286758  40.2596703  12.9848146  42.4442520  38.8889923
  34.5888367  25.3678951  21.5618229  34.9912300  25.2120380  22.4162350
  35.2998199  25.7126007  21.0215321  40.7542877  67.5601730  59.7811470
  40.6228600  68.5067673  59.8352013  40.2673645  67.2078323  60.5261269
  39.2819595  39.1871414  11.2781029  38.7918968  38.4396019  10.9356756
  40.2003365  38.9319763  11.1903257  70.3870773  11.9862299  54.5160484
  71.2515182  12.3901949  54.5920792  69.9899979  12.1060553  55.3787193
  78.0068436  69.8413773  38.8015900  77.6116257  70.6019440  38.3754768
  78.8830795  70.1350250  39.0510216  39.8118057   7.7794075  25.4769363
  39.2114449   8.0090637  26.1862011  40.6634903   8.1037960  25.7695770
  74.0947800   1.6014870  26.2387543  73.4850616   2.2768581  25.9415169
  73.8453217   1.4370464  27.1481285  54.6835632  70.5768204  64.2654648
  55.6342850  70.5482254  64.1580353  54.3636780  69.8234177  63.7691956
  12.6864262   3.5166774  69.4293365  11.8401136   3.3595464  69.8480225
  12.5103474   4.1995854  68.7821426  74.8736954   7.8617787  28.6826267
  75.0650864   7.5804482  29.5773067  75.4692764   8.5953407  28.5296383
  43.8157578  68.2200546  62.2642899  43.6692848  67.6877670  63.0462418
  44.7653580  68.2129059  62.1441116  29.0583878  61.6482582  84.9390335
  29.6828213  60.9615059  84.7051849  29.4187183  62.4434090  84.5464478
  62.2654648  18.6584702  33.4803772  62.9291611  18.5792503  34.1655540
  61.9821320  17.7590199  33.3162308  73.2455521  44.9381142  57.6257057
  72.7296143  45.7412643  57.6963577  72.9717102  44.5498428  56.7947540
  43.8348083  54.1907616  41.2493439  43.1562805  53.8027382  41.8018570
  43.8103371  53.6759071  40.4427719  22.6188660  42.1484413   6.6100025
  22.1843395  42.3219376   7.4450583  22.3146152  41.2764816   6.3583055
   7.2381058  57.5498276  -0.0246262   7.5850163  57.7814255   0.8369111
   6.3018522  57.7397804   0.0352006   6.6250472  67.5433044   5.8323550
   6.0712872  67.4265976   6.6043396   6.0860405  68.0506058   5.2254333
  17.4865818  62.9009438  79.7247620  17.3544636  63.3763351  78.9045334
  16.8339691  63.2671242  80.3216248  32.6403122  35.0490456  78.8871307
  33.3980522  34.5980606  79.2595291  32.8664017  35.1764908  77.9657898
  78.0016022  31.4897633  86.1033478  77.4666519  31.7382622  85.3494797
  78.0130844  32.2707024  86.6567307  44.9159470  13.1106501  86.1493759
  44.4345970  13.2227621  86.9691086  45.5730782  13.8065567  86.1603928
  11.7585802   3.3708208  65.9060745  11.4687395   4.2162647  66.2487869
  11.6696854   2.7694566  66.6454620  28.3265095  12.1480799  22.2431316
  27.4893646  12.6058941  22.1668129  28.6056194  12.0068712  21.3384838
   2.2064924  39.9845734  63.0541763   2.7014744  39.5510674  63.7493744
   2.8748415  40.3064957  62.4492760  10.3727341  39.2139854  59.6211433
  10.2683630  40.1020012  59.2794304   9.5047979  38.8200188  59.5333443
  53.7404785  25.6348515  63.9867516  53.4719009  26.3452682  64.5693359
  54.3077621  25.0841274  64.5263138   7.3376150  36.5176697  83.1377106
   6.7192969  35.9099274  82.7320480   7.4912663  36.1559753  84.0105286
  14.3458796  16.9570427  29.8454952  13.5017204  17.3535748  29.6301155
  14.8798733  17.6865234  30.1600456  41.1344147  41.2294884  70.3036041
  40.5587158  41.8542328  70.7446213  40.7815666  41.1637764  69.4162369
  35.3399353  35.8105698  72.0138321  36.0374527  35.2290611  71.7112656
  35.6498375  36.6897087  71.7963409  66.3843842   2.0456491  62.7801208
  65.7772522   2.3538392  63.4529152  65.9285889   2.2071896  61.9540558
  75.1701050  47.9587898  59.5405083  75.2742310  47.2427635  58.9138527
  74.2315826  47.9787407  59.7276192  44.5611954  43.2437057  55.2114868
  44.3338737  42.5761604  54.5642357  45.4810829  43.4428673  55.0372086
  53.6068535  38.5112495  20.0543213  53.0796280  39.0720024  19.4852715
  54.3646736  39.0487099  20.2847061  59.7904091  70.4564438  73.8683624
  59.5921364  71.1469345  74.5009308  60.1889038  69.7603226  74.3907013
  58.3142090   1.5336864  44.6244469  57.5948715   1.1890523  45.1536064
  58.3441582   0.9603773  43.8585167  59.7391586  10.8948116  23.8472309
  60.0989761  10.2242393  23.2666321  59.2931023  10.4013824  24.5355587
   2.9912829  20.9853554  27.3541679   3.7780221  20.5540237  27.0206623
   2.3246279  20.8155136  26.6886177  76.8568039  44.1340790  26.9898510
  77.5191422  44.6206360  27.4805698  76.0905991  44.7078018  26.9879704
  23.2891541  51.9170227  39.2816162  22.4955196  52.2484550  39.7017708
  23.2410259  50.9676552  39.3939362  16.4812145  57.0095062  81.4731140
  15.5902729  56.7750587  81.7329025  16.5142956  56.8221741  80.5350113
  44.8280945  18.4796181  77.0855026  44.9521561  17.5386047  77.2093353
  44.0484238  18.6881809  77.6001358  15.8497276  54.8336563  58.2865334
  16.6653919  54.6850700  58.7649078  15.3828087  55.4877052  58.8065681
  62.9097710  65.7844772  87.8738632  62.0177345  66.0029907  88.1435852
  62.9234428  64.8278351  87.8441162  83.0083466  43.5635147   8.7431335
  82.4578781  44.3198128   8.5400743  82.5773544  42.8292427   8.3057222
  58.0352440  28.2598438  60.3444595  57.2545624  28.6966305  60.0038910
  57.7435760  27.8477459  61.1576843  55.1404419  35.9808807  62.1247482
  54.4032516  35.6677818  62.6489143  55.6369858  36.5417023  62.7206993
  21.1260719  17.9749069   4.3247681  21.5214005  18.1324024   5.1821723
  20.2113361  18.2359924   4.4311838  62.4591408  68.9624023  25.4852505
  62.9090767  68.6540604  24.6986675  62.3953323  68.1877518  26.0438862
  23.5315704  65.0240021  56.8880234  23.1200218  64.2047272  56.6129837
  23.6927643  64.9084930  57.8244553  84.8159866  15.3181925  31.1805210
  85.1877365  14.5400181  31.5958309  85.0189362  16.0322590  31.7848034
  80.2567215  31.1875439   8.3607206  80.7896957  31.8555584   8.7919064
  80.1094360  30.5257263   9.0363951  64.7076950  13.3620300  81.2737732
  65.1166153  12.5053415  81.1508942  64.6862411  13.4832535  82.2230225
   5.9739861  13.0163174  35.2412605   6.0762172  13.1276703  36.1864471
   6.8576550  12.8277512  34.9253426  67.2043228  68.5482178  59.6213989
  66.3567810  68.9486618  59.8151703  67.3977051  68.0126648  60.3908272
  70.2884979  69.1181412  22.0708027  69.9602051  69.5891800  21.3049202
  70.7216187  69.7898178  22.5975800   4.5268049  31.9741154  78.4651718
   5.1376019  32.3373070  77.8238831   4.5203080  31.0342064  78.2841721
  68.2294540   7.5937552  57.8394318  68.8160019   8.2589712  58.1995468
  68.4972000   7.5083809  56.9244156  71.7926712  18.9733143  38.2244148
  71.7137985  19.1335640  37.2840233  72.2194824  19.7589283  38.5662842
  80.8747482   3.5267732  60.3022614  80.1147079   4.1073270  60.2630844
  80.6372528   2.8647738  60.9515572  53.6526566  67.9359665   2.2640235
  53.4699821  67.2129288   2.8640845  52.8619690  68.0092316   1.7295362
  45.4356689  54.4721413  74.7383499  44.8443375  54.2110100  75.4443054
  46.1616325  53.8505669  74.7917709  12.0163841  65.2031860  63.0756874
  12.8043079  64.6821671  62.9209213  11.2932463  64.6106186  62.8703423
   7.6355815  58.2752533  79.3167877   7.8594608  58.1892166  78.3901215
   6.7139578  58.5337906  79.3175278  75.2985840   3.9600091  61.8607712
  74.6568604   3.3685033  62.2538910  75.8910522   3.3838484  61.3778114
   3.9745014  48.8969955  40.1910057   4.5711474  49.2640076  40.8433456
   4.3272338  49.1914330  39.3512917  11.0792856  38.5841713  88.6307220
  10.1474342  38.7878990  88.7105865  11.1008329  37.6780510  88.3229599
  42.1830101  62.1744614  41.9825897  41.2696457  62.0398941  41.7298126
  42.3287582  63.1129494  41.8633118  33.0700264  59.6689796  23.0198956
  33.6362457  59.0198746  22.6024170  32.4213028  59.8867569  22.3505936
  52.5856781  44.3164787  77.7886276  52.5222855  45.1986618  77.4226151
  52.6205826  44.4519768  78.7355423  35.4601059  32.8225861   9.9406939
  34.7385101  32.3914680   9.4827986  35.1363373  33.7052193  10.1205864
  81.3219910  19.4369144  79.8533325  82.0995255  19.0182743  79.4839935
  81.4937973  20.3750820  79.7723618   6.9930477  30.0702114   1.3334054
   7.9415960  30.0645008   1.4616863   6.6812954  30.7889194   1.8834064
  42.2799644  60.4354935  12.7122984  43.0506668  61.0026093  12.7373228
  42.5508385  59.6865540  12.1813059  16.7221165   6.9043994  71.8080444
  17.5363922   7.1164079  71.3517151  16.1734028   7.6800303  71.6916733
  23.5263805  16.8290119  54.8581352  23.4497261  17.7239017  54.5271835
  22.7307606  16.6951580  55.3732109  83.8085175  48.3008499  44.3554459
  84.0375519  48.7452927  45.1716843  82.8946762  48.5400124  44.2007713
  26.0545101  22.7445049  89.1943817  25.3305054  22.1189518  89.1673126
  25.7420101  23.4945793  88.6884537  45.3510818  27.5095196  13.4317141
  44.8125877  26.7246857  13.3302574  45.3194199  27.9341755  12.5744534
  49.3615952  38.5307541  27.4485416  49.5277405  38.3939362  26.5158539
  49.9769707  37.9452744  27.8898544  13.8162432  54.6513901  79.4067230
  13.2042761  55.3670235  79.2346878  13.2784147  53.9667320  79.8044891
  62.8916855  10.6822042  40.8118591  62.6714783   9.8256121  40.4458084
  63.6114235  10.9982281  40.2656593  49.7955399  42.7023506  61.8195496
  49.1737747  42.0466652  62.1353302  50.1430664  42.3317528  61.0083084
  11.7357607  49.9302330  64.9834137  10.8246641  49.9996758  64.6982574
  11.8275499  49.0225449  65.2730865  19.4238129  13.1772337  69.3815079
  19.3568459  14.1320810  69.3777695  19.8198318  12.9616041  68.5371704
  50.9410629   2.2256062  27.4364662  50.3316536   2.9310622  27.2192478
  50.6215134   1.8813941  28.2705154   1.3701888  37.1478539  53.3071442
   0.8758739  37.2238693  52.4909897   1.9625916  36.4104233  53.1605682
  45.9544563   5.9517426  65.3937607  46.4750290   5.4121275  64.7987366
  46.5588760   6.6318069  65.6911163  43.2417221  12.0473948   4.7927775
  42.9307137  12.4818125   3.9985561  43.5046997  11.1744995   4.5010095
  83.6534500  66.2940216  64.2183304  84.1904144  66.1198730  63.4453011
  83.4005585  67.2131805  64.1321640  37.8585854  64.3795013   1.2237118
  37.2997932  63.6662216   1.5322794  37.2561646  64.9874115   0.7950343
   9.9979439  25.9893761  85.4145355  10.4729433  26.5501156  86.0278702
  10.4950190  25.1714344  85.4035797  73.1893005  16.4945107  72.6198730
  72.9158936  15.6057091  72.3929062  73.9647980  16.6514606  72.0811691
  64.1195297  37.8754807  74.1236038  64.8433685  37.7295494  74.7326965
  63.4639854  37.2229233  74.3699036  55.4055023  67.9818878  83.6171951
  54.5197487  68.1813278  83.9203339  55.7076912  68.7936554  83.2098236
  86.3823242  29.0761089  46.9120140  87.3113861  28.9149513  46.7473984
  86.2530975  29.9947281  46.6760750  83.3114777  26.7246571  53.0020065
  82.9695282  27.6147003  52.9176140  82.9122086  26.2448654  52.2763214
  80.1590042  46.2912445  55.7233772  80.6991806  45.8471985  55.0697174
  79.9238052  45.6039124  56.3466644  56.9724464  11.5130739  45.5124512
  57.3152847  10.6483908  45.2865829  57.0230560  12.0113535  44.6967392
  25.2572975  38.7300987  65.8774490  25.2389011  37.7965126  66.0879440
  24.7966881  38.7961426  65.0409622  84.8098831  69.2943573  16.2636890
  85.5467377  69.6889572  16.7301350  84.3596191  68.7707062  16.9264698
  17.0578957  52.7953262  21.5239182  16.4961395  52.1496086  21.0953026
  17.2958546  52.3898888  22.3577232   3.3351686  64.1281662  24.2555370
   3.7507620  63.6775246  23.5203896   2.5774014  63.5848846  24.4720345
  67.7743988  58.8520126  46.5903244  67.5968018  58.7847672  47.5284958
  67.0382767  59.3555107  46.2426949   9.5206661  62.5065880  70.1181030
   8.9573746  61.7326927  70.1140060  10.2309761  62.2826424  70.7193832
   2.6754344  34.8669586  45.6383591   2.1070178  34.2814369  46.1386566
   2.6008098  34.5591507  44.7350807  39.4948997  63.8356171  87.5687866
  40.1871223  63.1885986  87.7045364  38.9471130  63.7679672  88.3508301
  26.2049332  47.9098358  10.8192062  25.7672501  47.1749458  10.3895521
  25.4932175  48.4186363  11.2075510  33.8298073  46.9955750  11.4770708
  33.7902985  47.3671722  12.3583117  33.0448265  46.4518166  11.4110098
   0.2848510  28.0329056  30.1037807   1.1289210  28.2146912  29.6905842
  -0.1856855  28.8655052  30.0637264   5.6915240  65.7364578  50.1549110
   5.2841778  66.4830093  50.5941772   6.0392284  66.0986023  49.3399353
  28.4021435  60.6380234  46.6627998  28.0264435  61.5167770  46.6091881
  27.7941113  60.0870972  46.1698380  47.2051430  31.4975586  11.9667721
  46.7069473  32.0680275  11.3814516  46.7859955  31.6055965  12.8205118
  54.3937492  46.6759644  22.3006840  53.6706543  46.9164581  22.8799286
  55.1386642  47.1823654  22.6245518  54.2660599  22.4125042  70.0033569
  54.3867874  21.6195641  69.4809570  55.0941200  22.5192928  70.4714890
  69.3625183  22.0728188  64.5299835  69.2245560  21.6112404  65.3571167
  68.5573654  22.5732937  64.3977966  76.7256622  29.4596367  76.9605103
  77.6291046  29.7559414  76.8499146  76.3228912  29.5937328  76.1025925
  21.6356277  41.2038345  15.2446995  22.1007004  41.8585167  15.7655935
  21.3993950  41.6628151  14.4386215  50.6339722  67.7477036  56.0683823
  50.1162415  66.9433441  56.1030045  51.3453064  67.5486679  55.4595985
  30.2423897  11.6657190  23.9919052  29.6350689  11.8053541  23.2653427
  30.7016926  12.5004654  24.0839481  57.2069016  30.5816727  63.1252251
  57.0300713  29.6411781  63.1043739  56.8727303  30.8694344  63.9747849
  47.0977173  27.1460857  45.1914673  46.9797058  26.3469677  45.7049980
  46.2116432  27.4888515  45.0747871   0.1352730  21.5554256  16.5467758
  -0.4504918  22.2984619  16.4018288   0.8079489  21.8925953  17.1384315
  42.1346283  10.5947657  82.6621170  42.4229126  10.9219866  83.5142059
  41.6926041  11.3404903  82.2562332  50.1411514  56.3050117  69.5965652
  50.6677933  56.8973274  70.1332550  49.2827988  56.2973442  70.0201263
  14.6455898  67.9946289  48.4252853  14.7221880  67.8795624  47.4781189
  14.3223839  67.1517487  48.7435951  10.7327528  17.8298187  69.6514206
  10.8897610  17.2747154  70.4152603  11.5830212  17.8827820  69.2149963
  68.1837158  63.9482460  10.4442654  67.3334274  64.3844147  10.4990139
  68.1960297  63.5562248   9.5711098  86.4380569  63.1441650  80.5427017
  86.0037918  62.3231888  80.7743149  86.1725998  63.7572327  81.2282028
  67.7005081  60.7118073  87.3682251  67.9581070  61.5426941  86.9688492
  67.9083481  60.0529823  86.7056656  73.8041306  17.5407295  51.5641518
  73.2641220  17.6698723  52.3438606  74.3792496  18.3055573  51.5417557
  66.4391785  41.5097923   3.4028068  66.1102371  42.2654762   2.9160089
  65.9821625  41.5486832   4.2429552  63.2892342  49.4625397  61.0955009
  63.1948700  48.5271454  60.9155998  63.5950508  49.5025063  62.0016518
  16.5972900  47.3065987  43.5667801  16.5161724  46.5128403  43.0380135
  16.4086189  48.0204735  42.9576645  75.7466431  64.4943695  87.5757217
  74.9355774  64.0832214  87.2767792  75.5245438  65.4205093  87.6714554
  62.3953438  20.8757038  42.0926590  63.0385857  20.8054390  42.7980194
  61.7535629  20.1920128  42.2847900  83.5045013  52.5684700  82.6146164
  82.8942795  53.0272102  82.0371857  84.3281937  52.5510178  82.1273270
  47.2988014  57.7025337  38.4953461  47.4141998  57.9587479  37.5803223
  48.1342049  57.3042831  38.7397385  53.2558861  52.2036171  33.0813866
  53.3638191  52.9215546  32.4575729  54.1396828  52.0354347  33.4082642
  63.6168900  25.3984051  82.5288925  63.4768143  25.4891834  81.5863571
  64.4443207  25.8508968  82.6927414  86.5747147  62.0849113   5.4167771
  87.0715561  62.8695602   5.1850476  85.8184662  62.4148865   5.9019971
  39.2400131  57.0322342  68.2550888  39.2913589  56.1272278  67.9475861
  40.0774040  57.4196434  68.0002823  14.7236376  59.6918106  62.1515999
  14.1422701  60.4475288  62.2360649  15.6022816  60.0691566  62.1088409
  50.5796471   2.9515498  33.0278854  50.9367790   2.3429244  33.6746216
  50.7744827   3.8191261  33.3822632  33.3203621  57.4805794  56.8261681
  32.9206085  56.9924889  57.5460281  32.6774483  57.4332886  56.1185989
  57.0649338  62.6016731  73.5283813  56.2341156  62.5223961  73.0596695
  57.3264236  63.5134430  73.3997955  29.5390625  23.2079830  83.0606079
  29.5872211  22.4499760  82.4780807  28.6584740  23.5581341  82.9257431
  60.7761955  40.2251892  20.1979504  60.6795349  40.2378998  19.2457275
  61.6341362  40.6187782  20.3568764  80.5900574   9.3978977  50.9183922
  81.3102188   9.9479523  51.2266884  79.9550400  10.0156460  50.5559464
   7.8202238  12.7650671  79.1059189   8.3461609  13.4591293  78.7085495
   7.2608371  12.4517260  78.3951874  36.4857025   9.5160265  16.6171494
  35.7561150   8.9718733  16.3207855  36.1196327  10.3988171  16.6710339
  63.1978874  47.9222641  26.2668171  62.3979073  48.2644844  25.8678818
  63.9010773  48.4416542  25.8769550  80.0679932  15.5922079   1.3093569
  79.8120499  15.2152252   0.4675687  79.5522690  16.3956089   1.3787193
   8.0127716  19.2552357  78.3243332   8.2003670  19.7688770  79.1099625
   8.1400471  18.3463650  78.5963440  78.0302887  21.6363583  80.6945496
  78.7600479  21.2739201  81.1968689  77.6121674  20.8735275  80.2951813
  19.0716724  52.1927834  33.5806656  19.7013550  52.5179520  32.9372406
  19.3704453  51.3057709  33.7811012  77.0004578   5.5349107  85.2737579
  76.8274002   5.3051243  84.3608017  76.8196259   4.7313385  85.7614136
  59.1559563  10.2321463  43.5117950  60.0875015  10.0218163  43.4468536
  58.9151382  10.5267677  42.6334801  38.1714821  36.6957893   7.9185057
  37.7674675  37.4412041   7.4742494  39.0054550  36.5703964   7.4657373
   0.7938588   4.5562286  51.3430481  -0.0239692   4.9994597  51.5687370
   0.7746117   4.4895806  50.3883667  69.5913620   6.1982551  61.3744965
  70.2721252   6.4496012  60.7502975  70.0694351   5.9738898  62.1728325
  46.3325348  51.1942101  27.3962688  46.3381996  50.4180717  26.8360806
  47.1613007  51.1513519  27.8732815  22.8245010  19.6464729   2.1833599
  22.3700733  20.3770390   1.7638365  22.4741974  19.6261654   3.0739257
  52.8782730   4.7396135  21.4234123  53.1822472   4.0038381  20.8919373
  53.5823250   5.3853345  21.3635216  50.8935852  38.8753700  22.6348057
  51.1981277  38.2448082  21.9822121  51.5898399  39.5308228  22.6777096
  67.4423218  63.3983345  59.3849258  66.8711090  64.1368790  59.5958633
  68.2301407  63.5479469  59.9076042  21.0189743  69.1589966  10.7451487
  21.0682831  69.9437485  10.1992922  20.0939770  69.0891876  10.9812336
  39.5010262   4.3714900  70.2236862  39.9894791   4.1827164  69.4224319
  38.8705177   3.6547585  70.2943115  67.2154770  65.9365463  45.8273239
  67.2606735  66.1648712  44.8988533  66.8256302  65.0624237  45.8403091
  79.4058075   7.4553471  60.3299522  79.7697678   8.2020960  59.8544235
  79.5300217   6.7120037  59.7398300  54.5387573  66.3169785  29.2635040
  53.8629990  66.7233200  29.8061543  54.5187950  66.8127365  28.4449348
  54.5380478  22.4812813  38.8718185  53.8976898  22.8452816  39.4831085
  54.1009598  22.5117092  38.0207825  47.5960159  66.7783127   8.6272831
  47.7960625  65.9230118   8.2469244  48.1614838  66.8361206   9.3974361
  42.4560547  17.3890038  21.7903461  42.0238380  16.5739651  21.5351315
  43.3903999  17.2053070  21.6929417  58.6145477  66.8645706  15.8923492
  59.3728027  66.2865677  15.8075228  57.8625832  66.3018570  15.7075825
  11.0794182  26.9012756   3.0159109  10.5855875  27.2963657   2.2973938
  11.9304428  26.6883106   2.6329811  60.0515633  44.4194565  51.9790039
  59.6927795  44.5230942  51.0976601  60.1417503  43.4731331  52.0911369
  39.9338455  51.3273392  21.0145779  40.2314911  52.1337204  20.5934048
  39.9849777  50.6644783  20.3259335  20.7353573  50.0812721  34.4316597
  20.7918835  49.1939583  34.7862129  21.2121239  50.6217346  35.0615997
  29.4777260  52.6637802  12.0578108  29.5277805  53.1637726  12.8725109
  28.5571842  52.7162666  11.8007517  64.5534363   7.3611116  32.0241585
  64.0336914   7.0092788  32.7468681  63.9389763   7.4172268  31.2923622
   5.6423726  62.5354729  53.3871078   5.7063861  63.2716370  53.9955444
   4.8440661  62.0769043  53.6491280  34.8089180  66.0623703   2.4522491
  35.0655632  66.5252838   3.2497938  34.1167641  65.4644928   2.7345443
  36.0286560  47.0745239  81.0082855  36.4631882  47.8645096  81.3297424
  36.3072548  47.0025558  80.0953522  84.6524582   6.9415870  59.7251663
  84.1184006   6.1486211  59.6780357  84.8558350   7.0384369  60.6554832
  15.3045206  37.7229958  32.5031166  15.6187801  38.3978996  33.1047630
  15.4518185  36.8997078  32.9686584  54.5813408  15.6794605  80.6146851
  55.1149139  15.2770100  81.2999268  53.7165604  15.7799911  81.0125275
  32.6373138  -0.0287094  83.5907822  32.8940010  -0.3259932  82.7178726
  31.9372196   0.6044289  83.4319229  39.4194756   2.8785090  61.1061211
  40.3602333   2.8314416  60.9358673  39.3353386   3.5217209  61.8099899
  71.9883270  19.9695568  78.7553482  71.0415955  19.8743668  78.8596191
  72.1806259  20.8419685  79.0990829  36.8646317  19.7194061  18.7168865
  36.7476349  18.7989769  18.4816170  37.4978828  19.7045593  19.4345226
   6.3989654  14.1486320   6.7496490   6.3944077  13.6687965   5.9214168
   5.4799557  14.1754360   7.0159845   4.3746772  16.1247501  80.5614471
   4.4501405  15.7385368  81.4340134   4.0826731  17.0222168  80.7211914
   9.9972458  40.0566597  10.5888319   9.6457748  39.1665459  10.5688972
   9.4186468  40.5556030  10.0121927  82.0503845  16.2275505  24.2027569
  82.9250031  16.0665817  23.8487034  81.9248734  17.1720257  24.1108437
  78.3727417  16.8422966  56.9434509  79.1820984  16.6450329  57.4149017
  78.4222946  16.3100586  56.1494102  62.7795601  18.2983971  15.9781122
  63.0770950  18.7994938  15.2187672  63.5717697  18.1551609  16.4959183
  12.5642023   5.3250670  47.2797852  13.1506643   5.8265548  47.8461800
  12.4618025   5.8693843  46.4991035  72.8467560  64.2185287  49.2347450
  72.4436798  63.6727142  48.5595741  73.7807846  64.0165024  49.1800041
   4.1399159  45.3474541  74.1356201   4.3142395  45.1198196  73.2223663
   3.3747559  44.8228683  74.3713608  60.3245697  43.9084358  20.5713501
  60.5399933  43.8163261  21.4994354  59.6508179  43.2467270  20.4150410
  16.0850048  49.6495667  46.3283882  15.5451031  48.8818626  46.1403122
  16.0962124  50.1414642  45.5073280  43.2783623  50.8535576  61.9470444
  44.1815147  50.7357597  62.2414360  42.8696632  49.9982491  62.0798874
  13.9114904   4.4930282  35.2575111  14.1996670   3.6411848  34.9295654
  14.6990366   4.8822308  35.6376762  12.0390253  40.2899208  65.9815445
  12.2647219  40.3056755  66.9116211  12.8831682  40.2802277  65.5303650
  56.6240654   8.8808260   0.9815258  57.2699776   9.0090399   0.2868382
  56.0837708   9.6705141   0.9549351  34.0274734  20.7622795  10.9864130
  33.6905708  20.1624126  10.3209162  34.5360680  21.4059658  10.4932280
  72.6994476  48.9002914  23.5867786  72.7273483  49.3430099  24.4349861
  73.5516663  48.4707947  23.5126362  20.2031498  68.0546570  58.6114845
  19.9718914  68.1485291  59.5355759  20.9473286  68.6442413  58.4897346
  57.6477928  61.7214127  87.1187286  57.5607147  62.5758209  86.6960831
  57.2737846  61.1040077  86.4901123  81.3677673  70.6763000   1.5725584
  81.4764175  69.7253799   1.5861213  80.4336777  70.8083496   1.4104335
  82.1666489  71.1574097  68.9836273  81.6106491  71.5069504  68.2872696
  82.0225067  70.2116165  68.9532013  30.4855022  51.0376015  76.8652725
  30.4494839  51.9477997  77.1593323  30.8783875  50.5643234  77.5986786
  33.4127922  65.6875153  45.1673431  32.4708824  65.6181183  45.0117035
  33.7042885  66.3757935  44.5694008  58.8832207  65.5338135  49.2424240
  58.9331932  66.2646637  49.8585281  58.3709488  64.8681717  49.7014771
  30.7667503  71.1640167  40.5127716  31.2843380  70.3597717  40.5518112
  31.2499428  71.7864227  41.0562477  59.3197289  35.5433502  86.3813324
  59.9326668  35.1642647  87.0112762  58.7612076  36.1169395  86.9060059
  56.8079491   5.3515434  38.7591896  57.4272308   6.0813928  38.7658043
  56.7426376   5.0845342  39.6760712  50.9288559  41.6864433   1.8936424
  50.8775177  40.7367058   2.0013506  50.9346504  42.0288925   2.7874694
  49.2273254  19.6494217  68.8900528  49.0187378  20.2267151  69.6245270
  49.6105499  20.2287140  68.2314224  58.9040184  48.3174896  48.6306114
  59.1303291  47.3897972  48.6969261  58.5722008  48.4199104  47.7386246
  14.3329134  44.9952507  68.0293961  14.2706356  44.6678658  67.1320877
  14.8313580  45.8088951  67.9534378  72.0670471  34.3416748   5.5673547
  72.4369659  35.1404533   5.1914024  72.4493027  33.6336250   5.0489149
  11.3601408  10.0854998  82.5858307  11.6860256  10.9013472  82.2058029
  10.5107193  10.3183765  82.9606400  36.9650803  11.5949163  80.7193222
  36.7939682  12.5019865  80.4659882  37.2957573  11.6548586  81.6155853
  15.9290848  49.1431770  78.2354965  15.9097319  49.1036110  79.1916809
  15.2297573  48.5518417  77.9571075  80.4474411  26.5997162  14.9296360
  79.7187042  26.0070000  15.1136570  80.5861359  26.5229111  13.9856567
  23.3969555  44.0332146  37.9826736  22.8712521  43.7403908  38.7270660
  23.0535793  44.9019814  37.7739410  56.3908272  15.2257586  86.9608154
  57.0204582  14.8221931  87.5582581  56.8372307  16.0070324  86.6343689
  36.6925697  24.4987011  72.8382874  36.8009644  24.9106236  71.9810791
  35.8123932  24.7521954  73.1162567  68.3376007  66.3427429  82.9936600
  68.1299057  65.4971695  82.5960464  67.6121597  66.5090179  83.5955887
   7.6626048  46.3763809  59.0633583   7.2607541  47.0978432  59.5473404
   8.4945450  46.7317848  58.7506294  41.9221420  35.5388947  18.9190006
  41.3353157  35.6496620  18.1709404  42.2883759  36.4107437  19.0672741
  82.2834625  40.7900734  78.8194656  81.6992874  40.8967361  78.0687332
  82.1976624  39.8677139  79.0605621  87.0311737  39.3957253  68.8261414
  87.0836716  38.7536964  68.1181412  86.1137848  39.6687698  68.8343353
   4.8677430  50.5601006  49.9184113   5.6297827  50.1073456  50.2797127
   4.4386172  49.9049911  49.3680344  26.9895573  64.4542618  67.0642242
  27.9239159  64.6158752  66.9335175  26.8585205  64.5557556  68.0069656
  70.1471405  58.7647476  11.8961010  69.5898285  58.0649490  12.2365723
  69.5671234  59.5235863  11.8330288  47.3843803  18.1639309  78.2717133
  47.0735703  17.2586479  78.2621384  46.6129379  18.6844082  78.0476227
  57.7168617  46.5302467  86.5813141  57.7670670  47.3886452  86.1607666
  58.1639557  45.9398918  85.9748230  12.5683708   7.0637693  68.9727325
  12.2428312   7.5463028  69.7326126  13.4967527   6.9227209  69.1583252
   4.1944823  54.3121872  43.9643364   3.9734788  54.1711998  44.8849411
   4.3564672  53.4339943  43.6197014   2.0707114  48.2545586  64.8099594
   1.7406623  48.4344788  65.6902618   2.9469292  47.8960991  64.9513092
   7.7017856  55.8066177  50.9068222   8.4137306  55.1761513  51.0158081
   7.5573668  55.8437195  49.9613075  71.9552078  11.0382366   2.9872229
  71.0535583  11.3165989   2.8267007  72.2773361  11.6433201   3.6553087
  51.6770592  36.1701927   2.1803770  52.1908150  36.3448868   1.3918517
  50.7667427  36.2537537   1.8965300  77.8587036  57.7476349   8.7016954
  76.9747772  57.4225807   8.8727169  78.2821121  57.7532158   9.5601406
   9.4392920  48.8896065  71.3630066   8.9251976  48.0875664  71.2698746
  10.3449316  48.5871201  71.4304581  67.3384705  58.8846245  32.8328094
  66.6466064  58.2866516  32.5499954  66.8837585  59.5496407  33.3497429
  76.0941010  33.4880600  38.8272247  75.3018188  33.0089874  39.0701408
  75.7942810  34.1425819  38.1963959  83.8122406  20.4713345  47.5267448
  83.9738464  21.3216667  47.9354630  83.9882050  20.6152020  46.5969238
  13.2952967  59.1895599   2.9658418  12.7554445  59.6583023   2.3293881
  14.1020327  59.7019730   3.0191560  34.5212173  15.5053110  17.5802078
  34.7909775  14.7578096  18.1137848  34.3264694  15.1290445  16.7218781
   5.9569092  40.1366501  21.4889164   5.2231374  40.2525940  22.0925446
   6.6700912  39.8117027  22.0384731  70.2070236   5.9373174  10.9236059
  70.6445160   6.0546193  10.0803547  70.8576050   5.4989033  11.4720297
  44.7252274  62.5889969  23.6179943  45.2826767  62.4043770  22.8620872
  43.9155579  62.1100464  23.4411678  73.7881927  27.7434387  21.2177963
  74.5389099  27.1544018  21.1423817  73.3718567  27.7123184  20.3564415
  83.3938675  69.9714508  44.1437607  82.9226837  69.2044754  43.8182373
  83.8959732  70.2817307  43.3902054  69.8858948  47.0529556  16.8510265
  69.5507889  47.1844215  17.7379608  70.8173599  47.2645035  16.9131145
  75.9953613   6.8465538  30.8162041  76.6543884   6.1719961  30.9801559
  76.2241364   7.5559106  31.4167900  24.3467751  10.2614613  78.1359787
  23.9386120   9.3959417  78.1585541  24.7359543  10.3200550  77.2634354
  39.4385452  40.1154861  38.8003311  39.8447151  40.2091141  39.6620064
  38.5093193  39.9813766  38.9868507  41.6637726  56.1889725  79.4470367
  40.8170662  55.9177780  79.8016815  42.2641029  56.1321487  80.1904144
   1.6598541  32.4847679  83.3071976   1.8502958  33.3606987  83.6429214
   2.4506159  32.2341728  82.8295670   8.4434633  34.3277588  69.0891037
   8.3552065  34.2888832  70.0414352   7.5484152  34.2384567  68.7617722
  28.9379082  56.1894264  50.1312790  29.5715370  56.2308311  49.4150162
  28.1499271  56.6024971  49.7781601  56.8635063  65.3681870  41.6443481
  57.2130890  66.2412720  41.8224945  57.1939240  64.8269958  42.3614044
   3.9307022  40.6802177  23.4940891   3.8026400  39.9180679  24.0588551
   4.3472219  41.3303070  24.0598869  48.6483917  64.9607620  40.3168526
  48.7105904  64.0936050  39.9163399  48.4067993  64.7875671  41.2267265
   8.4336271  23.6225014  73.1594467   8.0670338  22.7750568  73.4117889
   8.3991442  24.1462955  73.9598694  50.4748650  27.9171524   8.6709566
  50.2075996  28.1026630   9.5711718  49.7891884  27.3421307   8.3312092
  20.7503624  57.6254463  88.4468842  21.3661194  58.3081894  88.1805496
  21.1054745  56.8214760  88.0677338   8.7139740   8.3321686   8.0769606
   8.7014046   9.1052055   7.5126123   9.6431255   8.1692324   8.2393179
  43.4781952  66.1141205   7.0714679  43.0257835  66.2380676   7.9058499
  43.4476051  66.9741516   6.6523614  77.1151123  55.9860916   2.1923206
  77.9621582  56.3690605   2.4205439  76.6097107  56.0213127   3.0044532
  76.0858231   4.3298540  33.0264816  76.7425461   4.2955360  32.3309441
  76.2319336   5.1745434  33.4523773  19.5253429  13.2152557   7.9712481
  18.7274227  13.6489801   7.6688638  20.0130081  13.9014482   8.4268293
  74.9372406  71.3050079  41.4265594  74.9487000  70.3850174  41.6906204
  75.2639465  71.7779617  42.1919403   4.4891086  66.4402237  75.6552887
   4.3097653  66.3818054  74.7168503   3.6479859  66.6777954  76.0455475
  43.4242935  57.3043365  10.3716583  43.5134468  56.4874878  10.8626223
  42.8567200  57.0798607   9.6342945  75.4260483  48.9305496  56.3559036
  75.4031448  47.9738541  56.3348465  76.3513260  49.1454315  56.4739304
  10.3583622  24.3339710   2.3739231   9.5963259  24.5434704   1.8338833
  10.5134525  25.1268921   2.8872030  10.3304634  68.4411774  82.7179413
  10.8030224  69.0443497  82.1442642   9.5306625  68.9114838  82.9532318
  50.6829910  20.7627411  45.0060768  49.8522758  20.7738667  44.5306664
  51.3418159  20.9651699  44.3418465  65.9990158  11.7130108  77.6254730
  65.4649734  11.0017271  77.2717667  65.3904877  12.4460096  77.7184067
   0.4256034  56.9727592  39.8350639   1.2103302  56.5052032  40.1211166
  -0.2488853  56.2959938  39.7777405  64.0224304  40.4565125  30.4653740
  64.2891006  39.7769394  31.0844860  64.8395844  40.8895035  30.2183704
  74.4601593  18.5754757  11.7123137  74.0925903  18.9286861  10.9021492
  74.2154846  17.6501217  11.7028732  77.3713837  10.9101419  46.2682610
  76.5290146  10.4558535  46.2519035  77.9337845  10.3927116  45.6918907
  33.8360405  46.5190735  77.6569366  34.6867752  46.8323517  77.9640961
  34.0405884  45.9829979  76.8907700  41.2530785  48.1524429  30.2952480
  40.5192909  48.0528488  29.6887264  41.3086090  49.0952110  30.4512539
  62.4989471  18.2894878  49.4998360  62.8988228  17.9301243  50.2917900
  61.5748177  18.0495892  49.5681038  53.4055099   9.2907372  56.6243973
  53.0446777   8.4044704  56.6007195  52.8438721   9.7616358  57.2400665
  33.2553673  53.9648247   8.2803698  32.4268570  54.1663094   8.7153521
  33.2497139  54.5068817   7.4914622  56.3727608  34.9361839  39.6162872
  55.6417999  34.4322433  39.9740219  56.1572952  35.8467674  39.8179016
   0.5822838  58.4885139  42.4233055   0.5824170  59.1829071  43.0821266
   0.7976947  57.6943512  42.9123192  20.2636719   7.1326141  82.2669601
  21.2027340   7.0755148  82.0905151  20.1495647   6.6832519  83.1043930
  43.0123787   5.4277306   6.4646115  42.3065948   5.2156005   7.0754323
  43.3330116   6.2812104   6.7561593  48.5517082  11.7841921  64.3697968
  48.9953384  12.4704704  64.8682404  48.0624046  11.2891779  65.0268936
  53.6240120  25.6953659  33.1221809  54.3120842  25.9278088  32.4986763
  53.7580223  24.7625713  33.2900162  85.0838242  67.2347794  58.1703072
  84.2599030  66.7664413  58.0359726  85.3957825  66.9309921  59.0227356
  44.4715729  42.4143677  16.6567287  43.9670639  41.8512268  16.0697231
  45.2489967  42.6518402  16.1513062  45.4890747  70.6272583  80.5628128
  45.2040787  71.3091202  81.1711426  44.6992302  70.1147919  80.3903198
  72.1533279  69.2152939  17.1021957  72.5612335  68.4732590  16.6558514
  71.5385590  69.5719681  16.4610462   1.8848826  33.9998283  23.7364731
   2.8220637  34.1883278  23.7853775   1.7167344  33.8614159  22.8043785
  21.4193325   0.6223620  43.6187172  20.9041309   1.4187127  43.7476540
  21.6804504   0.3604573  44.5015831  59.9805374  64.6929779  12.6996546
  59.2106514  65.2606812  12.6646795  59.6836319  63.8634415  12.3255548
  75.1169891   8.2807560  42.0576324  75.3225098   8.9884462  42.6685066
  75.5147095   8.5546865  41.2311859  66.6047745  35.9127312  38.1168861
  66.8342819  35.2311287  38.7485313  67.3646774  35.9680214  37.5374756
  38.8555489  50.2522736   8.1367540  39.3468361  50.2615433   8.9582062
  38.2628860  49.5053062   8.2205439  80.9479446  69.3754501  15.6560802
  80.4816360  69.4370041  16.4897480  80.3075409  69.6556854  15.0021820
  79.5546646  42.7590446  83.7708817  80.3971634  42.3093071  83.7063370
  79.5100021  43.2984505  82.9813995  72.0311432  15.4339924  77.4065552
  72.3488388  16.0695419  76.7651672  72.3760605  14.5943384  77.1028366
  49.5924110  11.0148182  10.5262661  50.0708504  10.3057528  10.9558659
  49.3677177  10.6643267   9.6643496   8.4325781  70.9427567   8.4454317
   8.6766024  70.5907364   7.5894122   8.8834457  71.7856522   8.4951630
   9.9814568  64.7768784  33.6265793  10.7152433  65.0906754  33.0980721
   9.4651680  65.5618515  33.8096123   7.8979506  50.9134293  86.5393372
   8.5330133  51.2364731  87.1785355   7.7111125  51.6702156  85.9838257
   1.2382485  56.8916283  16.6321602   1.9753809  56.7390976  17.2234325
   1.1681851  56.0838699  16.1233883  43.8895226   2.6660864  73.0526657
  43.2431641   1.9642088  73.1289673  43.4057617   3.4621561  73.2728500
  67.5821381  21.3409252  76.2087555  68.2563553  20.8630276  75.7257767
  66.9035950  20.6883678  76.3819046  75.7033615  17.7185440  75.5278931
  75.9504776  17.0649624  76.1821136  74.8990326  18.1082268  75.8705750
  86.0627289  43.5983315   6.3740716  86.1729355  44.4618950   6.7719965
  85.3391418  43.2016640   6.8591633   5.0438948  34.6339989   0.5030405
   5.6926975  34.3232574   1.1344892   4.2121711  34.5946388   0.9751824
   7.6033869  15.6742172  37.0265656   8.2193480  15.2787962  36.4097443
   7.1671414  14.9293165  37.4401398  -0.1687932  46.8798218  77.8358612
  -0.1874157  45.9672928  77.5474625   0.7066451  46.9965515  78.2049332
  75.2096710  52.9127731  57.4946175  76.1566315  52.8124619  57.5917435
  74.8543472  52.6724434  58.3503151  22.3958340   5.6415710  87.5143585
  23.0546341   5.0584970  87.8915024  22.8327827   6.0424290  86.7629471
  26.4302731  50.1659126  39.8954353  26.2126484  49.9951553  40.8117943
  26.8360672  51.0328026  39.9031601  33.1315918  41.2050018  68.3855667
  34.0133591  40.8777428  68.5633850  32.7503738  40.5566750  67.7934723
  66.4588089  71.5360184  49.1661263  65.5393753  71.7425690  49.3340988
  66.4947891  71.3490906  48.2280426  19.5824776  30.7431755  76.1462326
  20.3105774  31.1178551  75.6505356  18.8583603  30.7113094  75.5210419
  35.0471725   5.6285429  50.3117981  34.2724495   5.1279931  50.5676956
  34.8276100   5.9866848  49.4517059  65.3873596  13.2967024  16.5716572
  64.5752029  13.2745075  16.0655518  65.1323395  13.6645689  17.4177494
  11.1769953  42.0895691  87.2447281  10.5350313  41.3933792  87.3841248
  11.2670498  42.1453514  86.2934036  62.0022545  57.4906998  65.7896576
  61.5247612  57.0440216  65.0905762  62.0153275  56.8613815  66.5107803
  61.0588455  27.7829227  64.8697433  60.8147621  27.5964947  63.9631577
  61.5218697  28.6195354  64.8259277  84.6009750  37.3719368  80.5187073
  83.9008255  38.0179138  80.4252625  85.2567062  37.6342926  79.8726196
  13.9801588  43.8043785   8.8603144  13.4658480  44.0947151   8.1070404
  13.3301907  43.4782906   9.4827595   1.4579357  69.6478195  63.7446022
   1.9598538  69.3800430  62.9747925   2.0768006  69.5751190  64.4712067
  47.6380768   3.1508677  56.5730782  48.1629219   2.4774342  57.0058136
  46.8226433   2.7065885  56.3408852  79.9226379  32.0408516  53.7297821
  79.2264404  31.4017277  53.5779381  80.6324692  31.7639980  53.1503639
  60.5547447  13.3193760  24.9678078  60.3102646  12.6296873  24.3507252
  61.3334808  13.7207584  24.5821991   8.7989464  50.3567543  64.7552109
   8.5893164  50.4135818  63.8229790   8.3108253  49.5936165  65.0643845
   2.5891633  50.6780586   4.5837293   1.9180410  51.3419533   4.7420630
   3.3586886  51.1763039   4.3083825  56.4042397  49.5778999  43.1635399
  56.6728287  48.6770554  43.3440132  55.4481010  49.5418968  43.1364632
  22.6093025   6.8251462  11.9805450  23.2878437   6.9792509  11.3232298
  23.0896149   6.5433717  12.7590914   2.0607913  15.6499557  68.5563354
   2.6891189  15.4179554  67.8725128   1.3300505  15.0457716  68.4251404
  79.9764633  47.4633026  73.1162033  79.4883041  47.4436226  72.2930679
  79.3568878  47.8182640  73.7536697  75.9222412  42.9902000  55.5266685
  75.4766235  43.7711143  55.8550339  76.5418625  42.7591934  56.2187271
  34.8689308  43.0176163  78.9051895  34.0974998  43.1608124  78.3568954
  35.6023407  43.3227730  78.3711319  76.9123611  46.5057793  65.3612289
  76.2575150  46.8069839  64.7313995  77.7427750  46.8389435  65.0211563
  82.8642426  33.9464951  42.9883003  83.1271973  33.3170624  42.3168106
  83.5549469  33.8944931  43.6489487  62.7267342  64.8071976  33.2210083
  61.7918816  64.7467575  33.0244598  62.7638397  64.9516678  34.1665154
  86.2759247  14.1919622  41.1126137  87.1894913  14.4365854  40.9650078
  85.7780457  14.9775105  40.8862000  71.0593948  10.2670326  75.8704147
  70.5351562  10.5125608  76.6327286  71.8826904   9.9467764  76.2389908
  76.3634491  25.8268681  66.5101318  76.5370865  26.3775139  65.7466736
  75.4112015  25.8436489  66.6059494  66.5959015  61.4266281  52.3941383
  66.5972977  62.2335701  52.9089928  65.6822433  61.3104172  52.1334610
   7.5809884  50.9181290  69.9340286   8.0267897  50.2590446  70.4661026
   8.0486841  50.9081573  69.0989304  35.5664673  44.4109459  47.6105995
  36.1649055  43.7495422  47.2632523  35.6788063  45.1639214  47.0303955
  48.2797966  43.9338341  35.0732727  48.8736343  44.0447235  35.8157616
  48.2917137  42.9933739  34.8954239  85.7068634  61.6953926  64.8519211
  84.9733276  61.9653625  65.4044418  86.2055969  61.0864754  65.3966370
   2.9724593  51.6293297  12.9579811   2.7358506  52.1231537  12.1728773
   3.9195116  51.7439308  13.0366611  56.2737617  23.8020039  15.2170191
  55.6944427  23.6352787  14.4734993  56.8663902  24.4880295  14.9097795
  53.3913002  67.0183640  80.7778702  52.6597443  66.9755249  80.1620636
  53.5780792  66.1042786  80.9918671  47.0122299  51.6496620  32.2903023
  47.1873627  52.4944382  32.7049255  46.1442871  51.4018517  32.6088829
  64.4680634  45.2672958  37.0784569  64.3625107  44.5148735  36.4962616
  64.5121460  46.0210457  36.4901123  32.2580032   2.3531873  19.7427864
  31.5354328   2.9754024  19.6592808  32.4508133   2.3344419  20.6801796
   0.5056198  27.9618168  87.1223373   0.1814455  28.5067215  86.4052429
   0.9961428  28.5661278  87.6794968  85.0222626  62.2166939  42.9137344
  84.1135178  62.5143318  42.9564171  85.0846710  61.7570419  42.0764427
  50.5286026  63.6591530  16.6284542  50.4491615  63.2538986  17.4919872
  49.8030434  63.2916412  16.1237431  54.6002731  68.5916672  52.7967834
  54.7423248  68.6608505  53.7408524  54.3483887  67.6785736  52.6587563
  46.3519897  25.7796192  71.4470062  46.5606842  25.3785133  72.2906876
  46.3211975  25.0452976  70.8337708  60.1829529  32.2104988  75.7461243
  59.9781303  32.0758972  74.8208313  59.4640656  32.7505226  76.0744629
  53.3938789   6.6054468  67.6530762  54.1123619   6.6162705  67.0207062
  53.8206367   6.7182770  68.5024185  52.3650742  24.7524853  81.3379898
  52.9328041  24.2676907  80.7389145  52.0709801  25.5086327  80.8300705
   3.8434486  43.8007202  55.9859276   3.0371127  44.3139038  56.0378609
   3.5558033  42.8925591  56.0793953  46.7387581  22.3846588   5.1398687
  46.7866783  22.0363617   4.2495742  46.9665337  21.6425934   5.6999478
  53.1722183  63.9879684  16.0766220  52.2214699  63.9400902  16.1767063
  53.4888878  64.2770462  16.9324169  67.3490372  19.8046284  34.5928268
  67.0407104  20.5025673  35.1707954  67.4774475  19.0533447  35.1718903
  71.5998535  16.4194469  40.3697319  71.1503830  15.5776243  40.2952728
  70.9815216  17.0539761  40.0074272   6.8125467  29.0438709   8.7692671
   6.8201938  29.9926720   8.8955641   7.6938052  28.7624226   9.0150337
  57.6818085  67.7691727  67.5723267  58.1555748  68.5067062  67.9568100
  56.7663918  67.9254150  67.8043365  76.7664108  22.6873512  43.7286224
  76.3724747  22.3282280  42.9335861  77.0391693  23.5712585  43.4825668
  41.8758011  66.5768433   1.9507307  41.2919273  66.7291260   1.2076727
  41.5320396  67.1394196   2.6446815  81.1332169  28.0155640  51.8110809
  80.2547684  27.6892281  51.6159744  81.6467896  27.8012695  51.0322685
  55.7293205  64.9844208  83.1178970  55.5360641  65.7551422  83.6516266
  55.7802467  64.2643890  83.7465363  84.8996429  64.0942459  76.4717560
  85.5925369  63.4787941  76.7112350  85.2404480  64.9507599  76.7295685
  58.5214195  43.6175270  69.5119171  59.2854271  44.1873970  69.6000824
  57.9798241  43.8234558  70.2738266  41.1638260  60.6824837  35.5255699
  41.2386665  59.7506866  35.3196945  40.9476242  60.7051964  36.4577599
  13.9228210   5.3029695  79.5979004  13.1496048   5.8436203  79.7593536
  14.5932741   5.9232669  79.3116226   9.3256235  11.9881353  68.0951538
   9.0370932  11.2836637  68.6754150  10.2424517  12.1314459  68.3299332
  13.0258207  13.4497242  79.7118759  12.2678890  12.8706274  79.7919998
  13.7514277  12.8654938  79.4918747   2.6225674  49.6611710   9.6322517
   2.2575612  48.9285164   9.1360426   3.5093949  49.3798676   9.8572788
  37.7784424  64.6382599  13.8720140  37.7080421  64.5776596  12.9193316
  37.0907784  64.0589828  14.2003222   9.4848099  21.2207699  30.7340508
   9.2393055  20.8091640  31.5626297   9.6127958  20.4882145  30.1313782
  54.6125946  16.8705292  88.5749664  53.6825447  17.0967522  88.5673981
  54.7749290  16.4955196  87.7093811  45.8945389  58.4288025  85.9000854
  46.4217033  58.3346558  86.6934738  45.6018448  57.5396652  85.7000885
   9.1535797  51.6044617  55.1176682   8.6995220  52.3065186  55.5836906
   9.1753187  50.8782730  55.7408905   6.4924612  19.7213898  29.7909241
   6.9730353  19.1490192  29.1928673   5.9547663  20.2685966  29.2184906
  20.4773979  15.2538805  88.2704086  19.7013340  15.7691593  88.0503082
  20.9305916  15.7747164  88.9334183  68.6871338  25.9061565  56.1428719
  69.2966309  25.2067814  56.3787079  69.2485046  26.6529865  55.9346848
  59.1964149  70.6940994  38.7308388  59.4307327  71.0509338  37.8741035
  58.3276787  70.3133240  38.6022415  50.1903648  20.5165329  22.5071507
  49.7385406  19.7863941  22.9302139  50.0022697  21.2706547  23.0658550
  32.0375023  10.6897707  13.8767147  32.2062035  10.8049736  12.9415674
  31.4606628  11.4179325  14.1075153  46.9429245  65.3403244  12.4095650
  47.6796608  65.9512482  12.3942814  46.4831505  65.4988937  11.5851269
  36.9243355   1.3573432  45.0916977  37.0329094   1.3215280  46.0420456
  36.9350243   0.4411579  44.8147087  55.2259140  44.8373756   4.6435790
  54.4752693  44.9105568   5.2329965  55.0881119  45.5263901   3.9935791
  10.4492884  14.4609709  87.4989014   9.6007566  14.4667902  87.0559616
  10.8908424  15.2484818  87.1809540  50.3811951  11.8836966  89.2767868
  51.2000694  11.9762678  88.7898483  49.9784775  12.7510624  89.2352524
  64.4041519  12.4204845  50.5590744  64.9100266  12.3818645  51.3707581
  63.7052765  11.7779961  50.6816216  52.1711655   3.1455064  35.5084915
  52.9648972   3.4235101  35.9655876  52.1629028   2.1927958  35.6007195
  44.8339615  47.4921570  66.3119965  44.6870689  47.9462128  67.1417542
  44.8704300  46.5655365  66.5492172  67.7901611  21.1236191  55.0403404
  67.1727219  20.9837780  54.3223953  68.2919540  21.8953133  54.7778130
  58.0726013  71.0608292  54.8117485  58.7469978  70.4681778  55.1436844
  57.6813316  71.4425354  55.5975266  39.5682755  51.5526848  13.7099829
  39.7137260  51.9589767  14.5643845  40.3860931  51.0924721  13.5212746
  39.8853035  44.0707779  19.3919926  40.3273163  44.1821938  20.2336826
  39.7260628  43.1290970  19.3278885  18.0525112  16.1945705  87.3793793
  17.7303696  15.6919708  86.6311493  18.5429459  16.9178581  86.9887848
  14.2376890  48.9833717  12.1520653  13.7026749  48.1912155  12.1022758
  14.6240425  48.9568291  13.0274267  79.7797775  65.3446045  62.1547356
  79.9851608  65.7587280  62.9929199  79.6003494  66.0759583  61.5638390
  46.7568893  12.2689857  27.2206173  46.1876602  12.9753084  27.5260983
  46.9559326  11.7638645  28.0089493  35.9368973  22.9788475  82.0289841
  35.8199158  23.5439873  81.2653351  35.5857697  22.1313229  81.7557831
  30.9801254  43.4846344  72.2585983  31.7100277  42.8660507  72.2874298
  31.3404617  44.2604179  71.8290100  83.1114426  69.0406723  64.1974030
  82.7753067  69.1101379  65.0909424  83.9445190  69.5116348  64.2175980
  56.5081902  40.5996094   6.0424566  56.6082230  41.3036766   6.6831689
  55.6816292  40.7936592   5.6004457  78.7351074  10.6119184  39.5051918
  79.6081009  10.3440971  39.2181702  78.7825699  11.5665045  39.5575790
  18.9158115  53.9508286  69.8112869  18.1034546  54.4485054  69.7184296
  18.6486740  53.1320534  70.2289886  29.1316185  29.9686356  85.0087738
  28.4249878  30.0599957  84.3695908  29.8512421  29.5747452  84.5155945
  60.2893639  48.9407005  71.5906754  60.7549744  49.3596230  72.3145142
  59.3762436  49.2017555  71.7102203   4.0145478  24.2625294  11.3473997
   3.5493138  23.4352245  11.4713154   4.6577787  24.0755119  10.6636524
  16.3892002  14.1496449  76.7538376  15.8364687  14.5918007  77.3982086
  17.2687187  14.1821737  77.1301575   1.5566753  17.0116253   5.0758171
   1.4677110  17.9244900   5.3496695   0.7790971  16.5789089   5.4284654
  27.5555115  59.9731789  86.5554123  27.7982712  59.0930710  86.2678223
  28.1129570  60.5559273  86.0397644  73.7512054  29.3326149  39.8788986
  73.1192245  29.9775372  40.1965561  74.1297150  29.7334595  39.0964127
  73.5732956  65.3366776  28.2468796  73.5130234  66.2451248  27.9513569
  73.7824554  64.8407059  27.4553642  19.8409252   0.8289106   7.4666638
  18.9818363   1.2120608   7.6438460  19.6545067   0.0649379   6.9209294
  44.9925880  61.3572578  12.6147680  44.6773720  62.2208290  12.8814440
  45.8667984  61.5202446  12.2606192  51.9316254  60.0356331  68.9299622
  51.6749954  59.5823746  69.7330399  52.5364342  59.4327850  68.4975128
  20.5728168  61.9240952  33.5008736  20.4188843  61.5284767  34.3587914
  19.9690781  61.4676819  32.9148521  36.7173042  60.8940163  59.8837357
  36.8837662  60.6629906  60.7975998  37.4609489  60.5280533  59.4048920
  36.4447899   5.7389784   8.7842436  36.8730392   6.4796138   8.3549519
  36.6442070   4.9891849   8.2236423  80.8744431  33.0583801  72.2132111
  80.7907944  32.1641808  72.5443420  80.4520035  33.0363121  71.3545532
  51.3206825  42.9697533  88.3977127  51.4001350  42.0184326  88.3276749
  51.2597961  43.1364174  89.3383179  83.1859436  31.9066944  48.8930321
  82.6456757  31.1204872  48.8141289  82.6562042  32.5100174  49.4141960
  31.2605247  71.5330887  75.6354599  31.3371525  70.6104202  75.8784256
  31.9643574  71.9670105  76.1177139  72.5968704  30.9516010  20.9281445
  73.4813919  30.7350636  20.6332493  72.6522675  31.8680687  21.1987896
   6.2492323  57.5720253  74.2182617   5.8864980  58.4152756  74.4895325
   5.6638536  56.9228592  74.6083145  43.3137589  62.2619591  52.0988426
  43.9259529  62.1657906  52.8283653  42.8333511  61.4342918  52.0786209
  25.6960316  58.7932549  48.8525429  25.4846287  58.0150223  49.3681908
  25.7160702  59.5057373  49.4914474  59.5503769  23.8023624   3.4136136
  59.3771133  23.3026505   4.2114224  58.6842690  24.0679951   3.1045351
  30.1167488  42.3118553  21.3510590  29.4644470  42.9559250  21.6265697
  29.7909489  41.4794731  21.6934471  53.7283096  18.8689175  53.9389153
  53.2870102  18.5481453  53.1524086  54.4784164  18.2843761  54.0479317
  35.9755096  61.3854713  55.5874939  36.5371513  61.9144478  56.1540413
  35.9537697  60.5255203  56.0073051  33.1325493  14.0588913  11.3318605
  33.6316299  13.4598980  11.8871565  33.7844925  14.4389248  10.7429867
  61.4309731  53.7264595  56.2274094  61.8929901  54.3290596  56.8101997
  60.7369194  53.3528900  56.7705193  57.2703476  41.1830025  68.9658813
  57.6519470  41.2991028  68.0957489  57.7792969  41.7650070  69.5302124
  34.8803253  68.0380630   4.7126169  34.4680214  68.6790085   4.1334534
  35.7794228  68.3504105   4.8140688  75.5554962  44.4798126  69.2469711
  75.9477463  45.2942200  68.9321594  76.1913605  44.1342201  69.8734512
  73.1082306  50.6369858  36.7504692  73.9240646  51.1371994  36.7297440
  72.8840256  50.5828171  37.6794662  73.8685913  67.8789062  45.4711304
  73.9277725  68.5494537  44.7906227  73.9602051  68.3622284  46.2922478
  36.6859627  69.6848068  52.7942200  36.0954475  69.3592606  53.4735870
  37.5441628  69.3364029  53.0357590  49.9928970   7.2507858  11.5573311
  49.8313484   6.7372956  12.3488245  50.4023895   8.0560598  11.8736858
   0.3702977  59.5543633  15.9341450  -0.0869048  59.8445053  16.7234573
   0.5153732  58.6182899  16.0718117  66.6921158  60.8581924  16.9982758
  66.0365677  60.3543091  16.5160065  67.2870941  60.1983147  17.3543530
  63.7672501  40.7746353  74.2906876  63.5091248  40.1418571  74.9609070
  64.6245575  40.4710655  73.9921799  35.7224846  53.4640198  15.7142916
  35.3166656  54.0537682  15.0788851  36.4987946  53.9353104  16.0167179
   6.5238400  67.9609070  77.1159897   7.3097014  67.7073212  76.6318970
   5.8022399  67.5714951  76.6221466  66.4478149  40.7728500  73.8423462
  67.2363586  40.3608437  74.1954498  66.5883408  41.7105675  73.9733887
  48.2185211  36.8663521  81.3301849  47.7211571  37.1030884  80.5473557
  47.5549164  36.7547607  82.0109177  66.5557404  22.9091988  86.4625092
  65.8910751  23.5650959  86.2521667  66.9082947  23.1879559  87.3076324
  80.4661560  28.1347961  56.0474815  80.8685608  28.6825275  56.7214928
  81.0799561  27.4097443  55.9300919  10.3167877  71.6485367  72.7923813
   9.4418087  72.0061569  72.9432144  10.2316494  70.7158279  72.9899826
  68.6170654  49.8065262  40.0471001  69.0066757  48.9500580  40.2228508
  68.6158524  50.2479439  40.8964424   2.7124910  54.4812927   3.9866793
   2.6752689  53.7111053   3.4195304   3.6281514  54.5328560   4.2607937
  48.8507347  32.2692795  38.2571564  49.7979813  32.2958946  38.3922272
  48.6921844  32.8932419  37.5488014  17.3329449  44.6781578  15.9397564
  17.5377045  43.7942734  15.6347141  17.0814896  45.1527290  15.1474276
  51.4379272  11.1986561  80.0743561  51.7192307  11.2141933  79.1595612
  50.5202179  10.9289570  80.0381927  71.8075409  17.9162731  23.7201633
  71.8471985  18.6230049  23.0758114  70.9134750  17.5810184  23.6532307
  49.9443703  58.9552040  32.8723526  50.0998421  58.8696365  31.9317455
  49.1072273  59.4149628  32.9358940  27.7054729  42.7860947  24.9081802
  27.8878040  43.1392746  24.0374050  28.5192966  42.3533440  25.1663494
  67.4060364  13.3844423  46.1279259  68.0629730  13.0701656  45.5067253
  66.6341248  12.8461113  45.9530220  62.0149155  30.5818157  39.2123604
  61.8635368  29.8387947  38.6282043  61.3980331  31.2503166  38.9143791
  58.6891670  57.0516968  39.8749886  58.5712662  57.9839859  39.6928749
  57.8059196  56.6854324  39.8306885  13.1662283   0.7503016  48.1408043
  12.9578009   0.0063612  47.5757027  13.2719660   1.4865253  47.5382881
  32.2040482  28.7404633  73.1432419  31.4838715  28.4655380  72.5757980
  31.7922878  29.3079090  73.7949295  27.3282375  45.4025421  59.1140747
  27.4960670  44.5664787  58.6792603  27.0864773  45.1629448  60.0087128
  86.2251434  34.6216011  18.3616581  86.2620468  34.7197685  17.4102192
  86.6460800  33.7789688  18.5320034  31.1633644  61.9737663  10.9962006
  31.7776623  61.7835846  11.7052135  30.8594856  62.8636971  11.1748419
   2.1658905  38.7419586  21.6737175   1.2828674  38.3768616  21.6170845
   2.6586797  38.0989532  22.1835575  16.1648197  28.4423561  84.2387238
  15.9416294  28.8559933  83.4048615  16.4139175  29.1703529  84.8081131
  52.2111130  20.1268864  87.2258072  52.6403656  19.9787083  86.3831863
  51.3748817  20.5343914  87.0002289  12.1056080  40.6498146  18.2420101
  12.9566631  41.0011673  18.5037117  11.5710678  40.7019234  19.0343380
  73.3413391  40.1877861  29.1001759  74.1599121  40.5680618  28.7814865
  72.6986084  40.4016457  28.4238663  50.7518005  70.9521713  43.0341263
  50.6061401  71.5439453  42.2960052  50.7670822  71.5249252  43.8009071
  56.4948883  67.0440979  33.1845589  56.7100639  67.2804337  32.2822990
  55.6477928  66.6029205  33.1210747  72.5139542  20.7681236   0.0017792
  71.6324615  20.9867401  -0.3005502  72.5936050  21.2098007   0.8472431
   8.8703814  63.6139603  49.2459335   8.5483980  63.1690483  48.4619598
   8.4354897  63.1657562  49.9713402  20.6084633  41.3833656  74.4766312
  21.5227299  41.4528160  74.7514572  20.3415413  42.2859192  74.3023224
  46.4225845  39.6539230  27.5386944  46.1192207  39.4252052  26.6601219
  47.2309151  39.1536522  27.6507683  72.0151138  42.6872177  25.1980686
  72.7494354  42.1713638  24.8650627  72.3796616  43.5614357  25.3361740
  75.2431107  66.1576385  66.1134644  74.4861679  66.4397278  65.5999451
  75.8022995  65.7011185  65.4848785  16.1129971  20.5797443  21.8559723
  16.8162537  21.0491219  22.3046913  15.3516207  21.1541023  21.9375191
   1.5864652  46.3490944   0.9417372   1.8628733  45.5786362   1.4379433
   1.9144990  47.0913124   1.4494209  69.2910767  26.2119884  77.7459106
  68.9204865  27.0921211  77.8112106  68.5555801  25.6280746  77.9311752
  65.5345535  19.7491894  32.0249977  66.2800522  19.8097172  31.4276619
  65.9186783  19.8381882  32.8972130  71.1162872  37.3133812  37.4150047
  71.0489960  37.6377182  36.5169449  70.7223663  38.0032730  37.9489594
  52.2383881  63.2814255  68.9655762  52.5987244  63.7737045  69.7031708
  51.4342766  62.8911285  69.3080750  45.2359238  20.1344414  18.6188412
  45.3973579  20.8995018  18.0667057  45.3989258  20.4435139  19.5099850
  68.8065948  49.1206398   5.1953402  69.1072922  50.0290756   5.1716495
  68.5211639  48.9863167   6.0990658  37.5270157   1.5973771  48.1694298
  38.0593262   2.2905102  48.5598640  38.1300354   0.8610652  48.0672455
  41.9601173  66.9002991  44.5652924  41.6913109  67.7382660  44.9418297
  41.1727982  66.3572159  44.6029892   9.7486963  28.6122341   8.1967430
   9.4561501  28.7071342   7.2902975  10.6988916  28.5158730   8.1329107
  65.6045074   5.0430164  12.3563614  64.7011948   5.1395769  12.0548029
  66.0823975   4.7347660  11.5864038   6.0976682   1.7638402   7.3036060
   6.8395443   2.0285511   7.8474622   5.3655815   1.6913242   7.9159966
  32.7852974  12.1405678   4.2140794  32.0442581  11.8540850   3.6802034
  33.3900719  12.5407505   3.5893145  66.9030914   5.6695466  30.2925339
  66.6116180   5.2128978  29.5033913  66.3470078   6.4473004  30.3383846
  85.9887619  57.4678230  75.3620987  86.1711273  58.1263123  76.0324478
  85.0941620  57.1808739  75.5453415  78.6739960  11.9093800  36.5061951
  79.0578918  12.6222668  35.9956551  78.3768387  12.3268194  37.3146935
  59.6892586  39.2202415  81.5535965  58.7697144  38.9901962  81.6868286
  59.8687553  38.9738579  80.6462402  11.4535170  49.9040337  22.6198578
  12.1803360  49.3443031  22.8931122  11.3658056  50.5444031  23.3258781
  58.1811409  20.5257511  64.0585480  58.9345360  20.0110397  63.7692337
  58.5322914  21.4046078  64.2018433  22.2687912  70.4314880  45.9236603
  22.8321819  69.8865204  45.3742714  22.8767395  70.9704361  46.4297905
  61.1527710  27.5579624  42.1401596  62.0115051  27.6369057  41.7247353
  60.7710075  26.7701035  41.7531624  47.6697960  26.2304974  68.5818100
  48.3779030  25.8244801  68.0818405  47.1790504  25.4929276  68.9442902
   3.2375586   1.0135894  44.2838135   2.7050986   1.1981812  45.0575333
   3.0380788   0.1027307  44.0675354  79.4894791  44.1693039  24.5710526
  79.3546219  44.6980286  25.3574963  78.9078064  44.5585747  23.9180908
   5.1627913  36.7173500  43.2481270   4.5614238  36.0278206  42.9668083
   5.8924241  36.2483330  43.6529579  20.5063953  37.3025208  75.9094086
  20.0890560  37.2614365  75.0489655  20.1930599  38.1236458  76.2886276
  32.9689026  61.7004890  19.1729908  32.1391411  61.3161926  19.4559040
  33.4546585  61.8459244  19.9848557  66.6106339  56.6646461  36.4493980
  66.8218918  55.7875938  36.1294365  66.2171860  56.5174942  37.3095016
   4.2110262   5.2118053  13.8921928   4.0179286   4.5164256  14.5209942
   3.8749864   4.8814206  13.0590334  39.2010384  49.0227165   3.8242078
  39.3911934  49.2568016   2.9157608  39.9203796  49.4061661   4.3259521
  33.1987572  61.1458321  51.9730530  33.4570236  61.3299026  51.0699196
  33.1009369  62.0090828  52.3748741  62.7727242  27.6431313  38.2927399
  61.9941406  28.1003227  37.9749184  62.6678848  26.7449493  37.9788780
  31.1091499  55.8705139  57.9960175  30.4308681  56.4446068  57.6402359
  30.8981552  55.0049553  57.6459846  77.7386551   4.0476370   5.9226017
  77.5481262   4.9834595   5.8580532  77.9472656   3.9088471   6.8464246
  56.5983505  30.7589855  75.3044662  57.5413094  30.8455296  75.4443512
  56.2488747  31.6324558  75.4809570  16.3846607  64.3877335  33.6576958
  16.6177025  63.6594887  34.2335243  16.6303444  64.0888824  32.7821655
  14.9427891  45.5829887  50.5483475  15.6082668  45.9689445  49.9787788
  14.2041283  46.1897621  50.4989929   8.7509270   5.0839467  62.0088997
   9.2239132   5.6133995  62.6509247   8.5143032   4.2869911  62.4833527
  48.1892014  42.3521729  73.1866302  48.7937126  42.5124054  72.4619751
  48.3076057  43.1034088  73.7678833  18.8099880  32.1979713  86.9701385
  19.6624413  32.4352226  86.6050720  19.0136585  31.5797329  87.6719437
  82.5443115  11.4159660  31.1652660  83.1040955  11.1596117  31.8981762
  81.6830444  11.0615873  31.3863239  70.1546402  59.9919815  77.9347610
  69.5074921  59.5435829  78.4791565  70.7460861  60.4097214  78.5607986
  15.3073311  41.7636986   0.7611449  15.1560421  42.3876572   0.0512010
  15.4824839  42.3103104   1.5271543  29.8836193  13.2731619   1.6908215
  29.5150681  13.9020176   2.3112593  29.6193466  12.4182882   2.0307965
  69.5610809   0.1585591   9.8772154  69.0734711   0.8391254  10.3412199
  69.8683624  -0.4288862  10.5676613  11.4135866   7.4323826   9.7389832
  11.0530615   7.0999999  10.5610390  11.6032333   8.3537912   9.9158230
  74.6886749  56.6936340  23.3640003  74.5823288  55.7553902  23.5209045
  74.8632507  57.0629616  24.2296524   7.2113638  68.7400894   9.4992962
   7.9621973  68.1534424   9.5905380   7.5886307  69.5670853   9.1993303
  46.0375633  12.2480755  41.4936523  46.1046600  11.8265018  42.3503952
  45.5492401  11.6236973  40.9570656   7.8497758  22.2225990  19.8107109
   7.9682984  22.4038181  20.7430973   7.6989098  21.2783508  19.7675247
  70.2134399  42.3949127  32.2732124  69.9506912  42.3418465  33.1921120
  69.8788910  43.2413979  31.9769421  35.2594986  29.3976269  17.6290512
  35.9823380  28.7751598  17.5498867  34.8641815  29.4177170  16.7575283
  47.5067558  37.3139381  66.6508331  47.8943062  37.8071404  67.3738708
  46.9290543  37.9409561  66.2156982  39.2582550  67.1367645  47.5314789
  40.1479721  67.2971573  47.8459816  38.7219543  67.1277847  48.3242798
  33.4504700  16.0943089   7.5442042  33.0344353  16.0985546   6.6821547
  33.2823181  16.9686489   7.8956108  77.1737747  60.1334953  28.4658241
  77.0481033  59.8549042  29.3729210  76.3888931  60.6414108  28.2603397
  25.0666504  51.5889244  48.6497841  24.9641113  52.2281609  49.3548355
  25.8353901  51.8887177  48.1646080  71.1541138  52.8643799  30.0130692
  71.0980072  53.8143044  30.1166592  71.4262085  52.7382317  29.1040688
  71.4766464  14.7422600  61.4191551  70.7020416  14.6829882  60.8599625
  72.1074524  15.2433462  60.9022179  10.1844130   1.9970446  47.2763176
   9.4880648   1.4864738  47.6894150  10.5419712   2.5318668  47.9850845
  61.2308311  18.1221046   4.3536625  60.4106216  18.1869812   4.8428192
  61.0935669  18.6715088   3.5819464  79.8209610  10.9821901   8.8847065
  79.6763382  10.5932503   8.0221272  79.5329819  11.8900547   8.7894144
   1.8259056   0.1639335  49.9216194   1.6688410  -0.5424991  49.2951088
   0.9885970   0.6242852  49.9783859  51.9092941  52.9171906  61.4612007
  51.9305954  53.2328224  60.5577888  52.2486916  53.6477623  61.9782219
  50.1790695  -0.1040298  40.3075600  50.1001511   0.4414181  39.5249405
  49.2791367  -0.2140861  40.6145439   3.2349813  10.4221811  84.9970016
   2.5156908  10.8967047  85.4137573   3.9288952  11.0745859  84.9017029
  52.7996445  47.8229828  41.5000992  52.5729485  48.6174736  41.0167503
  52.1471596  47.1797295  41.2231140  47.0197220   1.2457812  67.9559326
  46.3390350   1.2492604  68.6288986  47.6200600   0.5509108  68.2260818
  11.0895672  13.2177286   5.4724197  10.4453859  13.9157658   5.5907698
  11.6006145  13.2236900   6.2817574  56.5625877  10.5810766  13.7235489
  56.9255104   9.7972956  13.3109856  56.4278221  10.3301554  14.6373920
  75.7365265  43.9067879  73.3535843  74.9392014  43.3871460  73.2512436
  76.2253265  43.7573738  72.5442734  78.3419342   0.0183748  76.9949112
  78.3763504   0.5370435  77.7986755  79.1052780   0.3037737  76.4928284
  76.9044724  48.3543282  38.1621361  77.6236191  48.1215973  38.7494164
  76.8525314  47.6237640  37.5458488  59.6259995  21.3899231  27.1092701
  60.5772400  21.4008884  27.2153492  59.2935371  21.1012096  27.9591789
  53.7892456   3.0912528  19.0395851  53.0359192   2.5332727  18.8462181
  54.2668533   2.6205921  19.7226658  30.6875134  22.8275471   2.1398060
  29.7717457  22.8992882   1.8706278  30.7004013  23.1616497   3.0367119
   1.0056858  51.5715714  40.7231750   1.0654937  50.6624451  40.4296722
   0.0670572  51.7290726  40.8251610  11.2540121  63.0570793  52.9408379
  11.4989529  63.7734184  52.3550987  10.9483929  62.3635025  52.3562202
  45.4636230  53.8850746  51.4678688  44.7775459  54.4558258  51.1217842
  45.0342674  53.0374260  51.5835457  61.7026482  28.5266609  75.0606689
  62.1216965  28.1015110  74.3124237  62.3341484  29.1872425  75.3453903
  47.2341805  11.8335915  86.9080658  47.0577431  11.2730074  87.6636124
  46.3706169  12.1372175  86.6282425  45.4178162  70.5749588  55.7359047
  44.5723495  70.1429749  55.6142273  45.7494202  70.7068405  54.8477173
  67.2497025  15.3293495  79.5876083  67.2603760  14.3787260  79.4761047
  68.0650635  15.5255489  80.0490417  46.3436623  29.1172028  52.6259995
  46.9357567  28.4359455  52.9446640  45.7941513  29.3290939  53.3805656
  62.8993492  43.6573830  74.3354950  63.4193153  42.8891983  74.5716248
  62.2462158  43.7277412  75.0317001  84.1943512  52.1027145  69.1511307
  83.3510742  52.5444756  69.0513000  84.7531738  52.4994583  68.4828949
  12.2812967  42.0135803  76.0085526  12.7092218  42.8378868  76.2401352
  13.0016041  41.4247780  75.7833939  53.7340546  71.6871796  42.7985802
  53.4751472  72.0940399  41.9717445  53.0577087  71.0304718  42.9644928
  82.3470230  23.8302879  88.6194229  82.1953964  24.6898136  89.0124359
  82.1033096  23.2074585  89.3041992  82.5413589  50.7708626  50.2104797
  82.7830734  51.6105042  49.8195686  83.3119354  50.2172241  50.0842743
  54.7879486  29.6480637  31.9596615  53.8914566  29.7551079  31.6417389
  55.3221550  29.6225300  31.1658077  83.4598160   8.1116009  81.3962479
  83.4860535   8.6135807  82.2108383  83.8055420   7.2512279  81.6338577
  54.7469940  23.2360744  19.9042530  54.8732719  23.6002197  19.0280762
  53.8683548  23.5194626  20.1570606  75.6965866  43.7155762  22.5148945
  75.7082977  42.8090019  22.8218498  74.8474503  43.8114700  22.0836143
  63.7368469  17.6841831  19.6276455  64.1648102  17.6022034  18.7753792
  62.9215164  17.1914196  19.5346317  77.2006760  64.3980179  21.5067043
  76.3772812  64.7743835  21.1958961  77.5032272  63.8517151  20.7812767
   1.3443538  28.5519905  81.4688644   1.4409202  27.8348236  80.8423004
   0.4054696  28.7381706  81.4769592  63.1521225  52.9378624  61.8469696
  62.4181900  52.3264313  61.7859535  63.9122696  52.4283981  61.5661583
  26.9469700  59.0366859  67.6630173  26.6350193  58.1885185  67.3475342
  27.3816395  58.8385811  68.4925079  74.1294937  32.3497047  11.9928780
  74.7464218  31.9174004  11.4023314  73.3050385  31.8811054  11.8628416
  85.6338806   4.6865945  89.3236008  84.8277206   5.1898708  89.4378433
  85.9927063   4.9947448  88.4914246  73.3903961  30.2294102  83.6887665
  74.3290405  30.0645924  83.7782745  73.0384216  29.4176006  83.3236465
  57.9353752   3.1468067  37.2162895  57.6869812   3.8927526  37.7622719
  58.8779984   3.2493105  37.0851860  21.5085907  32.7856979  86.2711563
  22.2047863  33.4357567  86.3658524  21.8556366  32.1529465  85.6423340
  44.3734016  16.4543324   0.5831040  43.9511375  16.5544186   1.4362788
  43.6917953  16.0873775   0.0200866  64.2212906  60.2615852  76.0430145
  64.8760529  59.6265564  75.7527390  63.6408997  60.3686485  75.2894135
  75.5781708  50.4443550  39.5636826  75.1044922  50.3544273  40.3905869
  75.7393417  49.5442047  39.2808609  66.1846695  61.0981140  58.4513359
  66.7349854  61.8710556  58.5776062  66.4333649  60.5081940  59.1629410
  84.2677765   2.6088688  66.8367767  84.8036957   2.1396916  67.4762268
  83.3979492   2.6461251  67.2345734  74.9408722  55.4356003  44.8342285
  75.1280136  56.3541412  45.0278740  75.1822052  55.3308640  43.9138947
  59.1122284  44.1153831  85.9596100  58.8243980  43.2026787  85.9407349
  59.7710419  44.1444588  86.6534042  55.5185509  69.3075943  10.9051991
  56.3621597  68.8694992  11.0175867  55.5343742  70.0241394  11.5396605
   1.2280722  53.1278191  77.3657761   1.3934315  52.6628227  76.5456161
   2.0663860  53.1050529  77.8272400  45.5162506  54.3491058  30.3620129
  46.4633751  54.4531403  30.4534855  45.2547035  55.0507584  29.7657661
  28.5419807  57.6474648  84.9987564  29.0075874  58.0671921  84.2753830
  29.1909924  57.0673180  85.3968124  30.5168724  39.4623642  78.3046570
  30.9525871  38.8290215  78.8749695  30.8540821  40.3120117  78.5885849
  11.6768723  25.1546440  87.7971649  11.1473818  25.8703995  88.1486816
  12.2111511  25.5638676  87.1164932  66.2520370  42.7057228  23.6468525
  66.7093124  43.2945518  24.2471924  66.4687195  41.8278694  23.9609451
  13.9914322   4.9898934  22.1324348  13.9063873   5.8701530  21.7661800
  13.8120890   5.1006122  23.0661430  81.7220383   8.6096754  56.7219963
  81.2129440   9.2274733  56.1972351  82.6182098   8.9437094  56.6827240
  57.4314613  64.2114716  76.6541901  57.2061882  64.9326553  77.2418823
  56.9022293  64.3659134  75.8716965  74.7995529  56.7933693  18.3249187
  74.8870468  56.5543900  19.2476692  73.9069748  56.5357208  18.0943718
  14.3888464  64.5127869  40.2187653  14.3153915  65.2052612  40.8755188
  15.0082989  63.8887177  40.5969810  74.3430405  44.2437325  10.8218508
  73.5475311  44.4203072  11.3240585  74.0665894  44.3011589   9.9072428
   9.0958633  59.9896278  39.0617027   9.4039135  59.0952950  38.9150658
   8.6295729  60.2172508  38.2573471  19.4283104  51.7534599  38.1960793
  18.9784737  52.1114159  38.9614220  18.7920799  51.1569748  37.8015556
   5.6328545  49.4508171  87.1150284   6.2540412  50.1469879  86.9012375
   5.0927334  49.3622894  86.3297501  66.7007141  54.2142296  24.2097397
  66.0411301  54.7564392  24.6424026  67.4817047  54.7667503  24.1780415
  41.4161186  60.3982544  70.7877579  41.0923958  61.2691879  71.0177841
  40.6518860  59.9449730  70.4317856  23.0258980  41.8987885   1.3826960
  23.4924583  42.6854858   1.1004630  23.2767296  41.7875977   2.2997305
  48.9203644  70.0292511  71.7014771  48.2481384  70.3187561  72.3183441
  49.0735855  69.1117935  71.9273682  50.1617928  58.5612373  38.4881058
  50.4167290  57.6407547  38.5509758  49.8874435  58.6721420  37.5777931
  51.2129707  60.8838730  58.2110596  51.5182724  60.3656006  58.9556503
  51.8974800  60.7798767  57.5501022  22.1296902   8.0358543  23.9435444
  21.4566078   7.4846539  24.3427582  21.6440277   8.6318264  23.3732967
  85.7258072  46.0562706  23.9447651  86.3073502  45.3127708  23.7858505
  85.9327469  46.3358841  24.8365192  25.5183563  14.2898436  73.1273880
  25.7073803  15.0545120  72.5835342  25.3253689  13.5922384  72.5010223
  48.0808182  34.9907227  68.9284897  48.4984360  35.5430527  68.2676163
  48.7818108  34.7860947  69.5473404  37.3683395  63.1272697  62.2981186
  37.1252670  62.4871712  61.6292229  37.4375000  63.9554596  61.8231964
  63.9687958   9.7262735  58.7529945  63.6804695  10.0633278  57.9047661
  64.3967972   8.8951159  58.5475197  61.6198082  54.8462219  16.0135288
  61.3055115  55.6985245  16.3152485  62.1822014  54.5337296  16.7222576
  43.8541183  22.7821198  66.2465744  44.7730293  22.9849453  66.0713654
  43.4852600  23.6035061  66.5713806  83.9080658  71.6985931   2.3117743
  84.4125595  71.2466507   1.6354169  82.9980698  71.4657822   2.1275444
  63.8879623  67.0637741  85.5989380  63.3405571  67.8429489  85.5016785
  63.5977859  66.6682816  86.4208908   4.9812851  42.4608879  37.6338310
   5.3980875  42.2173691  36.8072662   4.9256454  41.6410103  38.1246872
  74.6308212  67.4465408  24.9058704  73.8707733  67.7795563  25.3830128
  74.5179520  67.7772903  24.0147495  69.3288422  59.5636101  82.2297211
  69.1220398  59.1213036  83.0530243  70.1809998  59.2096977  81.9751663
   0.9050879  42.0260582  85.4073792   1.6509422  42.4129219  85.8659363
   0.3402512  42.7700615  85.1984558  81.3638916  59.9092255  62.1026917
  81.7082062  59.1175957  62.5162125  81.4016495  60.5743103  62.7900543
  79.4579010  23.3550072  19.8263817  79.6982803  22.5019703  19.4647522
  79.9032669  23.9880180  19.2631989  10.1658878  61.7837830  82.1707306
   9.4872408  61.3316116  81.6695251  10.0280581  62.7112122  81.9780884
  33.5522575  61.7438164  12.8655891  33.7117615  62.6470566  12.5918179
  33.8037415  61.7254677  13.7889805  77.7775345  66.6349030  67.1492844
  77.0474472  66.4005280  66.5763245  77.5488052  67.5010147  67.4865723
  69.4227219  70.6711884   1.1970588  69.8852768  71.2044907   1.8434800
  70.0144501  69.9392395   1.0228499  31.8819084  22.3019714  71.0197220
  31.1383305  22.4465942  71.6048813  32.5874443  22.0095730  71.5967484
  85.5969315  33.8439331  60.9322014  85.8375778  33.2304497  61.6264343
  85.1459961  33.3051262  60.2821426  30.6724739   1.3949970  16.5187302
  30.3465462   0.8359212  17.2240219  29.8891449   1.6410059  16.0266876
  16.9548969  47.0119095  26.4735088  16.9086361  47.9602928  26.5945606
  16.0429306  46.7223282  26.4998207  70.0514603  64.5281982  28.0442944
  69.5126495  65.2629776  27.7509975  70.6079559  64.8978806  28.7297707
  60.8054008  17.2650318  29.9226990  59.8694839  17.2658825  29.7219639
  61.2137222  17.6797791  29.1627712  59.2485046  57.6227875  27.4369774
  58.6796036  58.0613251  26.8043118  59.8979683  58.2847328  27.6741753
   0.1615528  55.4822121  10.5650244   0.4348122  56.3910789  10.4404430
  -0.2589425  55.4742546  11.4248810  30.6942196  58.6598816  35.9499016
  29.8509674  58.4061813  35.5746727  30.7332897  59.6089172  35.8314323
  29.7971954  60.7715416  80.2226334  30.4382420  60.1544533  79.8697968
  29.1424255  60.8589554  79.5299072  28.4742756  71.6870651  23.5192451
  28.1105003  71.0997696  24.1818027  29.3712215  71.3780746  23.3917942
  53.9352837   0.5180135  66.3069992  54.1491051   1.3700868  65.9268875
  54.2731438  -0.1173871  65.6758499  65.0998001  46.4322624  47.8461075
  65.9739304  46.8213768  47.8727531  64.5242691  47.1534309  47.5913200
  50.3073540  20.0668716  72.1205139  49.5929184  20.5112972  71.6641159
  51.0837898  20.2593346  71.5948410   8.4427156  36.1627045  79.9437332
   7.6362476  36.6584702  80.0853653   8.3167210  35.7376671  79.0953827
  11.2483425   4.5102019   1.2324365  12.1768675   4.7327280   1.2999380
  10.9720907   4.3584738   2.1362591  76.1859055  30.2313137  45.4236145
  77.1056137  30.4832153  45.5067368  76.1958008  29.4812851  44.8289795
  80.5114975   4.0643029  78.8485641  80.2481918   4.4000707  79.7053909
  79.9893036   3.2706730  78.7315216   6.0610590   2.4136133  66.7202301
   5.5420785   1.6107118  66.6729050   5.7831059   2.9236636  65.9594269
   1.9603179   5.6922221  31.4943295   2.5569074   5.0795083  31.9243240
   1.6960598   6.2961488  32.1883545  70.3498611  12.7592716  45.3231544
  70.7605515  13.5918751  45.5562515  70.1120148  12.3661528  46.1628685
  83.9674454  34.9676781  50.3588371  83.8462143  35.1306496  51.2942390
  83.0885925  34.7719955  50.0339394  29.2667675  64.0285416  50.0714035
  28.9330616  64.1894608  49.1888046  30.0588989  64.5627975  50.1290665
  17.4431381  71.1072235  46.0807495  18.3669949  71.3124542  46.2242737
  16.9922943  71.4951324  46.8307457  56.3719177  13.3883514   7.0684209
  55.7526360  12.8429098   6.5834312  56.0572357  13.3624821   7.9720454
  84.5925751  18.1124706  72.3117447  84.3585129  17.6796341  73.1327820
  85.0594559  18.9030418  72.5823898   3.2278206  42.1854668  31.6985931
   3.1726246  41.2320175  31.6344261   4.1487460  42.3840103  31.5291557
  10.7936850  20.7293663  69.8969650  10.1127853  20.4234791  69.2977676
  10.4633245  20.5084419  70.7677612  51.0097122  15.8625937  22.9407921
  51.0269241  14.9438944  22.6725998  51.9226456  16.0714970  23.1386280
  85.9149094  22.1308670  53.2231903  86.5018845  21.3976421  53.4077835
  85.8603439  22.6082745  54.0510406  25.7125454  23.0538273  21.8389530
  25.0828133  22.4738369  21.4108429  25.9143009  23.7171688  21.1790257
  81.2731018  22.6318989  67.4072647  80.8337784  21.7852936  67.3267441
  81.9125519  22.5042210  68.1080017  67.0932999  29.8721180  24.9073105
  67.8292313  30.4791508  24.8289509  66.4306183  30.2208786  24.3111057
  77.2205353  46.2337112  67.9598465  77.4547729  47.1082115  68.2706757
  77.1091690  46.3372803  67.0148087  80.3460159  50.2346802  62.3961372
  81.2077713  49.8784561  62.6122513  80.3757477  50.3761444  61.4499168
  41.4796982  21.1411915  83.3240814  40.5691681  21.2068977  83.0362396
  41.4701843  20.4583263  83.9947815  11.8020439  37.7921104  12.3350821
  11.1546774  37.8391418  13.0385990  11.3167906  37.4467201  11.5857716
  75.1416550  65.1611328  61.9196167  75.4216614  65.8649368  61.3343964
  74.2423019  65.3890076  62.1551170   3.1194923  11.7232246  12.6997910
   2.3636496  11.2676392  13.0704336   3.3766320  11.1886654  11.9485531
  31.8762684  50.0764542  60.3246841  31.1906586  49.6092567  59.8472939
  31.4393730  50.8546181  60.6708298  81.5018997  22.7795563  25.0818443
  81.0366135  22.1075935  25.5800419  82.3183975  22.3573666  24.8147831
  71.0363770   5.2739692  17.5566883  70.6850586   4.5932746  16.9827023
  70.5446701   6.0613585  17.3232994  52.0742073  53.4803162   4.3444567
  51.7672234  54.2379456   4.8424416  52.2377129  53.8218155   3.4653225
  55.2936821  38.1866417  12.4811468  55.1186790  39.0685120  12.1526546
  56.0762177  38.2840652  13.0237131  65.5673828  53.0273781  31.8468227
  66.3922424  52.8517990  32.2996063  65.8207169  53.5348282  31.0757523
  39.7240372  31.3745747  68.2122040  40.5911179  31.7739086  68.1419525
  39.5063438  31.1156178  67.3167801  11.0942774   4.7727699  84.8694153
  10.9902382   4.4859180  83.9621506  10.5441113   4.1740685  85.3744965
  15.9574728  13.4697208  87.2749481  15.2282257  12.8504486  87.3055038
  16.2590103  13.4400434  86.3669662  73.2681656  54.0901184  14.4512835
  73.7533951  54.0436859  13.6274920  73.7535248  54.7236557  14.9797573
  59.1279564  48.1206894  89.1412811  58.2657700  47.8114510  88.8633652
  58.9541702  48.9551277  89.5768738  34.1465874  59.9754448  80.6776047
  33.6847801  60.7076073  81.0861435  34.8019485  59.7146225  81.3246765
  10.5907211  42.1279221   8.0473633  11.3290329  42.7061119   7.8554673
  10.2286758  42.4656067   8.8665848   8.2909155  26.5623493  18.8287373
   9.1025753  26.8265533  19.2619076   7.7764421  27.3675632  18.7723522
  43.4365654  42.7679520  23.1928806  42.5557480  42.3961220  23.1466656
  44.0139046  42.0487404  22.9366608  17.3181343  37.3230057  21.2802658
  16.6667042  37.0531540  20.6329231  16.8021126  37.6327324  22.0245914
  33.0966377  70.7248154   9.0976734  32.5578804  69.9377365   9.0171785
  33.4583893  70.6779633   9.9826441  81.3040161  59.7051315  31.3998108
  80.7515717  59.2971420  32.0665779  80.6863556  60.0471077  30.7534561
  18.3905201  25.6795540   2.7717695  17.9374924  24.8397141   2.6964872
  17.8353748  26.1999378   3.3524992  71.5578384   9.6691179  42.7607384
  71.6145248   8.8142614  42.3338432  71.4296112   9.4660845  43.6873283
  57.7712364  17.5571365  70.9882736  58.0037231  18.3136024  70.4498062
  56.8753090  17.3437653  70.7274628  76.8422623  35.0672112  22.2416992
  76.7080536  34.3336678  22.8418102  76.1808853  34.9437447  21.5608387
  31.0157280  52.6459503  49.3467941  31.3126774  51.8430252  49.7750015
  30.0940285  52.7222023  49.5935440  40.0448494  33.0951614  29.2717266
  40.1924782  33.9539642  29.6678295  40.3906555  32.4734077  29.9120960
  82.4533157  30.9040737  31.8224545  82.7112503  30.9965992  30.9053173
  83.2552261  31.0776234  32.3154640  12.8214788  70.0970230  46.6383896
  12.3202782  69.2987976  46.8053207  13.2677231  69.9304123  45.8081245
  67.5881577  28.9461994   6.4574480  66.6986694  29.2059288   6.2174892
  67.6519852  28.0307083   6.1853557  73.4574432   5.9910207  71.0422897
  72.5119476   5.8438768  71.0672989  73.6028748   6.4765501  70.2302856
  84.6115570  68.6047516  22.6761761  84.3360596  69.4611206  22.3491135
  85.2330780  68.2868729  22.0212746  57.6512489  44.1971779  17.7206917
  58.0301285  45.0025673  18.0728703  58.4002304  43.7108727  17.3760700
  75.1679459   7.0851641   9.6860924  74.5345001   6.6654229  10.2681551
  74.9536514   6.7483397   8.8161144  54.2805977   4.0998001  75.4420013
  53.5342865   4.6850014  75.5715714  54.3387070   3.6016333  76.2572861
  73.3978043  12.9709587  50.4153328  72.8639145  13.6504383  50.8270378
  73.8038406  12.5084047  51.1484146   0.4272991   4.4663429  79.9452057
  -0.2518435   3.8420420  80.2006378  -0.0557792   5.2359352  79.6442184
  16.5024128  51.9724083  78.0801163  16.1222591  52.0602570  78.9541855
  16.5482616  51.0277367  77.9327087  10.1052055  66.2880402  79.4203644
  11.0531445  66.3969040  79.4964752   9.9602041  66.0918045  78.4947891
  34.2014046  65.6911469   7.0441236  34.1195869  65.8481522   7.9848084
  34.9948349  66.1628265   6.7906947  41.2305908  40.3089027   8.3997622
  41.3636017  39.7480392   7.6355834  41.3907700  41.1956367   8.0768375
  24.1174564  49.8628044  50.9022522  24.7431774  50.5673485  50.7339592
  23.4128304  50.0126381  50.2719460  77.0371933  43.6349945  41.3308716
  76.1518173  43.3849182  41.0666733  76.9403229  43.9425621  42.2321243
  45.5042915  36.5569878  75.6927414  45.0874519  37.0761261  76.3804703
  44.8230743  36.4472771  75.0293121  38.3238335  57.8830872  86.1567307
  38.1529541  58.8243256  86.1235046  38.6475525  57.6674156  85.2821274
  12.1061277  23.5287628  16.6801414  11.3460722  24.1099758  16.6529827
  11.7408381  22.6657238  16.8749733  65.9136276  15.7009401  84.4820251
  65.9894409  16.6470184  84.6062088  65.0069046  15.5007677  84.7144394
  36.2509575  68.7532730  70.4904175  36.6737595  69.2155075  69.7666702
  36.9261780  68.6985092  71.1666641  14.7413101  67.3416138  35.9535332
  14.6600199  66.5988770  35.3552284  13.8904200  67.7779388  35.9106674
  80.0745239  10.0025024  54.0058632  80.0004654   9.2118759  53.4713936
  80.9244537  10.3733168  53.7685051  59.9537392   3.1240788  54.6311226
  60.1402550   3.3448846  53.7186050  59.0289459   2.8771377  54.6335831
  63.2951622   4.0355005   6.8386841  64.2448578   4.0903311   6.7323866
  63.1701431   3.8037362   7.7589488  80.3968811   1.6847672  36.1634140
  80.0891342   2.4558547  36.6398048  79.8593597   0.9665920  36.4973755
  85.9770432  66.4558258  77.0416489  86.2497253  66.8443375  77.8728714
  85.4429703  67.1321182  76.6249466   1.8795990  15.0663395  77.0205688
   1.1294435  14.8249960  77.5639420   2.4476893  15.5676126  77.6055756
  25.5314064  56.5943260  75.7785187  25.3114452  56.6798325  76.7061768
  24.7108021  56.7751999  75.3201294  59.2097473  31.4140091  49.7703133
  59.5373421  31.4335079  50.6694984  58.7942772  32.2676506  49.6482010
  25.3289719  24.9137955  25.4136028  25.1169262  24.0451756  25.0718899
  26.2633266  24.8697205  25.6167526  64.3142242  65.7288589  28.3220177
  65.1592865  66.1512375  28.4759903  64.0797043  65.3469620  29.1678200
  62.9897003   4.0025687  37.5744743  63.0520096   4.9554644  37.6403503
  63.6965103   3.7570264  36.9775162  61.2792168  46.5976639  50.1391068
  61.0104103  47.3732414  49.6467094  61.6557350  46.0142593  49.4802399
  71.3689880  51.4598999  19.0608521  71.9031296  52.2527466  19.1090088
  71.5024185  51.0295486  19.9053783  29.8263588  46.7987556  72.6938095
  29.4044800  47.3469048  73.3554611  30.3186359  47.4145966  72.1510010
  60.7295456  62.1099472  19.9205379  60.3423882  61.5321388  20.5781708
  60.4832535  62.9912834  20.2012863  24.2708549   1.9708692  36.6716995
  24.6635342   1.5401807  35.9123955  24.8982334   1.8263767  37.3800430
  31.7954063  42.4512215  78.1098022  31.7050266  43.4029999  78.1564865
  31.4424858  42.1360245  78.9418640  60.7567902  53.6355247  68.1416245
  59.9152679  53.2487526  68.3834457  61.3949547  53.1863365  68.6958847
  48.8569298  38.0605240  20.2150154  48.2314911  37.5410042  19.7098866
  49.5570641  37.4457397  20.4342957  81.2841721  38.5867386  43.6214752
  82.1466141  38.2168503  43.4327850  81.1168213  38.3508835  44.5339394
  41.2421761  52.6048584  51.5114670  41.0116425  51.7038498  51.7378960
  42.0682602  52.5279694  51.0340729  85.0938110  33.7598877  81.3639221
  84.4509735  33.0545502  81.2897949  84.7081909  34.3703232  81.9923325
  45.3951721  49.7135811  49.6770592  44.7096176  49.1624794  49.2995224
  46.2085152  49.3728752  49.3047333   1.4442877  23.6077213  79.8428040
   1.4800268  22.7461205  80.2582550   1.4623178  23.4218788  78.9039917
  48.5656548  32.1200294  48.8993149  48.2182693  31.5094337  49.5494919
  48.0434723  32.9140930  49.0134239  15.0068741  20.3779163  75.6032028
  14.8398170  21.3117065  75.7311172  15.9482565  20.2811260  75.7469406
  41.9091606  20.1827145  20.2133827  42.0808182  19.2696705  19.9829178
  41.7164459  20.1609783  21.1507301   1.1765739  29.0104618  65.0574036
   0.8533141  29.6646614  65.6768875   0.3950391  28.7177238  64.5886383
  87.1353912  47.0144005  15.3969994  86.5652466  46.3430939  15.0221424
  86.6124039  47.8156128  15.3692036  85.5515060  26.7117805  32.2254257
  85.0770264  27.3933239  32.7014542  86.2716522  27.1753292  31.7979450
  35.9519806   0.8682564  12.1411772  36.1961174   1.1079415  11.2472086
  35.3618736   1.5669200  12.4237967   3.6438220  68.7389908  10.5320692
   3.2075803  69.4663849  10.0884180   4.0057793  68.2081375   9.8225527
  70.2018127   8.3523035  17.4550591  69.8730316   9.0829096  16.9312725
  69.9878693   8.5891924  18.3574696  39.4103432  23.3290806  72.7535782
  40.1163177  23.7941666  72.3046570  38.6086044  23.7353687  72.4243698
  20.3558426  27.8910141  81.9003677  20.5134335  27.1668835  81.2945404
  21.1964149  28.3457718  81.9538879  84.6778946  22.2729893  77.8086777
  85.2360992  22.7001133  77.1589050  84.0885620  21.7223148  77.2932434
   8.6761332  64.6263351  84.7777252   8.4635010  65.5391998  84.5835495
   8.7436523  64.5939026  85.7319870  81.9531097   8.5518265  29.8468227
  82.5496674   8.7143612  30.5775299  82.3085632   7.7746119  29.4157543
  47.0094757  34.8242493  84.1831818  46.7332382  34.1306725  83.5841141
  46.4462280  35.5669975  83.9656677  16.2450733  34.3199158  79.4804840
  16.9686470  34.7031860  78.9847260  16.6392365  33.5846481  79.9497910
  25.5310516  27.6876411  73.1407394  26.2727890  27.6993771  73.7456512
  25.9178715  27.8678741  72.2839279  60.5902214  69.8477325  64.6305466
  60.7960777  69.5176468  63.7559624  60.6640854  69.0813904  65.1993103
  79.9008942  55.1092720  38.8667870  79.4822769  55.6577606  38.2033501
  79.5919266  54.2237854  38.6752396  64.3810120  29.0894527  85.1719589
  64.0239105  29.8197861  85.6772537  65.2821426  29.0013103  85.4824905
  10.7341928  71.2437134  51.9402046  11.5332575  71.5447693  51.5076599
  10.0441103  71.8042984  51.5855751  42.1573639  44.0950279  30.5302124
  42.5450592  43.3791580  31.0336494  41.6531677  44.5941238  31.1728039
   0.5156092  16.2504711  33.4304008   1.1966978  16.9149399  33.3263245
   0.9423071  15.5440149  33.9152527  11.6548204  68.3666229  60.7095909
  12.5795698  68.1462402  60.5977859  11.2557783  67.5631485  61.0433922
  46.3217278  54.7340736  18.5122795  45.4799118  54.8087425  18.0628338
  46.4345512  55.5772285  18.9511337  16.9514656  61.5306664  54.2671509
  17.1038017  61.2981873  53.3511925  16.6399899  62.4352379  54.2360573
  56.2347755  22.0771027  72.4310760  56.9187241  21.4358158  72.2382050
  56.7095222  22.8459911  72.7467575  75.9127045  25.9768333   1.7395278
  75.3568573  25.7941895   2.4970930  75.3250809  26.3862057   1.1044357
  57.1961441   8.2354202  40.4131241  57.1655884   9.1906366  40.4665947
  56.2905540   7.9586234  40.5528679  68.5726318  64.3962250  62.0142822
  67.6303787  64.3722000  61.8475113  68.6602402  64.1366196  62.9314308
  30.7739944  13.3595085   7.5544872  31.0871754  13.9175072   6.8425975
  31.5424652  12.8531532   7.8177109  74.4821625   5.8921852  51.2978745
  75.0800781   5.5648522  50.6258774  73.6781540   6.1006565  50.8221207
  43.2507896  40.8798714  14.6443024  42.9704323  40.8769073  13.7290859
  42.9731369  40.0285873  14.9826136  63.7255211  52.2210503  75.5250473
  64.5576248  52.3605995  75.9771042  63.7710228  51.3172302  75.2131577
  39.5452423  69.4001083  12.0353079  38.8945999  68.8467255  12.4673557
  40.3763504  69.1545258  12.4417267  75.7728424  18.0821152   0.3312383
  75.6477051  17.7086258  -0.5411599  75.6108932  19.0184975   0.2163768
  78.2645264  20.5813885  16.7597294  78.7023087  19.7554550  16.5537796
  78.8361435  21.0017395  17.4022179  24.6831150  48.1716614  60.1897240
  24.2050762  48.8598785  60.6524010  25.5724239  48.2205009  60.5404091
  66.2769089  50.4718018  23.3545628  65.4708023  50.0728149  23.0271111
  66.4798965  51.1580276  22.7188549  27.4641628  60.5185699  54.5222397
  27.1082859  59.6653709  54.2739716  27.0540314  61.1349030  53.9154816
  26.0218525  12.5274754  16.7974892  26.9497471  12.7359076  16.6888523
  25.8492775  12.6800594  17.7265568  83.5431671  42.3005142  87.6959534
  83.0147629  42.6897697  88.3927307  82.9481049  41.6948586  87.2540131
  71.5074005  56.5836143  75.8001404  71.6745071  57.5018272  75.5875626
  70.7101440  56.6015930  76.3295670   7.5672746  61.3471718  87.1088943
   6.6268001  61.4781380  87.2296677   7.7152839  61.5173416  86.1786423
  79.2144699   4.0751872  15.2759962  80.0451279   4.1295753  15.7485256
  78.5539322   3.9829383  15.9625912  40.6841888  64.3355942  75.7034302
  40.4980698  63.3967743  75.7178268  41.6379051  64.3897858  75.6424408
  50.1137314  70.6934433   3.8357563  50.4831696  69.8156357   3.9317408
  49.1663589  70.5569458   3.8453355   3.9853163  25.2976322  89.3246994
   4.5497260  24.9877052  88.6164551   3.1535234  24.8455505  89.1833725
  22.8783188   0.5332122  68.7746964  22.5057716  -0.3067614  68.5065842
  22.9761772   1.0233240  67.9583359  67.4880066  64.7801132  88.9636993
  68.0407944  64.3440933  89.6121979  66.6380692  64.3471603  89.0435715
  64.5626602  45.8389549  24.9847698  64.2526627  45.2754898  24.2757988
  63.8115463  46.3934937  25.1958389  62.9919624  20.2493973  31.5025330
  63.8897057  19.9666710  31.6767597  62.4492531  19.6592617  32.0254440
  38.2042847   3.9965479  13.2783766  38.0683174   3.6340556  12.4029655
  37.3360672   3.9819806  13.6811447   4.5764990  39.3322029  51.5069885
   4.9953108  39.5677795  50.6791420   4.1144347  38.5155487  51.3177719
  17.7639904  48.5286942  85.6230698  18.5062084  49.1303902  85.6805420
  17.5254822  48.3549118  86.5336456  59.3974686  50.0732040  63.5267258
  58.7550621  49.5121422  63.9611816  59.0380135  50.9565849  63.6083298
  45.2901802  65.8428268  18.2798996  44.9176865  65.4502106  19.0694122
  44.7223701  65.5402908  17.5711727  16.6775799  63.5522652  61.0841255
  16.5436878  63.9309120  60.2152596  17.6098118  63.6798248  61.2599220
  19.3640366  57.5262985  47.7448311  19.6496773  57.0645561  46.9565201
  19.9581280  57.2203178  48.4301491  59.5008926  43.0888252  75.4315186
  59.5288048  42.1331177  75.4770432  59.7075424  43.2912788  74.5190811
  30.9630070  40.0839767  75.5103760  30.8210945  39.7684631  76.4028702
  31.6569786  39.5222549  75.1652679  19.2028694  30.0859718  83.7342224
  18.5611458  30.4644547  84.3352051  18.6871357  29.5238590  83.1560516
  12.9309244  29.1423054   8.4271145  13.4244556  28.4551811   8.8749084
  12.7923727  29.8125477   9.0963030  52.7975922  57.1426926  15.6650925
  52.2743111  56.4512558  15.2597218  53.0795059  57.6904297  14.9324675
  28.6481190  68.0249100  70.1088715  28.0100555  68.7252274  69.9722748
  29.1845474  68.0316620  69.3161392  71.6807251  53.4423103   3.8231697
  71.6411285  54.1708870   4.4427166  72.6156998  53.3155441   3.6619570
  23.8384056  14.1456594  -0.2114144  23.0165272  13.7025957  -0.4222245
  23.7175751  14.4611111   0.6841983  46.8767242  10.7538033  66.0574188
  46.2773170  11.2220345  66.6385345  46.7948227   9.8363132  66.3176804
   7.2280779  33.6539955   5.2028780   6.7600293  33.3851700   5.9933805
   6.5601349  34.0722733   4.6596217  22.7974110   9.5843725  37.2551651
  22.2756138  10.3730164  37.1068459  23.4610424   9.6030712  36.5656166
  15.8895817  10.9295368  17.2010002  16.2862911  10.0593491  17.2413216
  14.9951410  10.7712421  16.8990917  38.4360886  24.8674507   1.8406361
  38.5956268  24.6831284   2.7662733  37.5151558  24.6432381   1.7070382
   9.8045979   8.8823757  61.4896202  10.6705904   8.6646767  61.8344345
   9.5623341   8.1258631  60.9555550  76.0569000  23.9975624  15.7560587
  75.1297150  24.1989326  15.8825703  76.1349258  23.0722980  15.9885015
  52.5365105  71.3681870   1.5277321  53.2053795  71.8413239   1.0327728
  52.9871254  71.0751724   2.3197703  31.2788963  36.5510406   2.9444246
  32.2190361  36.5374069   3.1238115  30.8726978  36.3096886   3.7768810
  66.2840271  12.5444546  31.9476604  66.7041245  11.7678394  31.5780430
  67.0090485  13.0735388  32.2802963  61.7815742  53.0559158  65.7126007
  61.6610184  53.3437881  66.6174927  61.8674202  52.1045113  65.7733459
  37.4574432  57.8521385   7.8500829  36.9570847  57.2888298   8.4404716
  37.9493713  58.4317551   8.4317036  26.5948849   3.9691367  55.5061607
  25.9649754   4.6809759  55.6189919  26.8520489   4.0205507  54.5855865
   6.1925306  23.5013409  87.9488297   6.6990967  24.1408024  87.4481125
   6.4794741  23.6240635  88.8537216  69.9525909  43.9595757  45.1534653
  70.4317474  43.1352386  45.2377510  69.2843704  43.9192352  45.8376350
   9.8587770  63.4017258  63.2306404   9.5847998  63.1632957  62.3450203
  10.1457529  62.5770302  63.6227570  73.8959122  69.0085907  66.8786316
  74.5972214  69.1812820  67.5067902  73.7436295  69.8517456  66.4518738
  -0.1238619  19.3419971  83.9333267   0.3359647  19.6032257  84.7311707
  -0.1609671  20.1400280  83.4060669  76.9234924  61.6860580   3.5037296
  77.7079315  61.2780838   3.1370587  77.1310806  61.8154144   4.4291515
  37.0019951  58.6232109  29.2817898  36.6025848  58.8772430  28.4498234
  36.6425705  57.7551460  29.4648514  46.3509445  17.6859417  40.4869690
  46.6063576  17.1318798  39.7494011  46.1635971  18.5379162  40.0929222
  14.3282328  66.1948013  21.2766590  14.0873785  65.4310303  20.7523651
  15.2149124  66.4126205  20.9892864   9.5100327  71.7219238  31.1659966
  10.2878237  72.2592850  31.3160267   9.8400698  70.8236847  31.1441574
  35.5187263  46.2472687  45.3554192  35.6083603  47.0502014  44.8420982
  36.2786560  46.2489891  45.9374275  54.9366646  33.3409042  78.1416245
  55.3404846  34.0772781  78.6008759  54.1986694  33.0882797  78.6964035
  34.6563034  24.4875317  88.7419586  34.6038704  25.1836643  89.3968506
  33.7443924  24.2594700  88.5613022  72.9124832  41.3431702  77.7383499
  73.0559692  40.5152588  78.1968384  73.7896347  41.7090683  77.6245270
  40.2688446   4.2036471  14.7293139  39.5180588   4.2602553  14.1382618
  39.9066887   3.8548863  15.5438318  80.4229279   6.4373417  51.7987747
  79.4867477   6.2712231  51.9092293  80.4720078   7.3484092  51.5093307
  33.8526955  40.6234016  26.1165924  34.6846313  40.8780670  26.5156708
  34.0111389  40.6820068  25.1744175  14.4599485  28.9177799  16.1066456
  14.1353264  28.6264057  16.9586754  13.6698513  29.0625229  15.5860424
   0.6196835  13.8878832  20.2545185   0.9819440  13.7589569  19.3779469
   1.3867011  13.9885435  20.8182411  59.5536995   8.4441500  50.0889397
  59.6786346   9.2436800  50.6001892  60.3026047   8.4212923  49.4932442
  43.1632805  55.2021523  11.8609934  42.2492752  55.4379120  12.0198736
  43.3813210  54.5972099  12.5700302  74.8844452  50.6918144  85.6386414
  75.6258316  50.1843262  85.3084412  75.0986633  51.5987587  85.4200211
  74.1680603  63.1684685  82.0798950  74.5464096  64.0117950  82.3286591
  73.7772598  62.8338432  82.8870773  76.8546066  34.8279953  57.8672943
  76.7159042  33.9125862  57.6243477  75.9773483  35.1613121  58.0558662
  80.3528214  26.9244347  60.5920258  79.6857452  26.4874020  60.0626488
  81.1133041  26.3450394  60.5451279  67.6518784  47.6829376  26.5295067
  68.1071548  48.4454384  26.8866463  68.0699310  47.5295143  25.6822014
  71.2759476  68.0858612  43.3809624  71.2738419  67.8670502  44.3128128
  71.5151520  67.2687149  42.9435959  55.8872147  32.0659409  12.3795109
  56.4669533  32.2275887  11.6351938  56.4670296  31.7419529  13.0687714
  51.9023857  33.6572075  66.3841782  52.5401306  32.9612846  66.2254105
  52.4104080  34.4661560  66.3229752  17.1287804  15.5740070  30.5454140
  16.6122246  16.3788376  30.5047913  17.6290588  15.5690498  29.7293701
   4.6477809  63.6444855   2.8034899   5.4164820  63.8271523   3.3438263
   4.3611131  62.7744484   3.0811446  53.4460793  52.0781136  76.2506866
  52.6899071  51.5046692  76.3755646  53.9414101  52.0023460  77.0662460
  82.2834930  10.6437979  44.9831619  81.8462067  11.3754025  44.5475388
  83.1344681  10.9950905  45.2451897  68.3064423   0.9623982  28.2504787
  67.6908798   0.2295570  28.2667522  67.8077011   1.7018702  28.5978603
   3.7808795  55.0662880  85.2704163   3.2670395  54.2645035  85.1737442
   4.6669426  54.8159142  85.0088120  28.5462742  45.4797058   6.9697123
  29.0672207  46.1018600   6.4620018  28.5232601  44.6897507   6.4296393
  45.3446083  10.9468069  51.0942955  45.7809029  10.7975903  50.2554779
  45.7024307  10.2739019  51.6734276   2.6559072  63.6526604  42.3924179
   2.2302666  62.8789520  42.0230484   3.0884736  63.3330040  43.1842117
  82.7600555  64.7802734  42.2741241  81.8601456  64.4653091  42.3590012
  82.7236633  65.4206696  41.5636330   4.2798715  17.9592323  75.7704620
   3.8913648  18.3530235  74.9892960   4.1013279  17.0231113  75.6808395
  66.4578323   9.1952534  33.7471390  66.0406570   8.4255133  33.3602295
  65.7895355   9.8789234  33.7001190  63.8962135  32.2591171  41.1459541
  63.1482162  32.0383263  40.5909958  63.5960159  32.0765305  42.0363312
  78.0560303  62.8779602  12.3291273  78.5942078  62.5155525  11.6253843
  78.6865463  63.1603203  12.9916687  13.0756187  39.4242744  85.0036621
  13.1185961  39.7970009  84.1230621  12.1873341  39.0743637  85.0725555
  83.9938507  23.4154472  56.1370888  84.5190430  23.8309822  55.4531746
  84.6113052  22.8530979  56.6047897  43.4967155  59.9846687  58.2313156
  43.5672722  59.3280945  57.5383797  44.1415825  59.7135887  58.8846893
  75.2681046  39.2856674  39.1263924  75.5200806  39.1801109  40.0437775
  75.6129913  38.5055504  38.6919899  10.3425579  14.3055124  81.2914200
  10.7702522  15.0364704  80.8453140   9.6015596  14.0817709  80.7283096
  11.9578323  46.1568413  69.2681046  12.7677593  45.9875870  68.7868576
  12.1644745  46.9041252  69.8294449  50.8939743  39.5340691   5.2517509
  50.1735840  39.5951385   5.8790755  51.4643860  38.8527527   5.6076546
  61.8247566  53.4563904   7.0785751  62.5458412  53.0888367   7.5896277
  61.0361099  53.0932236   7.4815416   2.8305390  54.6333313  57.7102356
   3.5448742  54.6914978  58.3447227   2.5733702  53.7114143  57.7229538
  83.7556534  17.4667511  64.6464310  83.6151657  17.7896042  63.7563400
  83.2204971  18.0391960  65.1961060  14.1688414  35.1266975  22.0601330
  14.3311996  34.5053062  22.7698841  13.5678129  35.7692337  22.4371510
  70.6170273  47.5092697   0.4002216  70.1959457  48.1860695  -0.1297454
  71.0244064  46.9239883  -0.2383060  61.9339638  59.3435936  20.2718067
  62.5207176  59.8868942  20.7979031  61.0549431  59.6199188  20.5310326
  85.3434677  56.1596603   8.2838678  86.0110931  56.6025505   7.7600784
  85.7861557  55.9460754   9.1052303  31.8728447  29.3859253  19.4895210
  32.0007935  29.9171238  20.2754536  31.8881760  30.0162334  18.7693062
  86.7500534  32.7118835   1.0176262  86.2977066  32.9756889   1.8188860
  86.0497284  32.5875397   0.3770707  66.2137375  39.0522652  12.7557964
  66.5661163  39.2919617  11.8987045  66.5221405  38.1576385  12.8998852
   6.8613510  43.7238884  55.0465660   5.9212112  43.7607651  54.8704758
   7.2707820  43.9063339  54.2008057  33.5285759  13.6295071  86.7015228
  33.0310440  12.8135195  86.7549667  34.4315224  13.3500204  86.5504990
  44.7282677  47.3774948  53.6975670  44.6898346  46.4980583  53.3216095
  44.3032761  47.2919350  54.5509682  25.5490208  51.8390312  21.4808388
  25.1871872  52.3927765  20.7889748  25.4606228  50.9471893  21.1446362
  86.3035660  41.8575478  45.2515030  86.9742508  42.5044746  45.4703712
  85.8021393  41.7495804  46.0596733  11.2897339   0.9167791  36.3396568
  10.5878029   1.0077699  35.6952629  11.9571552   0.3945042  35.8946762
  78.0877838  38.9376259  45.3336029  78.9109116  38.8194313  44.8595581
  77.4114304  38.6807289  44.7068748  49.1309586   1.2917253  54.1267471
  49.7604370   1.7976772  54.6405602  49.3310242   0.3789566  54.3342552
   4.2865090  21.7850742   4.3266940   4.9112439  21.4028854   3.7103584
   4.1647878  21.1097603   4.9940510  14.5614204  64.1582260   0.3589699
  14.4965649  64.1547546  -0.5960241  13.7133408  63.8300819   0.6578235
  37.5604439   2.7140143  21.4652882  36.9542923   2.2408702  22.0353317
  37.5604019   2.2147095  20.6486340  51.0153236   6.6627078  45.8797531
  51.8646240   7.0619750  46.0681801  50.4234390   7.4050393  45.7579002
  24.9258652  39.3468208   8.0099239  24.9033737  40.2225342   8.3957338
  25.5861130  39.4061890   7.3194299  66.2401352  61.0882912  55.8082848
  66.2112503  60.9923172  56.7602234  65.9966888  62.0007362  55.6520538
  42.2066612  49.0112801  38.8984566  42.9119072  49.2873611  38.3131027
  41.4804459  49.5999718  38.6928215  50.8108711  36.7685623  82.4755325
  51.2199326  36.0350037  82.0164032  49.8963852  36.7476273  82.1935577
  41.5935440  65.0231934  31.7315369  42.2141342  64.7735977  32.4162254
  41.0589371  64.2408447  31.5960560  80.5010147  48.3101273  20.0101376
  79.8659134  48.6815147  19.3978024  81.1315155  47.8531799  19.4534550
  50.5321922  10.2698174  85.8937912  50.4283676   9.6416359  86.6085205
  49.7155495  10.2062492  85.3985291  74.5801544  20.6325874  61.6096191
  73.7361984  21.0838146  61.6288223  75.1732864  21.2519760  61.1844406
  36.9859009  39.5310020  80.8002319  37.8255730  39.6083641  81.2532196
  36.4255638  39.0559769  81.4139175  86.2044296   6.4724731   6.3368969
  85.7652435   5.9865408   5.6388907  85.6138916   6.4008174   7.0868044
  67.1096039  67.6564484  55.9616051  67.8354111  68.1850281  56.2933273
  67.4543533  67.2474976  55.1677971  85.2364883  29.7317486   7.2715273
  85.6222458  30.1899986   6.5249166  84.6673813  30.3818169   7.6835418
  41.4176216  37.7774696  79.8373566  40.5880585  37.4795685  79.4641037
  41.3097610  38.7234077  79.9363403   8.8155460  51.2019920  13.2578716
   9.0111609  50.4892883  13.8661642   9.6622725  51.6181221  13.0962458
  66.6974106  53.6887512  67.9194107  67.0285187  52.9109421  67.4703979
  65.7471848  53.5737228  67.9285355  86.1217880  28.3579121   0.6368162
  86.9551697  28.6712208   0.2853299  85.8657608  27.6474190   0.0487017
  51.2571449   5.8242269  30.5340557  51.0347023   5.5576978  29.6420288
  52.0119019   5.2825780  30.7646942  28.1357346  46.9792137  84.2042542
  28.0062294  46.1362038  83.7697601  27.5417213  47.5766258  83.7498550
  63.8183441  25.7224350  28.4707680  63.0213585  25.9548626  27.9942951
  63.5800629  25.8108292  29.3936119  81.1329193   5.7309647  55.1843643
  80.8745346   6.0093036  54.3057289  81.1452713   6.5388508  55.6975861
  83.9841995   4.0055714  39.8002777  84.9019623   4.0080104  40.0722046
  83.4972610   3.8162847  40.6023331  48.7419014  15.4248486  66.6204453
  48.9993591  16.2049408  66.1291199  49.0896187  14.6941662  66.1091461
  52.5503464  50.4518433  87.7894287  52.9082832  49.8726044  87.1166840
  51.6053581  50.3033142  87.7553177  20.1882210  56.9155121  38.2157440
  19.5375862  56.6713943  38.8740120  20.9682713  56.4137650  38.4524002
  80.3007050  55.4513359  59.6366043  80.9781342  55.7053223  60.2633438
  80.1485977  56.2398338  59.1156769  82.7478943  57.6769638  72.6541519
  83.1483612  57.5651550  71.7919693  82.0952606  56.9787788  72.7074661
  82.2993317  22.5925541  64.6895065  82.1259918  23.4210892  64.2426147
  81.9696350  22.7261829  65.5781403   9.0882053  37.5375023  42.6378784
   9.6719217  37.3265419  43.3665771   8.6654320  38.3556824  42.8987846
  56.0686874  68.8236923  50.4391518  55.6324005  68.7835541  51.2901955
  56.9777222  69.0407104  50.6460152  55.6441383  25.8060913  36.2297287
  56.3469505  25.3363495  36.6787605  54.8392067  25.4208870  36.5760498
  72.3523865   0.8868320  40.5104713  72.3640823   0.2285729  41.2052994
  73.2704697   1.1335989  40.3988419   8.9351358  48.7328033  27.9965553
   8.7974377  49.6738129  28.1050510   8.8091612  48.5786858  27.0602798
  36.6806831  35.4838867  80.1457825  36.0596199  34.9458694  80.6367493
  36.1311264  36.0464859  79.6001587   9.0870228  56.3965683  25.0579052
   9.9578075  56.7510376  25.2376728   9.2518101  55.5160866  24.7205181
  51.2544479  56.2747765  36.6036606  51.7832031  55.6797447  36.0720711
  51.5078812  57.1492462  36.3081894  35.6428604  53.9232025  73.6430054
  34.7033386  53.8362961  73.8041840  35.7114143  54.0706329  72.6997147
  74.6047287  27.9519730  24.0456028  73.8899765  28.0762691  24.6700401
  74.2169876  28.1547813  23.1942730  43.5872116  65.6224594  39.3083878
  42.6672897  65.5196228  39.0646744  43.8118668  64.8020248  39.7473068
  28.4335365  27.0091686  23.6396618  28.9539318  27.7664547  23.3714447
  27.6412506  27.0615406  23.1050854  70.6670990  14.6276636   5.5092363
  70.0741119  13.9121246   5.7385907  70.1728973  15.4222431   5.7108164
  22.9407673  21.3789349   4.7711830  22.5768814  21.0367260   5.5877070
  23.8627872  21.1228275   4.7939720  72.5399704  48.7931786  60.5247498
  72.7118378  49.2203522  61.3639259  71.6936951  49.1434174  60.2465897
  23.7934418   7.5173001   1.1034589  24.1686611   6.6581669   0.9102423
  23.5317764   7.4631577   2.0226061  44.5666962  58.6562653  60.5414963
  45.3478279  58.1511612  60.7671890  43.8977737  57.9955177  60.3620911
   1.7307695  70.5103912   9.0130072   1.1933565  70.9622269   8.3624191
   1.6668682  69.5852814   8.7756929  79.0067139  14.4181976  87.7693481
  79.8090820  14.9170637  87.6158142  79.1815643  13.5591431  87.3850479
  29.7377663  48.6052856  85.9203339  29.2409954  48.0816460  85.2916412
  29.2186356  49.4017181  86.0318451  84.9206619  13.8651905   4.4243393
  85.1174850  14.4545841   5.1524243  84.9009705  12.9938707   4.8201251
   8.1562471   3.8107100  48.8064537   7.9609551   4.4208212  48.0952187
   9.0610914   4.0073271  49.0490036  53.7310791  18.3058357  13.7151184
  53.6143456  17.5457325  14.2850714  54.1353188  18.9668255  14.2771816
  77.0407410  46.3387489  40.6630211  77.0861588  45.3861008  40.7444344
  76.1217651  46.5496902  40.8279953  69.1029053  16.1495724  22.0479183
  69.5417404  15.3434849  22.3197269  68.2174454  16.0716953  22.4030704
  20.0596924  61.9273834   5.8743830  20.8172054  61.4389725   6.1966548
  20.2272167  62.8316879   6.1397209  42.4254150   1.0731840  85.5500793
  41.7918892   1.7882921  85.6092224  42.4351120   0.6886849  86.4266052
   2.4792502  34.9911613  81.3540955   3.3717759  34.8151398  81.0563583
   2.5345891  34.9587708  82.3091431   7.5996089   1.6481360  69.8471375
   6.8023558   2.1557131  69.9987488   7.2891793   0.7573267  69.6848907
  77.4548798  45.5570068  29.8538380  77.7378540  45.6106453  30.7666817
  77.6675034  44.6619759  29.5893669  80.4692459  38.5069275  73.0311432
  80.9256058  37.8683662  73.5790482  79.9835510  39.0508652  73.6511917
  47.6633110  42.9868279  64.9793854  48.4984131  43.3683624  65.2500687
  47.8921585  42.3913078  64.2657928  25.9186325  66.5616608  72.1398544
  26.5136395  67.1339569  72.6242905  25.8986893  65.7511215  72.6486435
  53.8893700   0.4199577  35.4846458  54.2000923   1.2601097  35.1472626
  54.6805420  -0.1124984  35.5669060   9.8217087  31.2253418  79.0966110
  10.7556868  31.0406208  78.9976425   9.7319660  32.1455231  78.8487396
  58.5358925  60.7587509  68.7903061  58.4554634  61.0482826  69.6991119
  59.3650856  60.2813072  68.7635269  44.0566483  35.0006638   4.9159503
  44.6074715  34.2278252   4.7912626  44.6706276  35.6975594   5.1474595
  75.7887573  66.5977859  15.3041859  76.0323486  66.5552597  16.2288952
  76.6225204  66.6730957  14.8400850  37.7107315  47.2690353   4.8817797
  36.9633942  47.2214279   4.2855806  38.1966362  48.0424423   4.5954781
  50.7053223  13.5439386  27.8672657  51.3712234  13.7608280  27.2147560
  49.8851662  13.5216970  27.3742352  26.1705532  55.2311859  88.5085907
  25.3749485  55.0214882  88.9977417  25.9737949  54.9714890  87.6085510
  83.5501328  20.8025627  24.4285755  84.3173218  20.8612041  23.8591766
  83.8814774  21.0195179  25.2999973   5.9850321  32.6648293   7.2542810
   6.3081436  32.7510262   8.1511650   6.4114132  31.8753300   6.9209309
  70.8790588  31.0735989  38.0970840  70.0354691  31.1802273  37.6575050
  71.2725601  30.3083420  37.6778374  70.7670898  38.5027313  40.4939117
  71.1426849  39.3831177  40.5023651  71.5143661  37.9249954  40.3389015
  14.4292383  67.8229675  66.8629303  14.8581839  68.1282043  66.0635147
  13.6452093  67.3680878  66.5553436  13.2594528  45.5136795  45.3637657
  13.0479527  44.5848122  45.4570847  12.8964119  45.9221153  46.1496468
  19.2386360   9.6936817   9.6586351  19.2236519  10.0216894  10.5577564
  18.7003040   8.9025927   9.6832781  25.7988777   2.3566151  77.5494080
  25.4203835   2.5397124  76.6894913  25.0703754   2.0063701  78.0620956
  42.2960815  28.6952095   5.8803349  42.2853165  29.5037861   5.3681612
  43.0742569  28.2287617   5.5752149  25.9852295  55.8517265  52.1499901
  26.5392876  55.3373642  52.7370911  26.3525143  56.7348976  52.1866302
  85.6627045  10.1917305  82.8600922  85.7558899   9.5394611  83.5544205
  86.5586395  10.3612175  82.5688705  58.5443268  23.3321438  63.9556694
  58.9490204  22.8928032  63.2077141  59.0476112  24.1396160  64.0601959
  43.5168114  49.9240532  11.0212955  44.4583893  49.9921150  11.1794968
  43.4009743  50.2405319  10.1253862  54.7440720  65.0011673  26.1867199
  54.9736214  64.1574783  26.5762444  54.7242317  65.6088333  26.9260254
  60.6260529  50.1949730  81.8860626  60.6520081  51.0146675  81.3924408
  59.7870102  49.7995224  81.6497116  24.6313915  19.1682186  19.0928459
  25.2985840  19.1577415  18.4065704  25.0828381  18.8407841  19.8708019
  13.6794958  56.3861923   3.1943047  13.6247005  57.3355370   3.3037062
  12.7804995  56.0792580   3.3119016  33.8483467  58.2225838  27.4121609
  33.3252907  59.0242348  27.4116592  34.7257118  58.5088997  27.1582222
  65.1451950  37.7132492  28.4967976  64.5227432  36.9880638  28.5506344
  64.5969162  38.4951859  28.4320107  81.0354233  25.0476227  63.7819748
  80.3948364  25.7139111  63.5330925  81.5261307  25.4441986  64.5018158
   6.1440396  39.9051857  46.4573135   5.4741783  39.9373741  45.7743187
   6.6425714  39.1106262  46.2665863  81.0897369  66.7570496  19.0227261
  80.8985062  65.8450165  19.2414856  80.8223114  67.2504807  19.7981224
  84.5539474  40.1484070  30.3857822  83.6839600  40.3062325  30.0191193
  84.6696548  40.8421059  31.0351086  18.3966599  68.7451401  10.5001278
  18.3149986  68.8478775   9.5519676  17.6747112  68.1647034  10.7412090
  71.3623657  66.0739822  36.6126556  70.6626282  66.1424484  37.2622070
  71.1429977  66.7329178  35.9539375  59.2371864  38.7449150  34.8982964
  58.6894913  37.9849358  35.0950089  60.1322517  38.4061317  34.9160576
  54.2288399  68.3842545  86.5669632  53.4311333  68.6905212  86.9983521
  54.4456253  69.0778580  85.9439468  39.4885712  57.9637985  64.6634979
  40.4102859  57.7164536  64.5894089  39.0473289  57.4487419  63.9880295
  41.6898537  53.4675102   7.8675237  41.0602646  53.2438545   7.1820822
  41.1497269  53.7425995   8.6083488  48.1199532  57.4705658  12.3719606
  48.9160004  57.3649025  11.8510246  48.3708649  57.1906357  13.2522535
  69.1821365   1.4222994  33.7397308  68.8234329   2.2190447  34.1305809
  69.7692566   1.0705954  34.4089317  24.9392738  24.7556438  65.0824280
  25.1497269  24.1617584  64.3618469  24.5482197  25.5189152  64.6573105
  70.1945801   3.0030062  43.5858231  70.3184891   3.7754767  44.1373367
  70.6559372   2.3027203  44.0473251  49.3269615  17.2965660  43.9772949
  49.9542351  16.9445820  43.3457375  49.8669205  17.7551479  44.6210175
  46.2642746  16.0218773  79.9742432  45.3075218  16.0342655  79.9477005
  46.4866791  15.1117058  80.1700821  53.6777229  21.1593304  73.0554276
  54.5988235  21.3314476  72.8600159  53.5820923  20.2133789  72.9446869
  44.3807259  19.3583717   1.7223320  43.8074570  19.1450958   0.9860527
  43.8108330  19.8058338   2.3478155  45.9092140  29.9164619   7.8852019
  46.5129738  29.7411709   8.6069889  45.0840759  30.1448364   8.3132486
  55.4779205  16.0229435  17.3872833  55.2352104  15.1135921  17.2129211
  55.6360016  16.0519352  18.3308945  31.2513485  61.7049103   0.0328126
  30.7890301  61.7089500   0.8709516  30.5960503  61.9909897  -0.6035649
  36.9201584  53.6266365  31.7530594  36.3690414  54.3683891  32.0026627
  37.8010254  53.8788414  32.0300102   7.6040158  40.8479004  31.0430832
   7.6809778  40.7092514  31.9870567   8.4158859  40.4921570  30.6817741
  72.6343307   6.7872162  38.2164345  72.4205551   7.6978965  38.0134735
  73.5833893   6.7332311  38.1041565  74.7857056  12.3523693  53.0720482
  75.1247940  11.6356077  53.6082420  75.4648819  12.5014277  52.4142227
  55.1881218  17.7025871  63.4267273  55.3388214  17.5907593  64.3653488
  55.0317993  16.8158512  63.1019287  72.4577637  69.2351379  59.8491783
  71.8229752  68.5197906  59.8096313  73.1408234  68.9838562  59.2274704
  13.7603083  42.6212959  28.5726986  14.0269423  43.3918457  29.0740852
  14.5448713  42.0739517  28.5393982  20.8543625  71.8855820  19.0673161
  21.2252026  71.1128387  18.6411972  20.2180557  71.5336456  19.6897984
  87.0422058  49.6469955  30.4983177  87.0633392  48.7689171  30.1178379
  86.4299393  50.1327972  29.9457283  54.8705101  20.1687279  66.0539398
  55.3960152  20.7868099  66.5619278  54.3237915  20.7215214  65.4955902
  48.6225471  22.7027683  28.8505573  48.6333084  23.5418644  29.3110275
  48.4649429  22.0547600  29.5371990  67.6118698  43.4337578  66.3979568
  68.1921005  42.9834709  67.0118027  67.0210571  43.9407616  66.9548416
  15.4741821  44.4815331  79.0018158  14.6299191  44.8404770  79.2749634
  16.0856915  44.7634392  79.6821213  72.0406265  48.5415382  67.6876526
  71.9401550  47.7399101  67.1743011  71.4243393  48.4402580  68.4130249
  73.0741959  48.4792671  34.7411232  73.0131454  47.8143196  35.4269447
  72.9430618  49.3091316  35.1997757  86.7470779  22.7078629   3.0112836
  87.1988678  23.4188004   3.4659152  85.9540634  23.1134605   2.6607995
  47.4387894  40.2323418  20.8276978  48.0198212  39.6331787  20.3590450
  47.5996017  40.0472107  21.7529526  65.6913757  43.5689926  47.1402779
  65.2173767  43.7077332  46.3203354  65.5007935  44.3485680  47.6619759
  16.3092251  51.4924736  36.6784248  16.2914982  51.7716370  37.5938416
  16.8860073  50.7285919  36.6721039  76.9083710   5.1611819  71.3037491
  77.3599854   4.5969486  70.6761169  76.0248337   4.7973309  71.3603745
  52.0958023  54.2151184  68.5448456  52.8559303  54.4443359  69.0795364
  51.3434258  54.3947372  69.1086655  11.0017815  58.8994942  13.3188934
  11.9133139  59.1901855  13.3478832  10.4992104  59.6568184  13.6190863
  31.2871494  29.1570225  83.5583954  31.3443470  28.5270729  84.2768097
  32.1571274  29.5542126  83.5182877  82.4738312  18.0098133  59.5127716
  82.0939560  18.5598011  58.8276138  82.4354248  17.1223125  59.1562653
   7.0098400  24.0118198  17.8972359   7.5181022  24.7330265  18.2683983
   7.2032380  23.2656078  18.4646816  49.0178680  63.3753395  44.9648361
  48.7705994  62.4511871  44.9326859  49.9727859  63.3702087  44.8990250
  69.7631073  40.2750740  84.4768295  70.4187622  40.6661911  83.8994446
  68.9626694  40.2563095  83.9522476  70.9320755  47.0709000  12.1074371
  71.3993454  47.6314735  11.4880447  70.5560532  47.6787949  12.7440710
   0.8198781  29.7601852  37.1938553   1.4650928  29.4711533  37.8391380
   1.1677644  30.5876122  36.8613358  22.2865677  47.3177109  17.5724297
  22.8029404  47.7224579  16.8754559  21.7506313  48.0312424  17.9186668
  67.6560669  28.5109043  78.1963425  67.3447266  29.2953014  77.7446518
  67.0627823  27.8172131  77.9081802  20.3377113  56.2088814  15.1070356
  20.3635616  55.2672539  14.9370251  19.4231682  56.3877525  15.3257799
  71.3913422  28.8156929  22.2100601  71.6919861  29.5482483  21.6722794
  72.0373077  28.1259079  22.0578747   1.0323241  55.6692543  61.5610542
   1.0284978  56.3594589  60.8978539   0.8372465  54.8684082  61.0744095
  31.7466793  11.6740150  86.0477600  32.2521133  10.8612328  86.0354233
  31.9948025  12.1226511  85.2394333  51.0885773  69.6015244  32.1900635
  51.2736740  70.1180038  31.4057045  50.1793137  69.8096848  32.4048538
  84.2775726  28.7486229  65.8452301  83.4473572  29.2242775  65.8180847
  84.3633270  28.4683075  66.7564392   6.4590974  14.5423374  10.8495817
   5.9547443  15.0770245  10.2364187   6.7896099  15.1663694  11.4957838
   8.0996675  16.1598415  12.7222757   8.6844673  16.6887379  12.1795893
   7.9671755  16.6836166  13.5124254  32.3585014  71.3019180  47.8831024
  31.4213524  71.4110718  47.7216415  32.4046211  70.7222977  48.6434631
  27.4647923  48.2416878  87.8934860  26.5163059  48.2985153  87.7778320
  27.7417488  49.1447906  88.0481873  60.2829323  27.6495113  81.9183273
  59.5105667  27.9885597  82.3707962  60.9930534  27.7437325  82.5532150
  43.4120064  13.8308773   9.2731915  43.3353882  13.1671934   8.5877094
  44.2948990  14.1848469   9.1662445  68.3826752  16.3181858  56.1442070
  67.8642654  15.6361389  55.7172470  67.9955750  16.4031124  57.0155106
  82.5255966  33.3964958  65.0222549  82.1506271  32.5722275  64.7120743
  82.5852814  33.2902145  65.9716644  56.8754539  62.4425011  36.8136902
  56.7596741  63.3089905  37.2035904  56.1800003  61.9107933  37.2008171
  13.2213964  57.8520241  53.2319336  14.0392122  57.6882401  53.7015991
  13.4979773  58.1875076  52.3791847  82.2891922   2.9239633  75.6068344
  83.1056366   2.8599200  75.1113205  82.5614700   3.1974843  76.4827805
  34.7339859  56.1204529  47.1018181  34.4596596  56.7235718  47.7926331
  34.1864243  55.3456955  47.2289162  60.8334198  42.3978386  71.4669113
  61.0574074  41.5111008  71.7493210  61.4176102  42.5686646  70.7281494
  28.8202648  54.3284950  56.4449844  29.7210121  54.0399170  56.2979927
  28.2816925  53.6040802  56.1265564  43.8599319  19.6754475  14.4766054
  43.4555473  20.5383282  14.5668440  43.7593346  19.2724266  15.3389769
  78.7144241  48.4097939  26.1919117  78.2784805  48.0480499  25.4203396
  79.5408173  48.7591248  25.8583412  85.8999176  47.4524040  72.2822418
  84.9683380  47.6718292  72.2980194  86.1831970  47.6740417  71.3951874
  81.6532211  30.0673389  78.3892975  82.2683868  29.7267990  77.7398071
  82.1479340  30.0713902  79.2087326  54.2071228  43.2464371  12.5577621
  53.7664948  43.5303612  11.7568445  53.6779594  43.6142616  13.2655220
  66.4989853  10.9737329   1.4627215  65.9308853  10.4410896   0.9061368
  66.4733047  10.5401964   2.3157268  57.0162888  64.6547165   7.5400977
  57.7721062  65.1349945   7.2019987  56.6536064  65.2251968   8.2177773
  81.7795868  43.5921783  65.1561584  80.9365692  43.9083443  65.4811172
  82.0474777  44.2455406  64.5099564  19.4492016  39.5772438  76.4107819
  19.8637028  40.1106491  77.0889435  19.4755478  40.1246910  75.6260300
  69.4917908   1.5093895  25.5699940  68.7321320   1.2884444  25.0311775
  69.1196442   1.7784438  26.4098434  85.9969177   9.9991770  52.4193954
  86.7279205   9.4336138  52.6684113  85.5120010   9.4913492  51.7688560
  51.3767624  71.1700516  77.8705521  50.9078789  70.8186951  77.1136322
  52.1602211  71.5760727  77.4996414   6.4447985  54.4005966  85.9856567
   7.1472778  54.5724068  86.6127396   6.8985205  54.1717186  85.1744919
  25.2112846  65.8479767  63.4849167  24.9256363  66.2867966  64.2862091
  25.7392273  66.5029678  63.0283089  59.7141647  18.0547428  81.9468231
  59.9368744  18.6843758  82.6325302  59.0805473  17.4668465  82.3580933
  55.6068077  29.1435089  59.7256050  54.9341431  29.3825760  60.3632584
  55.2949715  28.3224926  59.3449211  67.2253876  59.7349625  29.0785980
  66.5032043  59.1630249  29.3385582  67.9872208  59.3831635  29.5391159
  60.0396385  54.6059647  46.1702080  59.5590706  55.3739319  45.8611565
  59.7308998  54.4750290  47.0667381  67.0610657  33.7549667  71.9175873
  67.9648819  33.9949913  71.7132797  67.0743103  32.7996407  71.9759598
  13.1847219  18.8860016  72.1588898  12.8769789  19.5030499  72.8227997
  12.5085859  18.2091007  72.1292801  65.0411682  36.3037567  22.5966072
  65.3536072  36.7106056  23.4047432  64.8864136  37.0384407  22.0028725
  71.4517365  32.0847473  52.7186890  72.1008224  32.2510071  53.4022598
  71.6224823  31.1850777  52.4399872  63.8494186  49.5169945  41.2205963
  63.9367867  48.5638084  41.2145042  64.6514664  49.8336868  40.8050842
  16.8460827  65.1232834  47.7956314  17.2259388  65.0734100  48.6728172
  15.9968996  64.6891785  47.8773193  33.1622963  43.9541512  67.5622787
  32.3843765  44.3126297  67.9895554  33.2010612  43.0449600  67.8590927
  14.9292088   5.3810105  17.5535374  14.7008314   5.8472033  16.7493362
  14.1116228   5.3451819  18.0500259  28.4952412  19.9235554  19.7052555
  27.7632923  19.6353188  19.1599121  28.9004707  19.1119480  20.0107307
  76.8956451  23.0899639   9.3619595  76.6947632  22.1611862   9.2468596
  77.1374664  23.1701603  10.2846317  21.2002201  54.3383636  88.2581482
  20.2776661  54.5369606  88.4184189  21.2459641  53.3824158  88.2755585
  26.5021248  49.4238777  24.1909332  26.5561867  48.8599167  24.9624615
  25.9592304  50.1609535  24.4706020  42.5405960  55.2356796  68.1002274
  42.6328583  56.0299721  68.6263657  41.6548958  55.2878723  67.7410049
  72.6929932  58.0692558  26.0511589  72.3950195  58.6722374  26.7322330
  73.5851212  57.8379250  26.3096542  50.9170723  67.9514618  17.4524117
  51.8317184  67.9222031  17.1717052  50.9230309  68.5090256  18.2304363
  28.4749813  20.2103310  12.2199211  27.5367184  20.2498455  12.0346308
  28.6637802  19.2755184  12.3018513  75.9636993  42.4417038  48.7120552
  75.3891373  41.6795349  48.7841949  75.9004822  42.8709221  49.5652885
  64.2050400  -0.2108593  52.8539581  63.6771584   0.5840858  52.9290276
  65.0863876   0.1048374  52.6544724  86.3790741  25.5939369  23.1840572
  86.5417557  26.2327805  23.8780651  85.4865570  25.7794704  22.8921394
   2.1225605  52.7629013  45.6582756   1.9244800  52.4345932  44.7812309
   1.5868784  52.2255363  46.2418137  55.6950340   0.5475752  28.0472145
  54.8537788   0.7257053  27.6267452  56.3100281   0.4492181  27.3203430
   0.3610980  25.7359066   3.6814330   0.7365497  26.6009369   3.5171518
   1.0884385  25.1290512   3.5438268  34.2048912  24.8256741   7.4746423
  34.1972847  23.8758354   7.3564034  34.0525398  24.9516754   8.4112024
  70.5867004  34.4581261  15.2838659  71.2432785  33.8604202  14.9262619
  69.7660065  33.9676361  15.2379513  60.8893471  11.9205713  62.1791000
  61.7603836  12.2103472  62.4503212  61.0550079  11.1961803  61.5757370
  16.7406807  66.3181915  31.4424667  17.3941765  65.6218567  31.3769970
  16.3206005  66.3340530  30.5825176  59.9057846  49.3415260  57.0855179
  59.4410057  48.8521881  57.7643089  59.2387886  49.5263710  56.4243202
  40.9559441  23.0520573  76.4207535  40.9923286  22.5442238  75.6101913
  40.0951920  22.8534412  76.7893982  69.8355713  49.1583328  57.2667847
  69.9275513  49.6497688  58.0830345  68.9191895  49.2776871  57.0173187
  62.4342918  -0.0049824  84.7289886  62.5612640  -0.3600565  83.8491974
  62.4963608   0.9434669  84.6157455  16.2614670  57.8211136  51.0318756
  16.6677017  56.9728432  51.2097511  16.4919891  58.0110855  50.1224785
  18.2051945  52.8812599  55.5610962  17.3080750  53.1652069  55.7365532
  18.6333332  53.6541138  55.1928177  58.1438065  44.8752747  26.3675518
  58.0331192  44.4798889  25.5028820  57.2540398  44.9498405  26.7124977
  29.0325127  29.5861607  10.5001640  29.0589924  30.4965477  10.2056713
  29.8493767  29.2060242  10.1769600  18.5347729  70.1511078  31.7530022
  17.8785267  69.6075668  32.1890488  18.5122757  70.9815369  32.2285118
  80.0029221  61.0292816  41.1277504  80.4926605  60.3236923  40.7052193
  80.1639252  60.9057770  42.0631943  61.4681931  21.5023232   7.0916348
  60.5794640  21.4264984   6.7443047  61.3537712  21.5141697   8.0418978
  17.3197422  45.5341110  13.2824097  17.7085209  46.3867035  13.4777794
  17.9514465  45.1102905  12.7014132  10.6234369  43.4805260  18.3046532
  10.7663755  43.1639519  19.1966076   9.6751547  43.5935402  18.2396984
   8.1233540  28.9671230  78.8383255   8.3782673  28.4837055  79.6241760
   8.7176342  29.7171402  78.8151932  14.1815796  48.5983276  61.4084625
  13.6764202  49.3159485  61.0262756  14.7977142  48.3462677  60.7206573
  68.6121445  30.7405682  14.8690767  68.0706558  30.2880287  14.2223730
  68.6909943  31.6333027  14.5328617  64.1865387  68.8480301  35.7951241
  64.5069656  68.0911865  35.3044586  64.0329361  69.5178757  35.1288338
  66.3543472  64.2181473  41.5672073  67.1858292  64.1111679  41.1052361
  65.7862778  64.6627960  40.9380646  58.5980797  56.7563477  76.3626251
  59.0987244  56.6297569  75.5566711  58.9516869  56.1055412  76.9689636
  69.8685760  67.3360367   7.7311559  69.6213379  67.0886536   6.8401408
  69.0352631  67.4473190   8.1887932  29.9154911  71.7073364  37.8722191
  30.3359509  71.5036774  38.7076645  29.2969856  70.9899521  37.7342110
  59.6481590  61.4078255   4.9312687  60.0946693  60.5807457   5.1123805
  60.3511162  62.0564651   4.8945007  64.0959320  14.9463606  65.8898697
  63.6117668  14.7600441  66.6942902  64.9865265  14.6461430  66.0713654
  44.4417000  46.9797325  11.0017843  45.0144005  47.3597374  10.3355694
  44.8166695  47.2694168  11.8334780  59.7976456  42.9566116  17.0369339
  59.6278687  43.0881271  16.1041355  60.7513885  42.9082756  17.1023045
  10.1244574  11.5616693  65.4505081  10.2535200  10.6264238  65.2927399
   9.7846174  11.6091681  66.3440857  82.7296143  32.2275925   5.5233035
  82.1049957  31.5245323   5.3449917  83.5529480  31.9179401   5.1458592
  16.1005535  66.3631592  38.2386894  15.8105106  66.9654541  37.5536041
  15.4059734  65.7065430  38.2901344  43.1882820  59.5724297  46.0326653
  42.5218887  58.9653969  46.3546295  42.9850159  60.4022179  46.4643631
  54.9341736  15.3855858  72.1658554  54.7563782  15.4350605  71.2266159
  54.4042778  16.0856361  72.5471268  24.0555573  16.8158970  16.2323360
  23.7800732  17.6764278  15.9163790  23.2494621  16.3002815  16.2564659
  44.4102440   5.1807728  45.2224884  45.2857246   5.1225142  45.6050758
  43.8174820   5.1345973  45.9726486  45.0344353  24.6514034   3.3711202
  44.8087044  23.8401394   3.8262315  45.8254509  24.4365826   2.8767774
  72.4015274  63.7985191  80.1188660  73.0514908  63.4654808  80.7376328
  72.8030472  63.6730347  79.2590561  31.9392967   4.7403507  82.0648804
  31.3363838   5.1508026  82.6847687  31.8405247   5.2506366  81.2610855
  51.0213356   5.0317044   6.3085437  51.4303169   5.8842964   6.1600399
  50.0817680   5.2018180   6.2414217  23.6600227  36.1221771   0.8516907
  24.5639515  36.4141312   0.9696227  23.1356277  36.7708397   1.3212394
  56.8045044   1.1133301   1.7953173  57.1202126   0.2227757   1.6421083
  57.4078369   1.4727550   2.4457319  45.4986687  21.2502422  86.8462067
  45.5035667  20.7242107  86.0465240  44.8970146  20.7904015  87.4316940
  22.9877834  10.0624981  26.3850441  23.4735203  10.8467512  26.6404648
  23.2957287   9.3838139  26.9857025   9.0355911  42.9227333  85.7122040
   9.6363697  42.6943474  85.0028839   8.3025856  43.3561172  85.2750397
  22.4477749  45.5492592  87.0100327  22.8215637  44.8357239  86.4929428
  22.3837872  46.2814369  86.3967972  81.0609818  33.1231956  78.3269348
  81.5545425  32.8123741  77.5679855  81.2992859  32.5200768  79.0309906
  84.6903381  44.7969475  68.4676666  85.5017242  44.5048676  68.8830872
  84.2087021  45.2386627  69.1670609  66.6806107  55.3577766  39.1914368
  66.7295380  54.4087639  39.3063660  65.9679718  55.6324883  39.7684250
  10.6531172  23.6311569  31.5755348  11.5419874  23.6895638  31.2252064
  10.3618259  22.7492828  31.3438454  11.0156507  21.6742420  18.9281616
  10.7506876  22.4374886  19.4414654  11.9369001  21.5428848  19.1523857
  68.9586868   8.1256065  55.3247185  68.3002319   8.4172487  54.6941452
  69.6140594   7.6724000  54.7943268  72.3704758   8.5193110  63.7640839
  73.0331879   9.1780462  63.5564575  71.5384903   8.9884253  63.7010651
  82.9436493  34.7529106  55.8280869  83.7517166  34.6522713  56.3312149
  82.3794174  35.2885132  56.3857613   4.8772039  54.9617844  69.8017807
   4.0307875  55.4004745  69.8875732   4.9673481  54.7966652  68.8632431
  80.7340164   7.2381554   6.3662109  81.3713760   7.4879856   7.0352316
  80.9591675   6.3340940   6.1466365  73.5062561  33.4028244  26.2410316
  73.6293716  32.4888687  26.4974709  73.9410629  33.4738045  25.3912449
   9.8378658   8.0688639  12.5984468  10.0083609   8.6102705  13.3691883
   9.2841511   8.6146450  12.0400963  59.0475769  38.6152306  10.8711929
  59.6251373  38.8908577  11.5830135  58.7170982  37.7606544  11.1481647
  52.1205521  54.8816833  86.4424286  52.9765358  54.6012611  86.7662888
  51.5197754  54.1923981  86.7255936  69.5223007   4.9606690  81.9635010
  69.8251495   5.8324537  82.2174759  68.8451614   5.1241794  81.3069992
  18.6535816  54.3263359  35.8497734  18.3187637  54.6943092  36.6675339
  18.4552479  53.3917694  35.9087524  37.6726418  15.7849102   2.3834395
  37.4705734  14.8520174   2.3119357  37.3856964  16.1567440   1.5493921
  57.6665039  35.1913872  65.8987427  58.1078186  35.1156158  66.7447510
  58.2534027  34.7533607  65.2823639  58.5021629   0.2942173  42.0658264
  59.3813515   0.1636552  41.7105675  57.9480629  -0.2981524  41.5575905
  72.7182159  59.3646889  14.5017462  73.2074051  58.7860756  13.9168243
  71.9477997  58.8553276  14.7532396  76.1438675  38.7484207  41.6396942
  75.7916183  38.0318718  42.1676216  77.0896759  38.6011925  41.6366692
  55.1680489  59.2439613  11.2433777  55.1789131  59.3571167  10.2929516
  54.6846237  60.0030479  11.5694466  42.5434761  68.9688110  17.0281773
  41.6534119  68.6223602  17.0913830  43.0019989  68.3490524  16.4608231
  36.1345863  28.8075695  86.1853485  35.2570572  29.1327972  86.3863525
  36.0170212  28.2691326  85.4027252  75.5337906  71.2174759  68.3799820
  75.9518204  71.5094070  67.5698853  75.3849030  72.0223465  68.8762054
  49.9211426  68.3545761  43.9819412  50.2730026  69.1750488  43.6366196
  48.9923515  68.5346603  44.1273537  30.4753723  71.2775040  85.1281052
  30.1771049  72.0061951  84.5837860  31.3140240  71.0201111  84.7451630
  32.5118561   1.0270475  54.4171486  32.9702301   0.1999869  54.5658035
  31.5893555   0.8198026  54.5663757  42.7207108  43.0177422   7.1179380
  43.3465271  43.5315056   6.6074128  43.2448349  42.6288795   7.8181605
   7.0141830  19.5809383  19.5630074   6.2266226  19.0400276  19.6212997
   7.6275363  19.1779690  20.1775360  56.5455894  64.6460800  45.8680153
  57.4119759  64.7254715  45.4688911  56.0551300  65.3937836  45.5265121
  57.5941811  28.0582218  19.5966129  57.5034981  27.3043041  19.0138474
  56.7587662  28.1033173  20.0616722  12.5342789  71.7035599  42.9789124
  12.1178331  72.0918121  43.7483711  12.2185898  70.8000107  42.9660149
  35.0293045  30.7335205  11.7270641  35.1771622  31.3619938  11.0203886
  34.2150688  31.0230904  12.1386490  12.3691959   7.7906222  22.0914974
  11.7878485   8.3128576  21.5387440  12.6985826   8.4087954  22.7438774
  13.3908653   4.9666076  28.4244823  14.2833319   5.1850805  28.1561432
  12.8657055   5.0916524  27.6340389  43.5638351  42.6243248  77.9454117
  43.0740623  43.4156342  77.7213974  43.9669647  42.8233452  78.7904587
  75.3650665  63.3961487  48.7763329  75.7282257  64.2075272  48.4213486
  75.5594482  63.4362717  49.7127304  42.2623329  42.6438255  27.7287178
  43.2154312  42.5555000  27.7342281  42.0610657  43.1179657  28.5355110
  79.8656693  12.9490862  33.9782524  80.8026428  13.0488310  33.8098335
  79.6117172  13.7648621  34.4098167  35.1241951  69.5387192  33.2539597
  34.9302139  69.5150070  34.1909981  35.1847763  68.6182251  32.9985390
  47.0363579  36.8488922  18.1853008  46.7114220  35.9676094  18.3696556
  46.3751068  37.4311142  18.5594540   1.6538745   6.2792959   4.8630714
   1.6485804   7.1274815   4.4194660   0.9666559   6.3511596   5.5254898
  24.9750462  13.1616125  75.7940369  24.8892174  13.9436474  75.2487946
  25.9188118  13.0550766  75.9131470  61.5518456  35.9119644  21.8557434
  61.4508514  35.7038498  22.7845707  60.6582069  36.0541573  21.5436077
  72.9155045  63.6931877   0.6650490  73.3345490  64.3730469   1.1927085
  73.4446869  62.9105148   0.8187359  39.3676338  40.6335411  45.5884972
  39.9715347  41.0886765  45.0016556  38.8272591  41.3293610  45.9627419
  75.9772186  10.8029766  72.8795929  75.9122238  10.9658852  73.8205872
  75.6916046   9.8955812  72.7733231  45.1386261  43.8506393  46.1005859
  46.0088425  43.4939690  46.2787514  44.7795982  44.0494156  46.9653511
  54.4479179  35.4220467  66.4851761  54.8187943  35.3866081  67.3668900
  55.2078896  35.5016975  65.9086914  15.6899939  68.6325607  83.0394592
  16.6307926  68.4606247  83.0790482  15.5453377  68.9709778  82.1558456
  33.9753075  51.8138275  76.6009598  33.5613289  50.9534836  76.5327072
  34.9092140  51.6402931  76.4829102  16.4094734   3.8811102  27.1274395
  16.8512249   3.2833092  27.7305317  16.2897205   4.6854687  27.6323128
  62.6035957  56.5965958  24.1715851  63.3386269  56.4610443  23.5735970
  62.0722656  57.2713394  23.7489243  85.9452591  69.6049881  83.6856155
  85.2639923  70.2707596  83.5914688  86.6724854  70.0642014  84.1057281
  49.4915352   7.2104630  74.9723129  49.6440430   7.9264526  74.3556061
  49.6057930   7.6090350  75.8350525   3.8363833  53.7159157  47.2897873
   3.0657544  53.4407158  46.7931709   3.5186312  53.8203278  48.1866493
  50.0446968  31.8423767  85.7356110  50.0785484  30.8939228  85.8601913
  50.4408379  32.2024612  86.5291138  17.9885445  44.2630424  67.9440994
  18.8740616  44.2193489  68.3049088  18.0683899  43.8875122  67.0672684
  85.4326477  55.3363724   3.4092054  84.7998886  54.6555672   3.1803939
  86.1683197  55.1891556   2.8147728  62.0893898  25.2685127  17.8338833
  61.9974594  24.3162518  17.8651981  62.7171669  25.4714680  18.5273781
  80.5914536  41.3577881  70.0508118  80.5925446  42.3065720  69.9241714
  79.9730148  41.2124329  70.7667999  68.3215256  14.8098602   1.1095887
  67.8970642  15.3693981   0.4592181  67.6389084  14.6354542   1.7575518
  59.4554939  59.1152992  63.9907227  59.7184601  58.6737442  64.7982559
  58.5734558  59.4401131  64.1716614  19.3600693  54.7277298  53.9282417
  20.2286453  54.8414650  53.5424004  19.3709698  55.2802277  54.7098198
  50.2077827  15.6420403  50.2398987  50.0311584  15.7012081  49.3009987
  49.4647102  16.0830975  50.6516609  67.6377258   6.4652591  17.1690807
  67.8636780   5.5707979  16.9139023  67.8688126   6.5153303  18.0966187
  50.8259048  61.0272636  34.4452019  50.6298370  60.1976013  34.0099411
  50.3243408  61.6790504  33.9554672  54.2540817  53.4453506   9.8465624
  54.1487389  52.8250427   9.1252069  54.9090881  54.0687675   9.5326405
  70.5834503   0.6829605  16.9863796  70.7570343   1.5294948  16.5746994
  70.9480057   0.0410572  16.3770428  37.6921883  48.2504807  68.7724686
  38.2822990  48.9627037  69.0189285  38.2742081  47.5306664  68.5288315
  85.4677048   9.3761311  58.9918175  85.1913757   8.4724426  59.1442108
  85.6394348   9.7248268  59.8665466  42.0389557   4.4753156  24.7881241
  41.3125648   4.8719392  24.3072128  41.8930206   4.7335148  25.6982174
  23.0468559   3.9719977  81.4526749  22.3147888   3.8252180  80.8537064
  23.7512035   4.3006887  80.8940201  52.9976692  32.3446503  80.0170593
  52.4015961  31.8409710  80.5713501  52.6877747  32.1854439  79.1255188
  39.3579597  57.3406601  44.6297302  39.3719177  56.4917564  44.1876945
  38.5156784  57.3603096  45.0840530  12.9233847  42.1893463  50.8167076
  12.5228710  42.6345520  51.5634422  12.5440054  41.3106384  50.8300972
  20.4406357  68.6224594  22.4342136  20.9216347  69.4364700  22.5834312
  21.1036263  68.0060654  22.1231976  78.8499146  68.7024078   8.6291885
  78.3768311  68.2427597   9.3228331  79.6593399  68.2032700   8.5199661
  43.2637253  49.2731743  73.1833954  43.0076561  49.2336006  74.1048508
  43.7274818  48.4503403  73.0281296  73.1096878   1.0990283  28.7688999
  72.2646103   1.0873868  29.2182770  73.7512512   1.2227213  29.4684238
  35.1866608  29.4695244  20.3029442  35.0931549  29.4421196  19.3507175
  35.4171715  30.3785038  20.4949131  20.5215225  17.6876030  71.9402695
  21.3291683  17.2708492  72.2406998  20.0025997  17.8056202  72.7358932
  68.6384048  62.1101303  50.7773628  69.2820511  61.4018860  50.7959595
  67.8034058  61.6798286  50.9613457  18.6125221  61.1127205  44.9169846
  18.2674923  61.9103699  45.3181610  19.1923351  60.7416039  45.5820580
   3.2990189  45.5225945   5.5610228   3.5282080  45.3723145   6.4781489
   3.3506556  46.4723625   5.4537687  51.1431961  32.5662537  22.9379826
  51.2013283  33.2413101  23.6141148  50.8676834  33.0377541  22.1518440
  33.9696579  65.5603638  29.4364643  34.8000069  65.3925934  29.8821182
  34.0873451  66.4166031  29.0250816  74.0528107  40.2408981  36.4721565
  74.2782059  40.2532806  37.4023590  74.7849808  39.7874870  36.0543213
  24.6364479  39.9025726  79.6506119  25.3273258  39.2830696  79.4158020
  24.5477867  39.8140869  80.5995789  40.4593811  59.0448151  28.0372276
  39.9974098  58.2344093  28.2518349  41.1782074  58.7675285  27.4692192
  57.1898956  61.4155731  61.6008415  57.8188820  60.7066727  61.4664154
  57.7237968  62.2099075  61.6155243   9.0517883  10.5734930  80.0945206
   9.3477898  10.5527554  79.1844788   8.2754555  11.1332798  80.0811768
  21.9965134   6.9795661   8.1037169  22.9438553   6.9840007   8.2406673
  21.7746067   7.8952847   7.9350495  34.6976166  61.1706085   9.3982248
  34.7617912  61.7786789  10.1346807  35.3106232  61.5153160   8.7488918
  20.7378159  12.0790243  39.4130096  20.8041267  11.5522203  40.2094460
  21.4508018  12.7135544  39.4855003   5.9791994  55.4754562  35.8016968
   6.2499790  55.3935585  36.7161369   5.0232010  55.5079231  35.8369789
  56.9914169  55.8634415  49.5277481  57.5119019  56.6577911  49.6474609
  56.3476562  56.0974121  48.8591156  60.6983223  67.5074387  85.3231506
  60.4672661  67.3051605  84.4165497  60.5760460  68.4539948  85.3959961
  70.0871506  51.0960808  59.2368050  70.6172104  51.8916245  59.2854919
  69.8668365  50.8989716  60.1472130  20.1131706  49.3195915   6.3364339
  19.5763931  50.0793648   6.1109438  19.6810627  48.5838203   5.9026623
  36.2422867  49.8294411  54.1026955  37.1108818  49.5012741  53.8701401
  36.3893433  50.3646507  54.8825417  25.1787777  22.4262218  24.6360512
  25.9346504  21.8854237  24.8650112  25.2914982  22.6131248  23.7040672
  41.1618500   6.7209325  52.4862823  41.7877159   7.0596409  51.8461266
  40.4888382   7.3990283  52.5452118  47.2328186   5.1962061  46.0563583
  47.0152855   4.2801485  46.2288399  48.1418571   5.2845507  46.3428459
  69.5504837  46.1983261  82.5522690  69.3014526  45.3048363  82.7886734
  68.7461166  46.5886574  82.2104111  49.3858414   3.9842229  36.0905571
  50.1648026   3.8089175  35.5626259  49.6450653   4.7013187  36.6691856
  11.7301321   9.8787098  87.3996811  11.3596163  10.4364738  88.0836716
  11.4179964  10.2642365  86.5810394  39.0855408   5.2623329   5.7725954
  39.5196800   5.0725665   4.9408832  39.5542450   6.0213118   6.1197271
  32.8860245  49.7561989  79.5779572  33.2541771  49.4380875  78.7536392
  33.5011559  50.4282990  79.8714371  83.7027969  24.5377579  26.6032963
  83.0815048  24.5377216  27.3314610  83.9424057  23.6176376  26.4928474
  50.2057838  33.9437141   4.8972435  50.4375610  34.7094078   5.4228115
  49.4924927  33.5278320   5.3814864  29.4106426  58.0040588  57.1789551
  29.0324821  57.3371124  56.6058846  29.6705933  58.7094917  56.5864792
  59.1917648  11.0898237  19.2771549  58.5086479  11.5563641  18.7955666
  59.0446014  11.3278465  20.1925354  39.1325417  36.6929970  67.6342468
  38.6499634  37.1412010  66.9396515  38.7944870  35.7975693  67.6213837
  49.2346764   4.1083064  11.6883640  49.6774406   4.6575851  12.3352680
  48.9108620   3.3605134  12.1905403  68.4458160  10.9374771  10.1612148
  67.8556366  11.2163897   9.4611187  68.5228195   9.9903107  10.0464230
  71.4100266  43.0307617  42.3978119  71.1663361  43.2234268  43.3031960
  70.7605133  43.4961281  41.8707428  67.2625656  68.6207123  42.2814827
  67.0336533  68.9749756  43.1407433  68.1772842  68.8725281  42.1545334
  15.3568563  13.5585203  30.9051514  15.8921223  13.1854429  31.6055336
  15.8154783  14.3604279  30.6544704  27.0888824  15.9645615   0.6347679
  27.2948303  16.8947029   0.5417322  26.1339550  15.9242992   0.5825787
  11.9037066  60.7813988  62.1104088  11.3953600  59.9765320  62.2104416
  11.7815399  61.2462807  62.9381714  62.7619743   7.3555260   8.2264652
  62.7495346   8.1868095   8.7008543  63.6759453   7.2422938   7.9655738
  22.4915829  43.1146049  19.6647301  22.0211563  42.2972450  19.8286076
  22.2877102  43.3299599  18.7546253   2.5530925  53.4078789  55.3236427
   2.7258167  54.0513725  56.0108910   1.8184768  52.8927002  55.6570549
  68.6005325  53.4677696  62.1626091  68.2095490  54.1734734  61.6474876
  69.1941833  53.0277100  61.5542107   1.6789681  44.3947601  58.1333199
   2.1725740  44.2341957  58.9375610   1.1988642  43.5809059  57.9804344
  46.5920334  28.4163094  29.5869274  46.1526604  27.5738640  29.4708519
  45.9869347  28.9303684  30.1215572  23.2119312  14.9474678  83.5274963
  22.7871113  15.2608356  84.3259659  22.8071518  14.0966005  83.3589401
  19.6199150  29.3245163  13.1804142  19.7811451  28.4700642  13.5806036
  20.0063400  29.2568150  12.3073025  10.3271999  38.9871483  17.2181835
  11.0158167  39.5275230  17.6055279   9.5362806  39.2233963  17.7028141
  58.7876663  58.5785408  54.7108459  58.5454445  57.6726608  54.5186424
  58.8684120  58.9923592  53.8515053  42.3693047  61.0976753  67.8905258
  42.7701950  60.9822998  68.7520370  42.7807884  61.8870392  67.5386505
   1.1540624  20.9694176  85.6068649   1.9074708  21.0626640  86.1898804
   0.8363671  21.8635674  85.4811707  34.0747643  69.8663101  42.8732147
  33.3894157  69.5412979  42.2893524  33.6033173  70.3586273  43.5452194
  64.8648758  34.1676636  43.2998924  65.1873703  33.8641739  44.1484947
  65.5236893  34.7958832  43.0040283  81.7763596  67.4940872   1.3044900
  80.8280716  67.3683243   1.3386085  82.1350403  66.6068726   1.2838197
  56.9176140   3.3760581  -0.0236746  57.8733406   3.4099693   0.0171954
  56.6794548   2.6431968   0.5441511  42.5089684  65.5056458  28.3260708
  43.4146652  65.5875702  28.6247826  42.2757645  64.5967026  28.5149441
  76.1167221  14.5776100  35.6160469  75.8808746  14.0036764  36.3448830
  75.7704315  14.1352186  34.8410606  38.8871117  49.4657822  87.2331772
  38.1237030  49.5998497  87.7948380  39.5428085  50.0760956  87.5705338
  71.6209869  52.6780014  79.7316360  71.6053848  53.3413315  80.4215469
  71.2382431  53.1147728  78.9707336  34.0292854   2.3164260  13.8392944
  33.5971985   2.4925227  14.6750708  34.8668518   1.9212517  14.0812616
  55.0335464  13.6234722  68.4618225  55.3622360  12.7376041  68.3087540
  54.2675400  13.5011473  69.0226288  46.7429848  42.8348503  20.0746975
  46.7877846  41.8951416  20.2512569  47.3157921  43.2296562  20.7321568
  47.2417183  39.2125320   7.4301963  47.5598640  38.4208183   6.9963694
  48.0355034  39.6630936   7.7185206  68.9406586  31.5415554  67.2113495
  68.5876846  31.6678486  68.0920792  69.8486938  31.2740555  67.3533096
  32.5729866  33.1508560  69.3721390  32.4226074  32.4700623  70.0279846
  32.4664268  33.9726639  69.8512039  62.5209808  11.8114662  78.8200302
  62.6949234  11.7066355  77.8846207  63.2772141  11.4126081  79.2504501
   0.4606028  14.7355261   0.0395360   0.0534031  14.1373882   0.6661542
   0.4620477  15.5833378   0.4838842  72.3537064   4.8040271  67.3015594
  73.1265335   4.4891291  67.7704010  72.7071152   5.2931380  66.5585251
   8.4358921  55.4627075  54.3998909   7.7030044  55.2901115  53.8088608
   8.5021095  56.4172325  54.4269295  75.9671021   8.2130566  52.2462006
  76.3228989   8.3798323  51.3733711  75.0897751   7.8659120  52.0849037
  29.7561531   8.4395428   8.9089031  29.6891785   8.4238729   7.9541774
  30.3258209   7.7001934   9.1212082  11.4179907  57.8534508  72.4360199
  11.5392170  57.6539078  73.3643036  10.5760536  58.3071175  72.3965149
   7.7210283  10.7362280  62.0934753   8.5003996  10.2029047  61.9373436
   8.0529127  11.5261917  62.5201378   6.9888840  41.7275505  76.2805786
   7.5430274  41.4377747  75.5558777   7.6034226  41.9292259  76.9861984
  27.4972382  68.2556534  32.7235641  28.2072067  67.9272690  32.1718941
  26.7602139  67.6741562  32.5367661  65.3999252  19.2042122  76.3048401
  65.6069946  18.3138027  76.5886078  65.6422501  19.2229824  75.3790054
  53.2409515   7.9402447  16.0249901  53.7176132   7.7572994  16.8346539
  52.3677406   8.2036543  16.3154259   4.9378066  11.4355564  30.8483181
   5.7850914  11.6842794  31.2177467   4.5671878  10.8269911  31.4874744
  78.8708115   6.6165314  73.5291138  78.0792694   6.6799722  72.9946365
  78.7837372   5.7809296  73.9878311  22.4588356  15.6973200  43.3826828
  22.9416714  15.4785271  42.5856705  22.4977169  16.6524734  43.4316826
  20.8720589  54.7733459  42.6039619  21.7638741  55.0674782  42.4185371
  20.9734707  54.1267319  43.3024178  23.7359638  68.6091919  71.6569366
  24.2320652  69.4254456  71.7189560  24.2538452  67.9758148  72.1538010
  10.2887287  44.2113037  26.0630112  10.6672783  44.1278915  26.9382095
  10.4640846  45.1181068  25.8116360   9.4706717  69.3640518  89.3595810
   9.3337879  70.2459335  89.0135040   9.4644842  68.7997208  88.5864563
  12.5991173  48.0272179  39.7135544  11.9096365  47.7304802  39.1195908
  12.9340057  47.2239456  40.1120987  69.4902649  17.0227127   5.9447451
  69.4905472  17.7624359   6.5522342  68.6315155  16.6165638   6.0623126
  64.0318680   0.2923471  50.0642433  64.2675858   1.0916969  50.5351028
  63.7478180  -0.3137552  50.7484894  74.2320633  58.5109978  86.7301865
  74.7528915  58.4487457  85.9294968  73.6799850  59.2815971  86.5974884
  11.5331564  35.7955627  65.7019653  11.9389563  34.9291420  65.6724319
  12.2709370  36.4052582  65.7154007  11.5252361   1.7204268  84.4572830
  10.7560043   1.9052436  83.9184341  11.6499071   2.5144465  84.9771118
  48.9991417  30.3625317  71.4022293  48.6994400  31.2505035  71.2075119
  48.4423180  29.7986794  70.8653412  59.7917023  23.5264053  13.9112587
  59.2973251  24.3311787  13.7558212  59.3724098  23.1316299  14.6758375
  48.0857468  47.7135735   2.6759965  47.6834412  47.4623985   1.8445567
  47.5717392  48.4641762   2.9736934  48.9815369   6.3887863  70.5593872
  48.0597382   6.3261876  70.3091888  49.3495636   7.0360441  69.9578552
  70.1218338   2.2533216  40.0779305  69.3549271   1.7422137  40.3364830
  70.8668060   1.6897757  40.2868996  31.1867828   1.3059061   3.7117414
  31.9048996   1.7667342   4.1455364  30.8631458   1.9269713   3.0592322
   1.4390107   7.3953595  37.7694130   2.0860410   7.6367178  37.1065941
   0.6340388   7.2435594  37.2742271  77.4664841  24.6376286  31.6781807
  77.2903366  25.0041084  30.8116379  77.4106979  25.3870544  32.2710381
  83.7609558  10.7820139  33.8365479  84.4338608  11.1991558  34.3745346
  83.0278854  10.6419659  34.4358978  22.2688847  69.1974106  19.1674976
  21.8862171  68.6111908  19.8202934  22.6212788  69.9266129  19.6777058
  46.8937454   9.7977524  53.4150238  46.3355484   9.0509052  53.6315117
  47.5786133   9.4308004  52.8559799   9.8261747  47.9759865  21.5363255
  10.4342413  47.2368927  21.5212021  10.3324299  48.6949463  21.9145241
  46.3805504   4.0787764   0.5665594  46.3560028   3.1740189   0.2550420
  45.5043602   4.2345734   0.9190553  60.9940300  44.5837212  29.2569141
  60.9008179  44.8217659  30.1793442  61.3138428  43.6816788  29.2734756
  68.6336594   2.8218019   4.1265993  67.7668533   2.5173142   4.3952446
  68.4591599   3.5823114   3.5721552  82.4384689  63.9450073  74.9296951
  83.2248764  63.8796234  75.4714737  81.7229462  63.6972160  75.5152359
  37.7809486   0.4979266  65.0182419  38.6683388   0.7415461  64.7547607
  37.7670021   0.6325222  65.9658279  52.4222908  12.0265522  65.6531601
  52.6891670  11.4478006  64.9389801  51.9302254  12.7261209  65.2233887
  74.2192764  27.6813984  44.7258530  75.0830078  27.7136898  44.3145561
  73.7669067  28.4570103  44.3941689  31.1283550  56.7871361  60.9477997
  31.9761124  57.1112099  60.6436348  30.6242542  56.6462250  60.1463928
  23.8008728  32.9519730   2.8980668  23.4505959  32.2397308   3.4330924
  24.5312653  32.5569687   2.4219038  41.1946869  17.1117764  15.6197996
  41.7160835  17.5577621  16.2872410  40.8215599  17.8197842  15.0946980
  68.5746002  19.4576607  62.8337173  68.8595428  19.3397617  61.9275513
  69.0675354  20.2177258  63.1428299  49.1156578  14.2962103  42.4365540
  48.2024803  14.4714775  42.6637421  49.1996880  13.3447647  42.4991837
  76.9464340  65.5403824  64.0132523  76.4031525  65.0975800  63.3613243
  77.6507721  65.9424591  63.5048523  67.2587738  21.3326092  84.3241653
  66.6001892  21.6606102  83.7118683  67.3441086  22.0261612  84.9783325
  45.7223549   4.9446998  15.3317108  44.8242111   5.0812507  15.6332502
  45.7001266   4.0960526  14.8895168  61.9472618  63.4866638  27.2715435
  62.1205215  62.5844460  27.0028133  61.7302475  63.4220810  28.2015781
  66.3778076   3.2917764  26.6675587  65.7300949   3.9960637  26.6415176
  66.7760468   3.3645735  27.5349331  15.5382776  25.9405136  14.5829248
  15.0806284  25.2174740  14.1539688  14.9349527  26.2345886  15.2653847
  27.1359196  24.8885384  82.7223587  26.3075180  24.4253769  82.8467102
  27.3428364  25.2453480  83.5861282  11.3643246  68.8492889  10.3306799
  11.7844706  68.3322449  11.0179777  11.9720221  68.8051758   9.5924454
  56.1850471  66.8963318   9.0029926  55.4107018  67.2154007   9.4664745
  56.2297020  67.4343567   8.2125692   4.3666797   1.7342466  70.3073883
   4.4603081   2.5897272  69.8883209   3.5710399   1.3654194  69.9237747
  10.9656382  65.9338684  28.9147530  10.1670570  65.7106552  28.4365501
  10.9390717  66.8874588  28.9934387  57.5514107  68.2242355  41.7721672
  57.0428505  68.8768158  41.2907753  57.6141739  68.5766907  42.6599007
  42.7991638  52.0459328  36.6406059  43.3199234  52.7983170  36.3596191
  42.1449471  51.9363136  35.9505234  51.3123589  29.4699688  25.6327362
  51.6811905  29.0083523  26.3857994  51.8619232  29.2034149  24.8957405
  17.1377850  64.4830704  54.4889679  16.9618702  65.1621094  55.1402702
  18.0791798  64.5446320  54.3270493   1.3364780  48.9326897  40.8896217
   2.2055049  48.6140900  40.6456566   1.2036656  48.6080360  41.7802353
  68.2523270  43.8757439  63.5396538  68.4759064  43.7262383  64.4582901
  67.6019974  43.2027092  63.3388367  38.8614655  41.5972939  83.7473984
  38.2488785  40.9685974  84.1291122  38.4162102  42.4413109  83.8223572
  63.0919724  56.6567345  37.5948639  63.6023445  56.9856873  36.8549042
  63.3024101  57.2518768  38.3144150  37.2598152  67.1372223  49.8399849
  36.4688148  67.1067886  50.3781548  37.8410912  67.7409134  50.3024788
  44.9452782   0.1565242  59.5303535  45.6621208  -0.3790252  59.8702888
  45.3446770   1.0088699  59.3565178  46.9305382  64.8181381  83.0140381
  47.0445442  65.1678696  83.8977356  47.7791481  64.9523010  82.5920258
  69.2070618  19.6610165  78.8157883  69.1067429  19.8091698  77.8754578
  68.3105469  19.6017609  79.1459122  66.5792084  45.4283257  59.9415283
  66.5559006  44.4714508  59.9326897  65.8133698  45.6912880  59.4310684
  82.2798843  30.6641121  66.5447845  81.6423111  31.1272831  67.0881119
  83.1186676  30.8109112  66.9819717  78.4347839  52.1179237  32.4630051
  77.6882858  51.5645523  32.6926727  79.1342697  51.8325729  33.0508232
  32.5313034   4.2850709   0.0274132  33.0436592   3.8646927   0.7180690
  31.8444519   4.7607465   0.4945290   5.7803898  57.2302437  31.7620220
   5.3065419  56.6349831  32.3428535   6.2290649  57.8349152  32.3530350
   5.5770407  42.3707542  25.2672939   5.6612506  42.9734077  24.5284081
   6.4703126  42.2679214  25.5955048  69.2855606   5.6189098  73.0786972
  69.5552979   5.6070108  72.1603622  69.8636780   6.2615504  73.4898224
  32.3963623  42.9610405  88.0558090  32.8650970  42.1587639  87.8258743
  32.9825096  43.6672173  87.7838211  40.8650742  47.2868996  57.4720078
  40.9955864  46.9387589  56.5899658  41.7505150  47.4213257  57.8098831
   7.9814491   0.5855714  83.7961044   8.4507399   0.0382278  84.4257202
   7.3869028  -0.0179076  83.3505020  81.4181824  36.6962357  57.0267754
  81.3254852  36.6996040  57.9794693  80.5758972  37.0155869  56.7030487
   4.9679651   1.8694695  72.9728851   5.2313466   1.1307068  73.5216064
   4.9122772   1.5041136  72.0899124  85.1597595  64.2842484  39.9869270
  85.1716156  65.2411270  40.0086632  84.2328568  64.0546417  40.0530052
  51.2265053  18.3416176  45.9166641  52.1524353  18.2479973  46.1405487
  51.1883430  19.1347656  45.3821602  41.6168442  16.1507721   0.0750729
  41.5004044  15.9623518   1.0062932  41.1292572  16.9619656  -0.0679539
  72.7168274  13.2399769  67.3947372  73.2837753  12.5480614  67.0540771
  72.6540756  13.8723421  66.6789093  86.3905334  27.8457527  24.5752258
  86.1659698  28.5320129  23.9468555  86.2782516  28.2588577  25.4313622
  25.0456257   2.7237606  61.1743851  24.4947891   3.2187312  60.5679092
  25.8148613   2.4836695  60.6577950  20.3519402  24.2137833  17.0203953
  20.2830524  23.4006977  16.5200195  21.1950092  24.5846806  16.7598171
  16.8204746   4.1876884  57.4195557  17.0620365   3.6436071  56.6699867
  15.8685322   4.1061692  57.4778061  31.4982185  27.7733517  85.8668823
  31.0615711  27.7674503  86.7186661  31.8421497  26.8855762  85.7678833
  13.4392681  18.7269974  10.5819082  13.4689064  19.0293255  11.4896259
  14.3539820  18.5589199  10.3554544  12.3779230  22.4516907  11.8506432
  12.7938404  21.5939674  11.7637177  11.4685631  22.2552052  12.0757885
  52.9879303  17.0220509  73.6797714  52.0812492  17.2772999  73.5094376
  53.1492767  17.2988873  74.5817413  77.8907928  51.3058128   7.5380120
  77.4430008  51.4651527   8.3688688  78.4933777  50.5859566   7.7248983
  53.9393768   1.0317193   5.4832273  54.0509415   0.4907246   4.7014923
  53.6368027   1.8760873   5.1489773   4.1044602  43.7319870  45.1282349
   4.0755258  44.0482750  44.2252655   4.0408854  44.5242195  45.6616707
  79.4643097  68.5471802  17.6791534  80.0065842  67.8690186  18.0819778
  78.7293854  68.6560822  18.2826996  14.3941660  35.4693298  30.5217094
  14.3295078  34.7754555  31.1779041  14.4099684  36.2797432  31.0308361
  10.8735342  53.4535408  17.3137379  11.2467546  54.2674065  17.6522083
  10.4459314  53.7080040  16.4960346  79.7115631  26.3602810  35.2236443
  78.8208008  26.6511555  35.0282784  79.6831970  26.1044769  36.1455956
  81.4937210  22.3034286  56.2791862  82.2797318  22.8382759  56.1680031
  81.2989578  21.9782848  55.4002190  49.9834518  45.3180237   0.6782228
  49.1399727  45.4773254   1.1017768  49.7768974  45.2664757  -0.2550032
  58.1177406  28.5489407  15.7902203  58.0326080  29.2289543  16.4584751
  58.2668381  27.7436085  16.2856426  72.9626846  43.9693375  75.4738770
  73.2869339  43.2439919  76.0077057  72.7791367  44.6666565  76.1033936
  50.4066238  37.5129776  25.0415173  49.8906670  36.7748795  24.7171307
  50.6044350  38.0288429  24.2598591  68.4743652  27.0325356   8.8953543
  69.0106964  26.3655033   8.4668188  68.4486237  27.7570724   8.2703609
  24.5176716   1.1301312  57.2059822  23.6686153   1.4886453  57.4644470
  24.3032818   0.4135048  56.6087265  37.6224518  33.5672951  28.0562916
  38.5006371  33.3062782  28.3335953  37.0402031  33.1828957  28.7116184
   0.0538367  61.9266281  47.2530937  -0.2392749  62.0754242  48.1520805
   0.3310619  61.0105438  47.2400856  17.7053528   2.3321702  29.0922661
  18.2112064   1.5197450  29.0746441  17.0470734   2.1897361  29.7724209
  46.1880341  69.3145065  88.8654861  45.9612427  68.6908646  88.1756516
  45.6025085  69.0938110  89.5898361  84.8855209  16.3103771  40.5606041
  84.6281128  17.2315369  40.5984955  84.5215988  15.9938097  39.7338181
  52.9221077  15.1134806   2.3289888  51.9838486  15.3023109   2.3447640
  53.1861534  15.2868414   1.4254082  84.7912979  11.2994652  71.1495361
  84.5058594  10.7233782  71.8586807  84.1637268  11.1404610  70.4444733
  39.8079414  53.3669662  26.3030148  39.6301079  52.4276390  26.3506851
  38.9680328  53.7802010  26.5030689  30.4983597   0.5538444  66.5802536
  30.3037643   1.2431228  67.2152786  31.0365505   0.9848552  65.9163132
  80.7670746   5.3810458  76.1237793  80.0978317   5.2665286  76.7984924
  81.0649948   4.4925547  75.9286957  22.9474697  18.4713039  87.4790878
  22.5533962  18.9830952  86.7726822  23.8548679  18.7737236  87.5165405
  25.6360531  61.7826576  27.9343033  25.6900558  61.6988564  26.9823093
  25.1541233  61.0051651  28.2162266  21.0766277  47.2506866  32.1333199
  21.2940273  48.0121346  31.5955753  20.4026566  46.7894478  31.6340656
  24.3293972   8.3212976  27.8764629  25.1177902   8.4809189  28.3952999
  23.9601631   7.5177732  28.2428608  30.2715015  45.1447525  58.7733345
  29.4491100  45.4295120  59.1718521  30.2980137  44.2004242  58.9275284
  67.4921875  47.3930473  48.4799919  67.5178986  47.0398407  49.3692703
  68.1813812  46.9194832  48.0141716  43.9630585  60.7178497  36.9593735
  44.7074890  60.6348801  37.5553284  43.2331619  60.3159065  37.4304619
  82.5080643  40.5896416  57.7277222  83.1681213  39.8978844  57.7727814
  81.6718674  40.1263504  57.7764015  74.3139648  55.5282326  56.4603767
  74.7677765  54.7506676  56.7854576  75.0070419  56.0695915  56.0824776
   2.0566714  46.6410980  19.6433334   2.1389196  46.1340141  18.8356609
   2.5104220  47.4631271  19.4572964  61.9261322  46.8541641  56.1652718
  60.9960670  46.8337784  56.3906441  62.1382523  45.9480019  55.9414253
  58.8387680  56.3537331  32.6419487  59.3473549  56.3334045  31.8312988
  58.9447861  55.4778671  33.0132332  10.8972549  48.0690575  56.0953293
  10.2498493  48.4063377  55.4761848  11.6983852  48.5512428  55.8905907
  66.9653015   3.7675114  20.9350300  67.8467255   3.4120615  20.8211288
  66.8341522   3.7834959  21.8830681  50.5466881  34.7699966  16.2817230
  51.1705856  35.4478760  16.5414562  50.4979401  34.1865196  17.0389633
  28.8288975  65.8475647  23.8762302  29.3885345  66.4098206  24.4118690
  29.1409073  65.9818039  22.9813213  81.1263123  61.3709984  67.8309250
  80.1823654  61.4274292  67.6825638  81.2820129  61.9245605  68.5961456
  12.2718601  62.2164001  12.2226868  12.5390797  61.7155113  11.4520121
  12.3391342  63.1311569  11.9489641  30.0405312  17.6352634  20.1394749
  29.9006290  16.7217693  20.3888454  30.9794292  17.6942043  19.9627628
  19.4654083  60.4284248  47.4487724  19.3666553  59.4999237  47.6593895
  20.4066353  60.5461197  47.3204193  44.3786583  29.7508030  73.3575745
  45.2908745  29.9393959  73.5778656  44.3802071  28.8290291  73.0995789
  47.6595917  63.8343620  42.7197418  46.7987747  63.4563370  42.8995361
  48.1416283  63.7335434  43.5405388  50.8014946  17.7352734  19.6627922
  50.1991158  18.3312531  20.1079674  51.3649521  18.3084183  19.1429348
  39.7388344  29.2295513  80.9630890  39.0867004  28.5300961  80.9216766
  39.8127251  29.4332218  81.8954468  78.9558334  29.4279213  36.7292900
  78.5140457  30.2757359  36.6816940  79.6325836  29.5475597  37.3955688
  84.3422852   2.3990827  31.9254684  84.0790176   1.4943733  31.7568760
  84.3431473   2.8130679  31.0624218  41.0459595  42.1312790   5.2145672
  41.4099808  42.3380661   4.3537755  41.7250557  42.4010010   5.8328805
  59.0625534  65.0382156   5.3695407  58.4360847  64.5573883   4.8286386
  59.9150429  64.6761017   5.1279383  42.3834419  46.9777031  61.2779541
  42.8729935  46.8734970  60.4620399  41.8021851  47.7206154  61.1152992
  35.5950432  60.5317688  24.0963230  34.8832474  59.9203339  23.9073086
  36.3674698  60.1306648  23.6979504  58.1800652   8.4382830  56.5309067
  57.8523140   8.8585548  57.3260040  57.4253578   7.9638629  56.1822319
   0.6759335  43.7437782  67.0595322   1.5394320  43.4094353  66.8170090
   0.4311469  43.2360802  67.8331985  25.6478539  33.2389832  79.7126846
  26.0142307  32.5608177  79.1451569  26.4028053  33.5890846  80.1856689
  29.0851231  35.2997017  77.5919876  29.7487450  35.9886322  77.5571823
  28.7008762  35.3811607  78.4648895  28.7192211  55.3482285  66.6898041
  28.0417728  55.9019012  67.0780563  28.2936916  54.4996643  66.5669250
  30.4898701   0.6230581   6.4803777  30.3431511   0.6293761   5.5345106
  30.0559769   1.4159985   6.7953601  33.6343994  46.5799065  73.9376526
  32.7893143  46.1521378  73.7995224  34.1164627  45.9797859  74.5065994
  66.5640030  13.0342016  86.7786484  65.6966858  13.4353704  86.8339691
  66.6307449  12.7319307  85.8728790  65.9012527   2.1711695   4.9172130
  65.1020813   1.7676982   4.5784435  66.1638031   1.6079953   5.6453147
  58.4854851   3.5412736   5.9475489  57.5620995   3.7807963   6.0263853
  58.6323433   2.9165258   6.6577282  14.5566702  59.3494987  80.7150040
  14.9109240  58.5688705  81.1408615  14.2430305  59.8945427  81.4366608
  79.1358032  59.2951660  47.9239616  79.8498611  59.1311150  47.3079681
  79.1155472  60.2474174  48.0190582   8.0225716  62.5272446  22.4056110
   7.8756847  63.4546204  22.2195110   8.8685942  62.3330727  22.0021572
  49.9808693   0.6607047  87.7123566  49.3179016  -0.0146407  87.5687714
  49.9712181   0.8085955  88.6580124   7.6529069   2.7728555  63.3849487
   7.9540691   2.4622753  64.2388077   6.7493429   3.0502913  63.5360565
  64.1081467   8.3977270   4.8241091  64.8828125   8.7712030   5.2443957
  63.5183029   9.1420298   4.7044129  45.1230812  65.1851578  10.1601496
  44.1758156  65.0754166  10.0772133  45.4777565  64.8281097   9.3459282
  66.1043243  54.7124138  29.8657742  66.9770432  55.0494843  29.6633453
  65.5208740  55.1875648  29.2741241  14.3879442  18.4294567   3.6036325
  13.9826431  18.8719215   2.8578525  14.3234587  17.4978638   3.3933814
  19.4349346  62.1626663  19.8825912  18.7137947  62.5198631  19.3643227
  20.1032429  61.9331932  19.2368851  39.1064491  57.7684212  48.8423119
  39.6794510  58.2479973  48.2440567  38.3660507  58.3572388  48.9883919
  55.7458572  37.9352570  66.8774872  55.7891960  37.4517822  67.7024765
  55.3353043  38.7682762  67.1093445  64.4185257  19.9269714  14.0716438
  65.1984329  19.4582787  14.3688145  64.7148056  20.8281651  13.9439592
  67.1550293  47.1476669  84.9014587  66.3349838  47.6180878  84.7515945
  67.4129715  46.8338547  84.0347290  39.5914040  44.9528961  57.9559097
  38.9481392  45.1295586  58.6423721  40.0084114  45.7993011  57.7948799
   1.3427182   7.1399169   8.6681719   1.0997018   7.7539988   7.9752951
   0.8245467   6.3559856   8.4860134  49.9390984  29.2553883  83.7121964
  49.8451080  29.0646667  84.6454773  50.3645554  28.4779491  83.3505173
  47.5314980  18.1597309  66.2370224  46.6014900  18.0031433  66.4007263
  47.6244392  18.0794353  65.2877350  82.7057037  69.3955078  66.8711243
  82.2149200  68.9541016  67.5643234  83.5425339  69.6218338  67.2769852
  18.2595749  10.8881617   7.1367936  18.7654476  10.5900488   6.3808479
  18.5938396  11.7667532   7.3172774   0.2333535  66.0738983  47.0531502
   1.0090427  66.1600876  47.6073265   0.5233782  65.5347137  46.3173561
  13.6178179  28.8034706  86.3621216  14.1936436  29.1863174  87.0240021
  13.6544724  29.4174633  85.6287079  49.6949463  36.2038422   9.7169819
  50.3502121  35.6704407  10.1668072  50.0224190  37.1000633   9.7930212
  74.6778870  30.5631065  60.5425491  75.0302200  31.4522343  60.5032196
  75.4026184  30.0327206  60.8737488  73.7169724  32.3015823  45.2953339
  73.8254089  32.9635124  45.9782066  74.4814911  31.7332897  45.3890648
  63.3888359  14.5734205  42.2363701  64.2973404  14.8677397  42.3014679
  63.0783119  14.5527887  43.1415672  61.9086876  50.1413765   3.1857963
  61.2156754  50.3834801   3.8000884  62.1358643  49.2423439   3.4231980
  81.2195892  53.1369019  61.0842438  80.9793777  52.5242348  60.3891373
  81.0065994  53.9992599  60.7275810  38.5460052  41.2182808   4.4959931
  39.3536186  41.6391640   4.7906957  38.1423798  41.8584518   3.9099038
  71.5251083  50.5945969  73.9752045  72.0104904  51.2694588  74.4497452
  72.1821365  50.1704063  73.4232941  20.4829216  20.5812702  86.5185547
  21.1966763  20.6120434  85.8815002  19.7876892  21.1084957  86.1249619
  34.0074615  48.3588295  65.2053757  34.2580299  47.4415207  65.3148575
  34.3212242  48.7893791  66.0006180  83.2920761  18.1769695   6.0526953
  84.1794968  18.5333462   6.0941396  82.8062820  18.8054581   5.5186172
  76.8092728  47.0729103  44.4813271  77.7285995  47.0914993  44.7472687
  76.6840286  46.1981850  44.1133614  38.0083923  34.3143387  67.6628723
  37.4508209  34.3879776  68.4374161  38.5510712  33.5439224  67.8307877
   0.7927802  23.8547916  28.8430214  -0.0268119  24.1550121  29.2359200
   1.4757609  24.2170391  29.4074192  79.8154526  36.5023804  18.9846382
  80.7020264  36.4816475  18.6243763  79.9403687  36.4434128  19.9318180
   7.7584095  11.7486677  56.1041451   8.6169920  11.5534105  56.4795647
   7.9358315  11.9274063  55.1806679  23.7738972  49.8925476  57.8070374
  23.9007568  49.4135475  58.6259956  23.2179737  50.6339493  58.0468483
  34.1478004  68.4063339  38.1350136  34.2414131  68.0140839  37.2669106
  33.7250710  69.2496109  37.9724922  70.6120529  33.5229988  40.0255928
  70.5131378  33.0733070  39.1864128  69.7406693  33.4881248  40.4201927
  42.8599167  46.4683800  85.0920334  42.6107941  47.2617111  85.5661621
  42.0290108  46.0350494  84.8969650  78.7019196  33.5729256  70.4640808
  78.0214844  33.5353737  69.7918930  78.5441055  34.4003792  70.9186707
  39.7871590  27.7615280   9.8663311  40.0886803  27.2413483   9.1215296
  39.0713463  28.2908497   9.5146742  46.3156815  49.9581108   3.6795239
  46.1822701  50.8969307   3.8101020  46.9447517  49.7091217   4.3566585
   4.1566963  27.8826847  30.1748028   4.4723744  27.5244713  31.0044174
   4.1647415  28.8309765  30.3048515  74.3279877  70.5438995  61.4970741
  73.8321457  70.3956909  62.3023109  73.7704620  70.1903229  60.8039780
  60.0981941  30.7511234  10.3728962  60.7813988  30.2582741  10.8273888
  60.1524467  31.6323948  10.7425566  50.2307930  15.3198061  19.6964531
  51.1203613  14.9867697  19.5781937  50.3444519  16.2581539  19.8475075
  80.7789764  15.8917618  18.3762817  80.2107468  15.8197050  19.1431961
  80.5370789  15.1453743  17.8279896  15.7662487  37.5525780  73.3852692
  15.3718052  38.0382118  72.6608353  15.0518179  37.0187225  73.7328568
   0.7869130  57.2984734  20.0225639   1.3385721  57.3831024  20.8002167
   0.8969071  56.3878708  19.7488232  50.5170784  65.3992462   6.4048090
  50.9359512  64.9054718   5.6998520  50.2999725  66.2435913   6.0096149
   0.9524598  59.6991119   6.0787649   0.7147713  59.5661545   6.9964023
   0.6082981  60.5664558   5.8654518  49.7964478  30.3601036  23.0777054
  50.2094498  31.2044125  22.8965912  50.1635284  30.0895367  23.9192963
  49.5352821   2.6973171  75.0409470  49.1620255   3.5501335  75.2636948
  48.8145142   2.0801568  75.1667938  55.6005249   7.4386873  14.6245995
  54.7948151   7.3377428  15.1314306  56.3004951   7.3929152  15.2758865
  25.2417564   1.7126979  12.1280136  24.3463078   1.9897602  12.3220167
  25.6943054   2.5196741  11.8826141  74.2350845  68.2207642  53.9319839
  74.9950867  68.7975616  53.8549652  73.5130005  68.8054581  54.1621056
  17.1760235   3.1023226  39.1784897  16.4960728   3.0820925  38.5050735
  17.2787323   2.1880584  39.4426918  25.6337280  42.4123688   7.5020990
  24.6787148  42.4379044   7.4426785  25.9289379  42.3596649   6.5930858
  46.0014153  14.8900299   2.8904376  46.7955208  14.6201754   3.3517475
  46.2899666  15.5923510   2.3075857  55.4368477  66.8037643  45.0301628
  55.1568871  67.1153336  44.1694794  55.8705826  67.5583191  45.4285965
  57.4261703  41.1674995  35.7402000  57.5757980  41.3750801  34.8178368
  58.2485428  40.7755165  36.0339470   9.6009016  23.6767979  83.0430450
   9.9882927  23.1561375  82.3394318  10.2600412  23.6696091  83.7370987
  40.2136917   1.1654347  41.2455177  39.6690636   1.1916736  42.0322342
  40.0123940   1.9814988  40.7875328  53.7671280  62.2636566  60.3057976
  54.3403664  62.4075127  61.0587502  53.1318016  61.6150360  60.6089211
  69.4803696  34.9595490  22.2793026  68.8484573  34.4072990  22.7396717
  68.9978943  35.7624092  22.0821533  12.8340969  51.0156822  62.7760468
  12.9251957  50.9237862  63.7244606  12.6793051  51.9503975  62.6397552
   2.9923203  22.4345665  83.4380341   2.1947215  22.8772106  83.1479797
   3.2423303  22.8928661  84.2403412  66.1191940   0.7766379   7.2060943
  65.9081345   1.2874932   7.9875746  65.4073029   0.1405874   7.1362472
  83.2543259  23.7248306  81.0120316  82.9405746  23.9422493  81.8898163
  83.5479050  24.5603714  80.6488266  48.7760696  66.4867401  67.3489075
  47.9759331  66.9718170  67.1471405  49.0176315  66.7782364  68.2280579
  34.1494255   3.0413890   2.1286459  35.0382309   3.0269170   2.4836771
  33.6096535   2.6553292   2.8184550  30.3556919  68.9153595  88.9190445
  30.3001938  68.5251770  88.0467453  30.0413094  69.8117142  88.8009186
  13.1544008  61.5963211  47.0093422  12.4587469  62.0886765  47.4450951
  13.0932446  60.7160187  47.3802376  20.9419212  35.5811348  56.0684357
  20.4488297  34.9377937  55.5593109  20.6028194  35.4925041  56.9591599
  14.4037132  24.4080772  12.6783171  13.8056107  23.6997833  12.9167004
  14.9899492  24.0184174  12.0296831  60.9494934   4.4985209   5.3260789
  61.6180611   4.2722678   5.9726510  60.1708260   4.0189962   5.6088614
  19.0432835  58.4057999  57.3815041  18.4813461  58.3286285  58.1525459
  18.8501682  59.2751007  57.0304260  70.2091980  22.3786278  46.8008690
  70.6892776  21.7249985  47.3093224  70.5877686  22.3248196  45.9233589
  45.6305275   0.1748137  63.7842865  45.8593788   0.9226568  64.3361816
  46.0376625   0.3670373  62.9395866  15.0820169  34.3104172  75.3176117
  15.2542286  33.9492188  74.4480667  15.7935400  34.9339371  75.4631805
  24.8064651  38.6630020  85.0063248  24.5350018  37.7694321  84.7964020
  24.3968582  38.8453293  85.8520279  61.0484962  34.6734505   3.9792135
  60.7641029  35.1951294   3.2287462  60.6693687  33.8078728   3.8266780
  66.9936295  25.9982090  30.0109253  67.1415939  25.2754135  29.4010868
  67.4707336  25.7460365  30.8015022   4.3965731  66.7451401  22.1167278
   3.5673881  66.9959793  21.7095871   4.3193722  67.0457001  23.0222301
  80.0838165  56.2590370   3.2813835  80.0892334  55.9819145   4.1975737
  80.2871246  55.4635582   2.7893362  77.6346664   3.8376110  17.3669910
  78.4047165   3.7677939  17.9312382  77.0112534   3.2107432  17.7339077
  18.9549236  48.4742889  44.8659134  18.2868557  48.0143394  44.3576202
  18.5394268  48.6413307  45.7118988  57.6062164   6.2336912  28.1019096
  56.6838837   6.4541459  28.2320251  58.0781021   6.8174629  28.6958504
  11.6247435  23.5729942  84.8827362  12.2566519  23.6200294  84.1652985
  12.1237154  23.2182007  85.6185226  38.0731773  15.8157434  23.1612434
  38.7003136  16.4091568  22.7479744  37.7452583  16.3025398  23.9173717
  63.0131340   4.5659289  25.2765980  63.7963524   4.9092727  24.8465786
  62.7273674   5.2736201  25.8543015  34.3480453  61.8734665  21.6685944
  34.6331558  61.6245346  22.5477867  35.1321030  61.7809258  21.1273708
  52.2135849   3.3603704  49.0095901  52.8775024   2.6761398  49.0948639
  52.4901123   3.8687298  48.2471390  67.8593369  24.7521057  45.5517120
  67.8629608  23.9534702  45.0240746  68.0131912  24.4487476  46.4464378
  38.8613510  64.2891922  16.7179565  38.0256958  64.5257721  17.1203823
  38.6765823  64.2645187  15.7790833  57.7439308   1.0360374  81.2950134
  58.6986046   1.0265344  81.2261658  57.5718498   1.0538955  82.2364426
  56.0388107  62.8568840  65.9652710  56.3605995  63.7326889  65.7516174
  55.0926361  62.9660072  66.0605698  47.6928215  16.3891983  19.8692760
  47.5344658  16.1458263  18.9571781  48.4977798  15.9275179  20.1040649
  17.6190224  20.2910995   7.5046430  18.0105534  19.6461639   8.0937033
  17.3620262  19.7859936   6.7332458  50.5804787  52.9212875  47.8541603
  49.9338837  52.5165672  47.2759323  50.6289101  52.3333817  48.6079826
  48.7259483  54.9284058  44.4514503  49.6777916  54.8370476  44.4081078
  48.5835190  55.6826134  45.0233879  32.4078255  29.3594971  11.0686054
  32.8161736  29.5119114  10.2164001  32.0842400  30.2196159  11.3364067
  52.4325867   9.7321672  74.8573837  52.5581017   8.8617439  74.4794464
  53.3198624  10.0571108  75.0102921  42.4419441  14.6926546  47.3745956
  43.2646255  15.1677732  47.4916153  41.9067268  15.2707644  46.8309402
  70.0454788   3.1857562  37.3747635  70.1765137   2.7154593  38.1980972
  69.2194519   3.6541302  37.4953079  67.5381088  42.3466568  39.9090233
  67.1721268  41.5149918  40.2100563  67.1242142  42.4968147  39.0590973
  59.7799873  65.1692200  82.5763474  60.4189796  65.2590637  81.8693466
  60.2753906  64.7847214  83.2995148  44.2039375  31.8199158  71.4985504
  44.6476898  31.0949173  71.9386597  44.3454094  32.5718651  72.0736923
   6.6098256  28.9165440  88.1099319   6.7740779  29.2193127  89.0030060
   7.3719530  29.2131271  87.6125031   6.3481483  69.4575653   2.8918896
   6.1676712  70.3642349   2.6436763   5.5540557  69.1699677   3.3423703
  40.9291687  56.8745499   5.3156481  40.0263100  57.0039520   5.0252500
  41.4191284  56.7122993   4.5095167  52.8968964  17.9177685  76.3253937
  53.5482292  17.7688484  77.0108261  52.8176270  18.8702507  76.2731857
  57.9379730  23.8698959  86.0182037  57.0201836  23.6033363  86.0714951
  58.2888031  23.3741112  85.2783737  57.4918938  40.4872551   9.3602877
  57.8854027  39.7169266   9.7701340  57.1701584  41.0109329  10.0940990
   1.5901649  18.4244461  80.3424377   2.1958272  18.0322456  79.7134781
   0.8451011  17.8239059  80.3639526  10.4177837  68.9273148  73.6247787
   9.9752769  68.4530182  72.9208908  11.2557278  68.4762115  73.7276688
  69.0375519  28.9439354  29.7383785  68.3771133  29.4467239  29.2616634
  68.5324936  28.3793106  30.3234863  31.7248573  49.0921745  89.0318069
  31.3943615  49.3204918  89.9006424  31.4923248  49.8409500  88.4827194
  68.8388748  50.9628296   1.2047738  69.4237366  50.4073105   0.6894418
  69.2192154  51.8386192   1.1372304  34.2357407  67.3049698  48.4800339
  33.4629288  67.4886017  47.9459190  34.9745636  67.5639343  47.9292946
  65.3485107  55.4074287  81.1450043  64.8190231  54.6225662  81.2859573
  66.1562195  55.2419624  81.6312637  23.2427692  43.2679863  34.7510223
  22.8718224  43.9689865  34.2150841  23.9636402  42.9207497  34.2256660
  57.6758461  32.8833885  37.9772072  57.1658974  32.1536713  37.6255035
  57.0546188  33.6102524  38.0216942  23.5421104  28.0918922  14.2547970
  22.8814964  27.5423794  13.8330631  24.3669128  27.8329029  13.8438768
   7.3574700  58.0110359  85.1144638   8.2714481  58.0072937  84.8301086
   7.3067241  57.3123703  85.7667847  73.9786682  66.0843658  72.5975494
  74.8798904  66.3589783  72.4283676  73.4520111  66.8606873  72.4073410
  17.8106785  70.4749680  68.6127777  16.9996796  69.9720459  68.6874847
  17.8712578  70.9557571  69.4382553  12.4754410  56.2310066  11.9271498
  13.3745003  55.9451408  12.0890226  12.2019262  56.6382141  12.7491016
  83.9846420  70.7855225   5.8820667  84.2816772  70.1513748   5.2294912
  84.5870285  71.5237198   5.7902188   3.9567337  61.2692337   3.4583256
   3.2688622  60.8683472   2.9269550   3.7682648  60.9807968   4.3513627
  80.9441986  43.4750443  29.7745819  81.7168579  43.4827957  30.3395348
  80.8310852  44.3882446  29.5109463  41.1114578  43.1123695  76.0649643
  40.4926987  43.2503891  76.7821274  41.8692245  43.6497726  76.2956619
  40.9076385  39.6465340  84.1377563  41.7352104  39.6878929  83.6585388
  40.3911743  40.3720551  83.7868805  68.3033218  38.2495575  17.5244141
  67.3815308  38.1115456  17.3065014  68.4761200  39.1563492  17.2712288
  56.9532700  43.7455521  72.1080475  56.1476479  43.9788475  71.6467667
  56.7600822  42.9011803  72.5154114  32.7639084  67.4572296   0.6680353
  32.5086441  68.1575546   0.0675264  33.5758972  67.7686996   1.0678985
  77.5580444  38.6408386  57.7630806  77.3721390  38.0083427  58.4570694
  77.5724564  38.1188583  56.9608574  65.2929459  68.2209015  13.2417793
  65.8798752  68.3613129  12.4987869  65.8604202  68.2821503  14.0101900
   9.8263493  25.4417553   5.7100301  10.3426905  25.4153156   6.5155892
   9.4641256  24.5594845   5.6286507  85.6602783  34.0137558  53.8480911
  86.1189880  33.8993454  54.6803932  85.1571426  34.8202171  53.9607925
   3.9862390  69.6209259  20.5856266   3.3615263  68.9483109  20.8568325
   3.6375365  69.9519043  19.7579250  55.8311615  37.0857544  85.3562851
  55.4640923  36.5192413  84.6776428  56.4809990  36.5395622  85.7985687
  72.4724274  67.1659698  11.5025091  73.0941238  67.5856476  12.0971451
  72.4120712  66.2638397  11.8167677  87.1180267  52.2115135   0.1883749
  86.2353210  52.2538033   0.5561661  87.0174408  52.5206604  -0.7119258
  36.6669693  60.8034019  12.6652107  36.7516403  59.8524055  12.7335711
  37.5381584  61.1033974  12.4058657  37.4259529   8.4576235  10.2828341
  38.3165703   8.1207533  10.3805599  37.1309700   8.1137085   9.4396610
  81.3054352  36.4854660  30.9307957  81.9575882  36.1784782  31.5606308
  81.8091278  36.9870110  30.2897167  19.7614326  26.3905716  37.1242523
  20.1572971  26.7905579  36.3499565  19.0030460  26.9417515  37.3173409
  20.3177681  36.3865929   1.0276778  19.4626770  36.7498703   1.2580695
  20.6501808  36.9703789   0.3458204  61.4719887   1.3157887  56.1216583
  60.9085808   1.9513211  55.6801796  60.8665581   0.6647602  56.4764061
  82.0386887  50.3902168  80.0260696  81.6353912  50.1117897  79.2038345
  82.2296677  51.3191986  79.8966522  22.7433395  22.8680592  10.4214497
  23.2048683  22.2739582   9.8296165  21.8208389  22.7737427  10.1841106
  75.2839661  30.7002983  56.7071609  76.2251587  30.5795040  56.5814285
  75.2172318  31.3766918  57.3811569  72.6212006  28.1352024  36.2566032
  73.0556030  27.4391174  35.7636604  72.6206131  27.8233280  37.1615677
   4.6768608  63.0676003  12.7218485   5.5489235  62.7158432  12.9007444
   4.1686873  62.8580551  13.5054827  70.7402573  67.0180588  59.3835182
  70.4779510  66.9973984  60.3038445  70.8097916  66.0966949  59.1335373
  65.2021255   8.7868242  38.6831398  65.3168488   8.8909225  39.6277237
  65.9496078   9.2451448  38.2991409  28.2431374  24.6732693  24.9207726
  28.5090752  25.4548626  24.4363956  28.6295013  23.9460640  24.4327869
  64.7909012   5.6275153  48.4976997  64.0215302   5.1764803  48.8453712
  65.3345108   4.9284501  48.1343422  13.8175039  22.8595085  76.0913239
  13.1084442  22.8620052  76.7343369  13.5060225  23.4305344  75.3890839
  23.7138462  33.0627441  15.3310041  23.7575073  32.9084206  16.2746716
  23.2037525  32.3274155  14.9914055  58.2492065  17.2406788  43.1927376
  58.4000816  16.2959404  43.2233620  59.1101151  17.6261158  43.3555374
  27.1634884  16.1573372  74.9735489  27.1487103  15.3174858  74.5145645
  27.4535751  16.7862778  74.3128510  49.1980133  60.9753723  86.2654190
  48.9450874  61.1505737  87.1718216  50.1394653  60.8076973  86.3076019
  34.3337326  69.0678558  24.1201611  34.0064240  69.1531296  25.0156116
  33.6173210  68.6502609  23.6420345   4.1589150  67.2865829  61.3433914
   3.3308713  67.7519226  61.4618645   4.8268509  67.9706421  61.3898125
  34.8612213  67.3755264  43.3715477  34.7119026  68.3135681  43.2531815
  35.7976189  67.3035202  43.5565109  21.1802292   6.7888279  66.3350296
  21.4657631   7.5548863  66.8328857  20.5040913   7.1241827  65.7462997
  49.8330574  69.9705811  75.7569275  49.1580849  69.3414459  76.0115433
  49.3450890  70.7237854  75.4240417  11.9025373  46.3406181  89.0834808
  11.1977320  45.9995003  88.5329208  12.0526447  45.6539154  89.7332001
  10.8573856   5.7978845  73.9436188  11.0728083   6.6049776  73.4762650
  10.4034109   6.0922384  74.7332382  26.1919231  30.6357460  79.0696106
  26.1480370  29.8578224  78.5136108  26.1794090  30.2925644  79.9630890
  28.1295109  49.6226997  31.7571068  28.3707485  49.5403175  30.8344746
  28.8154182  49.1486588  32.2272606  17.3979740  67.8602295   2.0479703
  17.2123547  67.7012329   2.9734423  18.1009254  67.2461853   1.8357455
  56.2167625  50.3020630  49.5189018  56.7883339  50.1680298  50.2749252
  56.0039902  51.2350311  49.5419197  21.3279228   4.2992506  83.5465240
  21.6371250   3.8242254  84.3178711  22.0473518   4.2309389  82.9188461
  34.4204063  39.7315178   4.1176095  34.7986832  40.5688057   3.8491256
  34.6030769  39.1408577   3.3868675  66.0446091  58.3396873  79.5223007
  66.1109772  58.9116592  78.7576675  65.6401825  57.5390587  79.1881332
   6.7976341  44.1786461  52.0335045   6.2937145  43.4719963  51.6298447
   7.3984361  44.4671097  51.3464394  82.6755066  65.8076096  85.7703629
  81.9234543  66.3922577  85.8643188  83.3932877  66.3817215  85.5031357
  68.7307816  16.8736134  25.8783798  68.1320953  16.3768539  26.4360886
  68.4191360  17.7767467  25.9371986  50.1183701  49.1356697  69.2380600
  49.6049995  49.8511925  69.6131744  50.8908920  49.5632782  68.8684769
  58.5871811  18.2362251   1.7718217  57.6623955  18.2558117   1.5256085
  59.0340538  17.8946190   0.9973269  30.2066288  54.4734306  17.4381313
  30.2373562  53.5202942  17.5206757  31.1080341  54.7563438  17.5919590
  85.3224640  44.7775459  14.5080690  84.8374481  44.2817802  13.8483686
  84.9689255  44.4734955  15.3440104  13.8631954  69.9285736  14.7264099
  13.4452620  70.7621689  14.5103579  13.3586950  69.5926208  15.4672527
  33.1027374  18.9590759   9.1397333  32.6548882  18.2435722   9.5910826
  32.4295998  19.3489876   8.5819798  76.1221390  52.4079132   9.5248432
  75.5509720  52.6272964   8.7887268  75.5740509  52.5345535  10.2993059
  54.7001686   7.9910436  41.4904823  54.7212448   7.2532544  42.0999527
  53.9561729   7.8068643  40.9170914  79.0576019  62.0536613  18.9375591
  79.5754929  62.0765724  18.1328869  79.3012543  61.2278519  19.3557720
  47.8138161  24.3045292  73.2430344  48.0407753  25.0260124  73.8297119
  48.6241417  24.1171322  72.7692337  75.7047501  44.8890495  50.2975388
  74.8193359  45.2498093  50.3436546  75.9195023  44.6648674  51.2029991
  43.5068016  68.6984406  53.0862503  43.5268974  69.0367737  52.1910667
  43.8898010  67.8236847  53.0203362  24.5429306  55.0222054  55.4568596
  24.7504253  55.9505386  55.5634995  24.1013756  54.7804222  56.2709885
  72.6597900   4.0901499  28.7862339  72.7102890   4.3266697  29.7123756
  72.8393097   3.1500928  28.7689762  14.6500940  64.3293686  78.2240524
  14.8169928  63.8511238  79.0362473  13.8148689  63.9832954  77.9096298
  33.3862877   7.6089311  23.9403820  33.1005974   6.6984611  24.0155907
  34.1935349   7.5650988  23.4278755  66.6843338  33.2113724  66.8845749
  67.2874603  32.4861259  66.7218094  66.3062592  33.4055557  66.0269089
  61.1123047  60.6677246  82.2169113  61.2289696  60.9772835  81.3186951
  61.7806473  59.9911995  82.3258057  64.6687393  55.2439423  19.9251118
  64.6519928  54.4299316  20.4284363  63.7622604  55.5512047  19.9363823
  25.8124199  40.1301994  68.7144394  26.4433498  40.8129501  68.4863663
  25.7016354  39.6272621  67.9075851  63.7720490  53.2130928  68.2888412
  63.1398697  52.8377609  68.9017944  64.1468582  52.4564285  67.8380508
  59.9503288  51.4269333  54.0017471  59.0211258  51.4466629  53.7727890
  60.1173973  52.2817688  54.3987045  45.1404610  42.8190269  58.4922104
  45.4987564  41.9361420  58.4007263  44.7691154  43.0170822  57.6324959
  69.8116989  38.3965797  63.3201942  69.3789444  39.2472763  63.3927765
  69.0937729  37.7639503  63.2957840  34.3231621  49.5424767  15.4934959
  34.2438240  49.9743614  14.6429596  34.6759987  48.6762009  15.2902536
  69.1484146  12.2269650  21.3433914  68.2129211  12.3082228  21.5290966
  69.5668716  12.8386126  21.9492073  61.3262863  40.0418167  60.4554710
  60.6551208  39.9844933  61.1355324  62.1521187  39.9158134  60.9227562
  78.3834610  34.2173386  65.4909439  77.9591522  34.4360657  64.6612701
  79.2879562  34.5110817  65.3821335  75.2099457  67.6973724   9.7693014
  75.2135696  68.6515808   9.8448181  74.4590607  67.4184952  10.2933578
  17.2218895  48.0838623  70.2348480  17.9034004  48.0441437  70.9058151
  17.6823730  47.9054222  69.4148788  70.5580444  33.4412727  73.4972458
  70.9538651  33.8993683  74.2386703  70.1685257  32.6557770  73.8813019
  10.5456429  42.2104683   3.5731485  10.2284737  41.3397408   3.8128691
  10.8108559  42.1250458   2.6573994  65.0105515  50.4557457  34.5114403
  64.3415375  50.6533432  35.1668854  64.5862579  49.8395576  33.9143486
  46.2705307  55.1516685  25.6687946  46.7723160  55.8659286  25.2760105
  46.8671570  54.4033089  25.6538086  50.3549728  10.1217546  62.5309792
  49.8363228  10.8620195  62.8460083  51.2636375  10.3954391  62.6561089
  18.9434681  53.4387283  26.8873634  18.0302258  53.2034492  27.0512714
  19.0455074  54.2996864  27.2930374  27.7650471  10.6640768   9.1599054
  26.9549274  10.3648834   9.5727253  28.2849426   9.8682032   9.0479841
  10.0454683  68.7493362  32.0885620   9.6827946  68.0835571  32.6728859
  10.9729052  68.7928085  32.3213768   2.6235113  29.0819778  78.7741318
   2.4169710  29.4074554  79.6502838   3.5693583  29.2028694  78.6905289
  62.3697281  38.4694481  82.5195312  61.5682564  38.8324699  82.1425858
  62.0843773  38.0516510  83.3320923  68.1274261  36.1365318  73.0247269
  67.6834488  35.9771080  72.1918411  67.5531998  35.7426300  73.6814804
  75.0438385  32.9953346  79.8176651  74.7227631  33.6142387  80.4734879
  75.9162064  33.3176041  79.5910568  59.0698891  20.3850288   9.4705420
  58.9879951  20.8981152  10.2744493  60.0080872  20.3853016   9.2807579
  35.9157104  46.8155098  72.6563721  35.8162003  47.4207802  71.9215469
  35.0940399  46.8907166  73.1415863  33.5551949  29.8356075  87.1139755
  32.9833908  29.3987637  86.4827499  33.1174965  30.6666183  87.2985611
  85.9818268  48.3337517  39.4074097  85.2553406  48.6822929  39.9241028
  86.7611618  48.5290794  39.9277115  61.1007156  51.1259308  34.5497284
  61.3129616  50.3658981  35.0915146  61.2153931  50.8185883  33.6504936
  26.0431786  45.9783096  42.0161781  25.6117229  46.2811165  41.2171860
  25.3655472  46.0335503  42.6899719  59.8491669  18.2848511  49.7944107
  59.0976410  18.8750267  49.7384071  59.4639969  17.4182472  49.9243164
  56.4969902  46.8002205  55.8488426  57.1377945  47.1341820  56.4765892
  57.0117989  46.2709465  55.2396851  16.5065632  50.9721260  74.1072845
  17.4095421  51.2687683  74.2207184  16.5420265  50.0293922  74.2692490
  15.9489088  51.6656799  14.2950792  16.1561604  51.9260445  13.3975887
  15.2626448  52.2743225  14.5686216  38.0058670  64.9777145  75.5581284
  37.8046799  64.5564346  74.7224960  38.9574814  64.9110565  75.6369781
  85.5251007  68.9672852   7.9379191  85.2383118  69.7762833   7.5142460
  85.7540741  69.2316818   8.8289270  20.0739689  67.9157104  26.8089352
  19.4468594  67.2878113  27.1676846  20.7811584  67.9427719  27.4534378
  62.3042030  32.0871353  46.8894844  61.5237122  31.7003765  47.2863197
  62.6628647  31.3911457  46.3388557  47.1245918  39.4215736  46.3225098
  47.1000595  39.5962105  47.2633247  46.6746712  38.5826073  46.2228279
  84.2704086  31.0385151  68.5408325  83.7767639  31.3179531  69.3118439
  84.6619034  30.2033882  68.7968140  18.2232742  40.6091728  66.6119232
  17.7468796  40.1907692  65.8948364  18.4720516  41.4663849  66.2661972
  39.9841423  61.4153595   4.4451828  39.5277176  61.9283791   3.7783124
  39.2928047  61.1297798   5.0424480  83.1823044  57.6832047  83.5303802
  82.6130142  58.4281197  83.3374100  84.0656052  58.0519714  83.5361099
  84.6243134  12.8224497  13.2505836  85.3814163  12.2782221  13.0341444
  84.9700928  13.4883699  13.8449087  43.2802124   9.0274544  80.4561691
  42.8068008   9.2323084  81.2624893  42.9275513   9.6387291  79.8094864
  32.1144028  50.7369461  64.2747498  32.3696938  49.9431343  64.7447662
  32.7320786  50.7926903  63.5456390   1.0659548  43.1162949   2.4769673
   1.5356984  43.9338493   2.6418393   1.2714016  42.9013100   1.5671296
  39.2294273  52.9387817  36.9252129  38.3346062  52.6706696  36.7163048
  39.7810326  52.3774147  36.3803902  83.9417114  28.8235664  61.0027122
  83.7162170  27.9869556  61.4094849  84.1950531  29.3854103  61.7350960
  62.5770760  44.1014023  48.3317375  62.5197144  43.1493187  48.4122238
  63.2883797  44.3492737  48.9223595  43.4691162  64.0032578  12.7757959
  42.5489464  63.9190331  13.0256386  43.4568977  64.5692825  12.0039787
  80.3464050  63.1170273  61.0315018  80.3917007  63.2756920  60.0886307
  80.2684555  63.9893799  61.4177055  51.8566132  39.9972878  81.6644440
  51.6366539  40.9252968  81.5829163  51.0141525  39.5620270  81.7949753
  30.5398235   6.4588428  83.7105103  29.8385792   6.5489283  84.3557816
  30.6719379   7.3455286  83.3750000  32.6164627  27.5588531  79.0565033
  32.6727180  27.9948769  79.9067688  31.7192116  27.7190475  78.7640839
  22.2706108   8.8866777  85.4737625  22.8012733   8.9616995  86.2668610
  22.1683006   7.9440827  85.3423157  26.1341534  19.6940365  40.2905388
  26.7866554  19.0525875  40.0094452  25.7046604  19.2852592  41.0419846
  54.0930634  48.1543045  74.9036179  53.7469521  47.5146217  74.2813339
  54.2631073  48.9343681  74.3755875  28.0636654   7.2788758  17.0926571
  27.7732239   7.8564630  16.3867741  27.4223747   6.5682945  17.0998764
  20.9601688  38.2465630   9.4488802  20.0228329  38.1037979   9.3175449
  21.3520794  38.0651550   8.5946369  84.3756561  58.6738281  65.3433685
  85.1781921  58.7957916  65.8506012  83.6730576  58.9267159  65.9422302
  33.9361038  71.1632996  14.1079493  33.0810127  70.7757568  14.2946615
  33.7600975  72.0998688  14.0180035  86.8937683  58.5947456  55.8259697
  86.0661087  58.1139297  55.8318329  87.5535278  57.9386139  56.0505409
  63.1189842  62.0894852  85.2270889  63.0864410  62.1835327  86.1791000
  63.9973030  62.3847885  84.9871216  60.5886383   0.4573089  82.2865601
  61.3821640   0.7662821  81.8494339  60.5584564  -0.4798086  82.0938644
  53.9816170   2.3387547  45.2436676  54.9151154   2.5498574  45.2278061
  53.8772163   1.6639931  44.5728264  29.9450569  62.0745277  76.7707367
  30.4074593  61.2949142  76.4631424  29.0404034  61.7851715  76.8895035
  70.9112167  44.9388351  27.2417088  70.7376099  44.2228394  27.8528061
  71.2237244  44.5054283  26.4475250  25.0443935  68.9982910  75.4312668
  25.0428219  68.2522736  74.8315277  24.1755753  69.3874893  75.3316879
  62.9389038  37.9083900  20.5151615  63.1438103  38.4332924  21.2889328
  62.4864883  37.1388702  20.8606968  31.8660545  40.0032845  14.3087397
  32.7630386  40.3344917  14.2645388  31.9383698  39.1795998  14.7909632
  19.3050175  28.9263477   4.6790724  18.7366829  28.2573910   5.0608130
  19.6707439  29.3886929   5.4332027  48.2859421  64.7893600  75.6361084
  49.0197411  64.7894592  75.0214767  48.6777115  64.5527649  76.4767990
  47.8333664  70.2712936  50.9997330  47.8691063  71.2211914  51.1122398
  48.6853065  70.0418549  50.6285324  60.2364464  63.5469322  32.5559807
  59.3616562  63.7066536  32.9101830  60.1973305  62.6533585  32.2150574
   8.1487074  32.1509514  59.6236649   7.7948852  31.5324726  58.9845047
   7.3867474  32.6452522  59.9258499  20.8289433  65.3710327  59.6346016
  20.5359001  66.2504196  59.8734436  21.7799587  65.3987122  59.7396622
  17.6933956  34.0225945   5.7093887  16.9477119  33.5275307   6.0486531
  17.5195866  34.1048927   4.7717056  34.8169403  46.8411980  14.9268293
  34.8321877  46.1210365  15.5572004  35.2469597  46.4872322  14.1483536
   9.1296473  33.4226036  74.9228668   8.9016886  32.5307808  74.6603470
  10.0451736  33.5224571  74.6619644  79.8531494   3.5160723  47.9378891
  79.3012772   2.7735727  48.1835823  80.2071686   3.2781613  47.0809784
  70.1333466  43.8534203  23.1025562  69.3345184  44.0627060  23.5866108
  70.7659531  43.6096687  23.7782993   7.1181383   1.8620553  86.5709534
   6.5856276   1.4414573  85.8958511   7.1760602   1.2111515  87.2703781
  49.3511848  22.4870167  34.6604080  48.6342773  22.0493355  34.2013702
  48.9766464  23.3181095  34.9523582  39.8078728  62.1420631  85.2019272
  40.0079498  62.5464554  84.3577271  39.9251938  62.8468475  85.8389130
  66.9794998   3.4622672  87.3168106  67.0026093   2.6401029  87.8064499
  66.8935623   4.1387477  87.9885406  17.2227211  10.2372637  27.1105614
  17.5700111   9.5223227  27.6439304  16.9978848  10.9201584  27.7424927
  56.5660591  68.0484543  54.9487915  57.1103439  67.2714462  55.0762749
  56.9103432  68.6871109  55.5731430  47.8357124  50.3991165   6.0040827
  48.5919647  50.0879669   6.5015769  47.4874916  51.1226501   6.5251122
  30.1319656   6.2436152  14.8201542  30.6613541   6.8968568  14.3627090
  29.2366848   6.5771971  14.7616100  60.1867180  53.1926537  72.3258362
  60.0579796  52.3837166  72.8210907  60.7731934  53.7167320  72.8713837
  86.2145462  65.2057800  82.0808868  86.4884949  65.8354797  82.7477188
  86.0861588  65.7327576  81.2921906  54.4617958  57.3922462  30.7798901
  55.2077866  57.7707787  31.2451248  54.8532600  56.7761307  30.1607056
  35.5524445  59.5984077  74.8928452  35.3242798  59.6702995  75.8196716
  34.9491959  58.9400520  74.5480423  45.3015099  42.1847839  30.9190178
  45.0953407  42.4856110  30.0340157  45.7565460  42.9235802  31.3231926
  73.7129974   6.0785937  14.7579317  73.5311966   6.8581953  15.2827196
  74.6037598   6.2107000  14.4334002  34.1323128  10.4396391  79.4943390
  34.1523285  10.7464705  80.4008026  34.9978561  10.6575680  79.1485367
  77.0823059  38.3816071  77.8613968  76.3686829  38.3449478  77.2245102
  76.7605438  38.9654579  78.5482941  54.3587074  38.8612137  44.1710129
  53.8319168  38.1047058  44.4287300  53.7207680  39.5612183  44.0322342
  59.4591370  54.3763962  77.8195572  60.3152161  53.9769440  77.9738312
  58.8979912  53.6465378  77.5575485  28.7816944  31.2539215  87.3856506
  29.0534649  30.6888580  86.6624069  28.1125565  31.8235455  87.0061646
  -0.0360437   3.0774267  40.4462242   0.1556728   3.9788742  40.1876335
   0.7220719   2.5758510  40.1463661   6.2320633  65.7831650  13.8042822
   6.2050781  65.6157608  14.7463427   5.3263741  65.9872589  13.5712452
  81.1082993  67.2168961   8.5031939  81.4967041  66.3422470   8.4841766
  81.3130035  67.5509262   9.3765497  85.9263535  11.6072903  40.0212135
  86.1474915  12.5342417  40.1111679  85.8458710  11.2918119  40.9213409
  83.9730225  58.8142700  78.1294861  83.9284363  58.2248116  78.8823395
  83.0596848  58.9504204  77.8774719   8.6258974   6.0515256  35.3248978
   8.7428598   6.7961125  34.7348633   7.9657693   5.5072212  34.8957176
  69.5851974   5.4224501  31.4476280  68.8862762   5.4548583  30.7944088
  69.7466507   4.4882259  31.5794983  76.5364609  44.4502373  43.8166885
  75.9149857  43.8096848  44.1626549  77.2932587  44.3886909  44.3995247
  22.9367294  69.7884216  24.0173531  23.8554897  69.7554703  23.7508450
  22.9598312  70.1148758  24.9168663  79.2693787  15.7655659  60.1054535
  79.3831863  16.4121609  60.8020134  80.1193085  15.7345362  59.6662560
  52.8387871  21.7007828  46.6459198  52.1913452  21.2296028  46.1214752
  52.7659378  22.6101151  46.3560219  66.8784332   6.3541164  39.9444809
  67.6034622   5.9991441  39.4301300  66.6541672   7.1755290  39.5071945
  39.5767479  50.1856308  74.8291245  39.5082474  49.4065819  74.2771912
  40.1815834  49.9326363  75.5265427  74.3935852   9.5802822  23.5799675
  75.2340317   9.5785036  24.0380878  74.4230652   8.8027830  23.0224228
  41.0102386  27.1213837  12.5222826  40.9588966  27.9238968  13.0414829
  40.5230522  27.3216190  11.7230415  50.8634224  24.7910976  66.8832092
  51.3477249  24.1094170  66.4173813  51.3107414  25.6045780  66.6500015
  21.1972084  28.7328987  71.5914688  21.1613560  29.6237717  71.2431946
  20.3159008  28.5718460  71.9285049  84.6602631  12.5975132  88.2389984
  84.3957062  13.2712498  88.8653564  84.7624817  11.8060236  88.7675171
  27.2403774  35.1317673  22.4145927  28.0042267  35.1811180  21.8398495
  26.5847359  35.6847115  21.9896011  83.9719925  43.7197647  11.8492603
  83.1549225  44.0120926  12.2532120  83.6941452  43.2166100  11.0838385
  73.1541443  17.3523521  19.0512085  72.2930527  17.3946667  19.4671078
  73.5628586  16.5719490  19.4255791  76.2316437  50.7049980  33.3734932
  76.3805771  50.2928696  34.2244911  75.7591858  50.0444298  32.8668671
  19.2686386  40.0059280  29.7064514  19.2809429  39.1514130  30.1375980
  18.9099998  39.8301506  28.8365593  58.2210274  32.0462151  14.0591173
  58.7394257  32.4655762  14.7458725  58.7836075  31.3460751  13.7281532
  78.9992447  53.1002541  58.6089020  79.4678726  53.8962135  58.8600311
  78.6870270  52.7348709  59.4366989  68.4255219  36.0832596   5.8168025
  68.9563065  35.7490959   6.5398784  69.0247421  36.6362457   5.3154325
   1.9314291   8.5799026  44.7984200   2.4045668   9.3495283  44.4821129
   1.0127615   8.8487139  44.8031235  50.6284409  59.3544731  52.1879311
  50.3288879  58.8400497  52.9375114  50.2336044  58.9246063  51.4292793
  40.1507568   0.6933152   8.2517567  41.0268822   0.4015978   7.9996815
  40.1298065   0.5938458   9.2035446  21.4055843  22.6436882   2.6889172
  21.8341484  22.2310295   3.4387693  21.3745937  23.5738297   2.9127643
  71.2106781  42.9650269  79.4496841  71.7818985  42.4321899  78.8964844
  71.5678635  43.8503647  79.3801727  69.2551804  49.9464188  27.5271816
  69.0747528  49.4769096  28.3415775  69.2457809  50.8705635  27.7763710
  49.2834358  26.9951134  26.2745800  49.4386330  27.9073887  26.0298405
  48.3406601  26.8739338  26.1617794  11.8586664  63.9165916  38.9536438
  12.6985111  64.1803055  39.3296051  11.2182493  64.4936905  39.3696442
  31.6894054  39.5262222  66.9325790  32.4872169  39.0410843  66.7219315
  31.1545601  38.9047699  67.4265137  47.6019707  47.6823616  80.5357666
  47.1405830  48.4818077  80.7892151  47.1020622  46.9768867  80.9464111
  73.2766800  34.5668488  46.8208618  73.0158386  34.8384743  47.7008705
  72.7498932  35.1115837  46.2360611  80.2932434  61.3145485   3.9780412
  79.8483047  60.7768898   3.3229225  80.1705170  62.2136536   3.6734433
  18.4893055  32.4037971  27.8194256  19.2988586  32.7177582  28.2222691
  17.9366951  33.1826134  27.7538662  64.3096085   9.1344128  83.9263229
  63.8691444   8.6023731  84.5890198  65.1702881   9.3203239  84.3016815
  58.2196312  41.3858910  39.9562378  57.7825317  42.2127075  40.1600685
  58.3597755  40.9726677  40.8081970  84.7745895  41.4599380  77.6132126
  84.2573853  41.9708252  76.9905319  84.1244812  40.9946365  78.1396103
  12.5866203   9.2962894   5.2295713  12.3884277   8.6740837   4.5297065
  13.2718430   9.8564968   4.8650589  44.3125114  60.7639503  33.6822586
  44.7993431  59.9607048  33.4978027  43.9800606  60.6436119  34.5717697
  82.9063110  56.7576485  75.3370819  82.0437164  56.3626862  75.2099457
  83.2068176  56.9665260  74.4526062  83.7494888  49.8508186  46.5626259
  84.0203629  50.7113762  46.2427826  82.8864212  49.9996338  46.9488907
  20.7300930   1.9855847  53.6456718  20.5101910   2.6686645  54.2791367
  21.2454090   2.4362638  52.9766655  29.2958450   7.5634923  44.5849190
  29.9860458   8.2260523  44.5554428  29.7060108   6.7744379  44.2308159
  19.8945084   9.9879885  84.1368790  20.3964882  10.8030014  84.1386185
  20.4583874   9.3584347  84.5862503   8.4845972   0.1588544  40.9954910
   8.8164854   0.5891139  40.2074814   8.9619389   0.5737341  41.7139969
  25.0637131  19.9952812  14.4794397  24.3944893  19.6155987  15.0488348
  25.3915787  20.7513752  14.9663258  80.0922623  39.1576042   3.9044950
  80.6808701  39.7728729   3.4672074  80.6695023  38.6135178   4.4402199
  81.4332275  48.0079308  14.1276379  80.5857162  47.9067841  14.5609159
  82.0604858  47.6129417  14.7332449  19.6830807   2.6225960  59.0340157
  20.4505501   2.0516803  58.9982567  19.8054714   3.2341664  58.3079071
  86.0227890  13.1973801  32.2458572  85.6746216  13.4253483  33.1078568
  86.9596405  13.0671520  32.3927345  37.6282349  12.5508575  52.2035561
  37.8876648  12.1043119  53.0094872  37.3827934  11.8440952  51.6064987
  70.1254349   3.5345848  21.1959248  70.9683151   3.9221549  20.9601841
  69.7515945   4.1434937  21.8328781  75.2351761  42.9797897  77.8437424
  75.7928925  43.1801071  77.0920410  75.1760941  43.8051834  78.3248520
  25.9703941  49.0739975  79.4223557  25.3851337  48.6245728  78.8126602
  26.7271996  49.3201218  78.8904724  79.4782486  47.7237015  33.8196793
  80.2586365  48.0043488  33.3417053  79.0586243  47.0874329  33.2406158
   0.7341465  23.8705807  83.0577698   0.8385788  24.6509552  83.6021423
   0.1012638  24.1289043  82.3877258  14.9727039   5.8590517   8.1524410
  15.9268684   5.8077397   8.2087374  14.7842884   6.7972221   8.1286020
  66.8514709  20.5851727  80.2190170  66.3433762  21.2403126  79.7406235
  66.2099686  20.1447639  80.7764587  43.3025742  51.2032509  56.3691635
  43.1336250  52.0216179  55.9023018  44.2560349  51.1620674  56.4430008
  56.2654877  35.6466179  88.6676788  56.5564003  35.3715858  89.5371399
  56.7183571  35.0560875  88.0656738  52.6602669  30.4669514  57.9581032
  52.4798584  31.2906265  57.5050659  53.1276512  29.9361973  57.3130608
  30.4488449  53.3084373   4.6410689  30.1053600  54.1548729   4.9270678
  29.8073750  52.9922447   4.0048523  13.7718945  47.4509583  77.3374786
  13.0475235  47.1081352  77.8609161  13.4618807  48.3019867  77.0278473
   1.9444394  27.0395908   6.6106563   1.1313435  27.4899120   6.3819251
   2.5731535  27.3300819   5.9499254  28.8987103  54.3319855  45.9073372
  28.3800240  54.8067055  45.2578468  29.6691875  54.8824348  46.0473480
  55.1978531  45.7918167  87.6844025  55.3520203  44.8758240  87.9155350
  56.0590134  46.1226006  87.4290314  32.2230148   6.8352408   3.7438068
  32.0013046   7.7446294   3.9440308  31.6946430   6.6237726   2.9741740
  21.5929852  51.2788925   3.1651139  22.0573788  50.5003929   2.8576870
  21.6084099  51.2057419   4.1193900  56.2097664  34.4000130  20.8431931
  56.9139862  34.9562225  20.5101261  55.5640106  34.3824539  20.1368484
   5.9794388  30.3340168  70.3650818   5.3466258  30.8624001  70.8514862
   5.9941802  29.4945736  70.8248062  71.8695450  45.6253357  77.2287064
  71.2846603  46.3728104  77.1044922  72.5642776  45.9567833  77.7976761
  32.5451851  38.5784683  31.3845806  32.5338974  37.6809578  31.0520439
  32.0083885  39.0707703  30.7635174  10.9419441  53.6205940   7.0360608
  10.6790152  52.8304939   7.5081234  11.8723803  53.7212143   7.2370472
   4.2887988   7.5607562   6.7548375   3.5003784   8.0677500   6.9486990
   4.4550033   7.7221494   5.8260965  15.0641279  65.9257965  68.8251190
  16.0212994  65.9313431  68.8201675  14.8174887  66.5285721  68.1236420
  67.0855103  53.5609627  13.9231377  66.2298813  53.7430153  13.5345592
  67.0728531  54.0267792  14.7592516   6.2747560  65.2821121   0.8126281
   6.2159262  65.5072098   1.7411227   6.6599946  64.4059143   0.8025388
  32.4759750   8.9869223  21.4477119  32.0930481   8.1662302  21.7576485
  32.4369926   9.5705929  22.2053661  23.5769081  35.9045105  11.0983095
  24.0677681  35.8875122  10.2767248  22.6999798  35.6040649  10.8596468
  86.6123581  35.5680008  14.6533861  87.2622070  34.8874207  14.8287115
  86.1214066  35.2417984  13.8992004  73.2834396  40.7597580  48.7766151
  72.5908813  40.1075439  48.6707764  73.4157333  40.8172340  49.7228851
  35.6359215  27.4289646  80.5947037  35.1625633  26.8079491  80.0410767
  36.5521622  27.1604424  80.5266190  34.3703995  24.6577206  12.8247204
  34.6331406  23.9617882  13.4271135  33.4288063  24.5308952  12.7083082
  82.9203110  25.8430252  65.8271866  83.6350937  25.6073418  66.4186096
  83.2460327  26.6062069  65.3500137  21.9303474  31.2808361  83.6377029
  22.3906784  30.5658073  83.1983185  21.0331097  30.9626102  83.7373276
  75.7656250  46.0490761  57.0442543  74.9103165  45.6277962  57.1291809
  76.3688507  45.4598808  57.4972420  52.9047050  23.7440357  72.7939301
  53.7034302  24.2072830  72.5415955  53.1726761  22.8282185  72.8694153
  79.6069870  52.5528145  77.0075989  79.9096298  52.5333290  76.0997162
  79.2102585  53.4179688  77.1093063  31.8054008  49.6324196  34.1082497
  32.6081505  49.2997513  34.5096893  31.7702961  49.2045059  33.2527428
  56.7217293  42.2139931  82.2042618  57.3496895  42.3089485  82.9204178
  57.0057297  41.4268837  81.7394714  17.1635017  61.8563652   7.2999043
  16.6543713  61.3709183   6.6507831  18.0677776  61.7906342   6.9929886
  63.1729965  63.0790405   1.1929841  62.8532143  63.9485092   1.4338082
  62.6803322  62.4790688   1.7529395   3.7926087  18.8759499  81.8868790
   2.9123940  18.6414661  81.5928192   4.0079226  19.6663437  81.3917542
  86.1851730  54.4609451  43.6164017  87.1303177  54.5164948  43.7572937
  85.9966202  55.1520653  42.9815559  63.7329636   8.0822210   1.6100011
  63.7765350   9.0383034   1.5945028  62.9550781   7.8863463   2.1322668
  60.0650177   9.6665545  85.9937210  60.9614334   9.9936714  85.9184875
  60.0914307   8.8000050  85.5879745  79.3324661  12.2149477   4.4685326
  78.6423950  12.8418350   4.2516308  80.1373901  12.6264124   4.1538563
  11.0477695  46.9436646  25.3015900  11.7890368  46.6457176  24.7743511
  11.4486246  47.3692589  26.0594940  84.4554443   5.3151917  81.8880844
  83.8614960   4.5814776  81.7295761  84.8439636   5.1285124  82.7427368
  55.6155510  21.8556175  32.0487099  55.1426697  21.0363750  32.1951942
  55.2734871  22.4519901  32.7147141  16.4876690  44.2054062  38.4472008
  15.8086252  43.5341301  38.5144196  16.9106236  44.0348167  37.6056328
  11.2533865  21.8941345   1.6019510  11.2113800  22.0371532   0.6564285
  11.0004816  22.7350750   1.9828568  79.0629501  54.8246078  19.4981136
  78.2896805  54.2719231  19.3848343  78.7361374  55.7181587  19.3932514
  38.2864304  44.5150414  33.5740471  38.5525703  43.7352562  34.0612221
  37.6284370  44.1979675  32.9553909  47.1136818  53.1467552  57.8577347
  46.7562447  52.3372154  57.4928818  47.8778801  53.3376541  57.3138657
  10.2386026  30.9214058  15.5572786   9.9595776  31.2364120  14.6975403
   9.5777512  31.2587433  16.1620178  66.4952164  49.0839119  59.9229851
  66.2133636  49.3883820  59.0603790  67.0447998  48.3218231  59.7401962
  56.6821632  29.6106701  39.5253334  57.3188858  29.9985390  40.1256485
  56.9233742  28.6852169  39.4855385   4.9712763  49.5360527  81.7105865
   5.6460509  48.9873657  81.3107681   4.3713794  49.7391243  80.9928665
  40.9408112  26.4538918  49.0904732  41.3614159  27.0284519  48.4507828
  40.8814468  26.9835510  49.8855629  12.3408918  46.4417648  47.8757858
  11.4862404  46.7773209  48.1463509  12.3642521  45.5462036  48.2129211
  53.7607536   9.8390923  53.7039566  54.1299858   9.8128929  54.5866890
  53.0683365   9.1782703  53.7142525  59.1916084  56.3624992  83.6640091
  59.1793098  57.3116684  83.5409012  58.2901726  56.1393890  83.8961182
  39.1018791  56.8427391  57.3089638  39.9096947  57.0401459  56.8349342
  38.6967239  56.1351929  56.8075104  80.1328888  59.6779556  19.8022900
  80.9491501  59.9896393  19.4113922  80.3560791  59.5049324  20.7168846
  39.2550049  39.6609573  78.1354523  40.0503387  39.9688187  78.5700760
  39.0014839  38.8789673  78.6258087  38.2439537  18.5949898  10.9042454
  38.6224251  17.8459663  11.3646288  38.5746002  18.5180492  10.0092678
  79.5824051  55.6970215  -0.2651623  79.1177521  54.8820534  -0.0750258
  80.1640167  55.8216934   0.4847824  41.4226952  68.2101440   6.5072875
  42.3215027  68.5270844   6.5962858  41.1264954  68.0740509   7.4072752
  67.7300568   0.6219993  40.5586090  67.0836563  -0.0181850  40.2610245
  67.9079132   0.3782722  41.4670143  81.6841660   8.4682055  26.2841167
  81.1952896   9.2077932  26.6450119  82.5969772   8.6542397  26.5041256
   2.3300011   1.9428176  40.1207771   3.0416534   2.1664879  40.7205734
   2.2144966   0.9986451  40.2276840  39.1318245  49.0428963  32.9068680
  39.2094460  48.0925064  32.8233871  38.5663414  49.3018494  32.1792641
   6.0327163  44.1661682  23.2502689   6.9266067  44.0586891  22.9252453
   5.4935551  44.2041092  22.4602718  40.5165291  71.2317810  87.2508240
  40.7595406  70.3308029  87.0376968  39.6973419  71.1497803  87.7391205
  67.4596786  69.7454529  24.5639973  66.6741180  69.5304260  25.0668793
  67.9052124  68.9066086  24.4453926  54.2225494  22.9907665  79.7365952
  54.5515862  22.9336491  78.8395462  54.9329338  23.4051609  80.2263565
  58.5665016  69.1124649  50.8754349  59.2484741  69.2698441  51.5284119
  58.7497025  69.7448120  50.1805878  19.5298576  26.7091179  84.7877960
  18.6712608  26.2893829  84.7342682  19.7094097  27.0019836  83.8943634
  53.4788361  54.4992142   0.2202940  53.6126671  55.3793869  -0.1313042
  53.2217369  54.6417274   1.1312400  77.8277817  14.1956425  62.7632446
  77.2269745  13.7441444  63.3560448  77.5273285  13.9532251  61.8873520
   7.8921046  62.4930038  51.4028549   8.4996567  61.7594528  51.4977951
   7.2722192  62.3854980  52.1242523  43.3587532  52.0418015  76.1575928
  43.1827965  51.8846779  75.2299194  43.2472649  52.9862976  76.2658997
  49.6355515  16.6244678  47.6510849  48.8027344  17.0813732  47.5332489
  50.2406540  17.0733795  47.0606956   3.5319581  22.6483459  36.3029480
   3.9493222  22.9710960  37.1016159   4.0133023  21.8496227  36.0871277
  53.6912231  66.2245483  69.0014648  53.0173874  66.1285706  68.3284378
  53.2387428  66.0317154  69.8226242  39.1108589  32.0676842  86.7749786
  39.9640274  32.1105728  86.3431244  39.3111267  32.1371613  87.7084045
  72.7917862  -0.1157536  66.0559998  73.6195374   0.3551164  65.9593658
  72.1401672   0.5714343  66.1952972  47.2438889  49.3499527   8.6501856
  48.1738739  49.5763931   8.6412239  47.1175308  48.8892746   9.4796696
  34.8752785  17.1845703  87.6306839  34.5086823  16.4107475  87.2028503
  34.7623444  17.8878632  86.9912643  74.6394577  35.4732590  55.1244812
  75.3410110  35.8297958  54.5795631  74.4343567  36.1761284  55.7410393
  41.7405128  66.6644363  69.4481125  42.5644798  66.4331741  69.8768692
  41.9490662  67.4437637  68.9329605  53.5862045   5.5882192   9.3141203
  53.8407173   6.5021529   9.1869154  52.6567993   5.5644903   9.0863676
  30.9852867  40.9605408  33.6926193  31.7068462  41.1568031  33.0950737
  30.3216343  41.6203880  33.4916344  10.7114315  16.8556767  20.3075409
   9.7998123  16.5762882  20.3919506  10.8586597  17.4242229  21.0633926
  78.7419586  63.4648094  83.3987274  78.6819153  64.0659256  84.1412125
  78.4695663  62.6184044  83.7531662  67.8630447   5.6564217  80.0544434
  68.0095596   5.4321437  79.1354980  67.0230942   5.2506380  80.2690430
  69.5012894   4.0336399  65.5511780  69.3757172   3.2375240  65.0347824
  68.7159348   4.0926065  66.0952072  17.4167366  35.2647095  60.2870445
  16.5130596  35.3359299  59.9795914  17.7926273  36.1306152  60.1284714
  85.3982773  44.6145706  72.5026321  85.8299026  44.1507759  73.2201385
  85.8326035  45.4670410  72.4728699  49.2114296   3.0240450  40.6973000
  50.1291504   3.2685630  40.8165894  49.1609688   2.1218159  41.0130005
  11.0181932  36.1547737  73.8342285  11.0579224  36.5522194  74.7041092
  11.1314144  36.8886414  73.2302017  77.3763123   1.2453159  27.6099777
  76.8646317   2.0536351  27.5778618  78.2751007   1.5367326  27.7632275
  44.3470726  67.8032608  49.3674393  45.1693573  67.5460358  49.7844696
  44.4998131  67.6668777  48.4323997  14.4196444   3.7320724  53.0181618
  14.8557501   4.0330243  53.8153267  15.0964460   3.2510970  52.5418930
  70.9131165   3.0997090  80.3755722  70.4689941   3.8573864  80.7562408
  71.5455399   2.8326814  81.0426331  80.7307205  54.6944847  31.9473286
  81.3523560  53.9703674  31.8734760  81.0107269  55.3196602  31.2787590
  86.4826279  38.3393173  12.2312288  86.2445908  39.2409935  12.0154877
  87.0830765  38.4208641  12.9722042  59.8115120   2.7179523  51.8724861
  59.5791016   3.4746385  51.3343048  59.4469986   1.9683315  51.4019241
   4.8099394  20.3064232  72.4275131   4.0592709  20.1054573  71.8686371
   4.4232707  20.6392994  73.2373962  76.5795059   7.4087577  59.6130142
  76.2546539   6.6872606  59.0743599  77.5187073   7.4396205  59.4308853
   2.3577514  30.3183651  62.7066612   1.9155629  29.8018723  63.3804092
   2.6464791  31.1091976  63.1621284  76.0718765  30.8642998  67.9622345
  76.9912796  30.9434643  67.7079544  75.5862122  31.2232437  67.2195892
  24.8920708   5.6552596  22.6688938  25.7420769   6.0419364  22.8791351
  24.5557156   5.3446865  23.5095139   8.7475281  15.4316015  73.7178116
   8.3992491  15.4152622  74.6092529   8.4257336  14.6225948  73.3200760
  83.9747009  46.4617233   2.7332788  84.4183350  47.1894646   2.2976089
  84.3255539  46.4659576   3.6238501  15.1404457  41.8013306  79.1245499
  14.2135353  41.7416573  79.3558731  15.2847986  42.7316971  78.9518890
  74.6526260  65.3104706   2.1047249  74.4442062  65.6670303   2.9682398
  75.5935211  65.4562073   2.0061471  48.9373589  49.9386673  33.0321045
  48.1505241  50.2812691  32.6081352  48.9907875  50.4164696  33.8597984
  10.5451555  22.3506184   5.8961673  10.5281115  22.3558292   6.8532014
  10.1017447  21.5378704   5.6531434   6.1414537  61.7124252  73.2134171
   5.1996636  61.6246643  73.0665817   6.5420814  61.3389397  72.4284058
  50.9887772  61.7240448  82.2436981  50.1509285  61.3117294  82.0333633
  51.1835823  62.2720413  81.4834442  85.2263107  25.0529041  54.2036095
  84.4970474  25.5962849  53.9050331  85.8241119  25.0228443  53.4566422
  62.1890373  27.7609653   9.2042933  61.2846565  27.7819939   9.5171604
  62.7188492  27.8359604   9.9979610  43.6148605  42.4614258  43.8320923
  43.7823639  43.3595848  44.1175461  44.4044647  41.9802628  44.0795555
  86.1676025  55.3814087  84.1982040  86.6236038  56.2191658  84.2785339
  86.2773132  54.9660149  85.0535660  50.3113403  68.7133026   6.6818480
  51.2351151  68.6583633   6.4371982  50.3199310  69.0629272   7.5728703
   9.1760321  66.8654785   6.7224836   8.3359995  67.2868118   6.5406680
   9.2920580  66.9606247   7.6678500  80.6603622  44.8402290  34.1234055
  81.3565521  44.4781609  33.5752602  81.1090164  45.4512024  34.7079124
  20.9955540  59.3818054   7.2721677  20.9368935  59.1984711   6.3345222
  21.9346542  59.4491234   7.4447618  84.3607559  24.7911491  34.0147400
  84.7790833  25.2129631  33.2642059  84.5422592  23.8586807  33.8973045
  83.1723862  43.2675591  40.1394577  82.7882462  43.2358360  41.0156250
  82.4556885  43.0214081  39.5546646  53.1059532  21.9366207   6.1028390
  53.5004463  22.3922768   6.8464684  53.5416794  22.3080845   5.3357744
  74.4291458  20.9855118  13.2419796  74.3997574  20.0804081  12.9318924
  74.5086670  20.9104404  14.1929121  55.2778854  67.4380646  21.5211887
  55.5193901  66.7984924  22.1911583  54.5848045  67.9592896  21.9264011
  22.3329315  50.5210876  36.6777954  21.7438164  50.1927071  37.3570175
  23.2093964  50.3041611  36.9955788  59.9980927  29.2841721  85.1135712
  59.1577187  29.0182171  84.7403793  60.5874100  28.5550346  84.9204559
  27.5512943  44.3923264  66.4278793  27.4934769  44.6378555  65.5045090
  28.0460777  45.1037979  66.8343658  70.0208054  65.4990540  85.5682068
  70.2470551  66.0147400  86.3422318  69.1842804  65.8607330  85.2755585
  22.8130341  57.3295822  15.2856960  21.8890781  57.0798416  15.2727594
  23.2814999  56.5070610  15.4279108   5.4719009  38.1990700  82.2708359
   5.8305221  39.0654068  82.0782700   6.2206645  37.6954613  82.5901489
  44.6811485  57.5618744  79.7191849  45.2671700  56.8183861  79.8607178
  44.6804276  57.6890640  78.7704773  74.8836136  13.5285254  29.5956440
  74.5286255  14.4158096  29.5413780  74.5800476  13.2004604  30.4420815
  44.3898125  45.8106308  44.3214455  44.5481834  45.1202812  44.9653130
  43.4978027  46.1069145  44.5024567  86.7065430  64.6887512  70.8301315
  87.2868652  65.4419785  70.9401627  86.4063110  64.4862595  71.7161865
  51.3994980  28.6021423  71.1549072  50.6892242  28.1434155  70.7062302
  50.9794044  29.3663177  71.5496063  53.2573776  12.1306152  60.3396721
  52.6696243  11.8570900  59.6354256  54.0771866  12.3487158  59.8963013
  15.2155056   1.0572020  52.0506859  14.8086452   0.4356696  52.6543350
  14.4819555   1.4351188  51.5655937   3.3922427  32.5045967  15.3360128
   3.0803320  32.5527420  14.4323397   3.4192502  31.5677471  15.5304737
  16.7129478  63.9094887  83.8418884  16.8252983  63.0076065  84.1422577
  16.4537029  64.3926926  84.6264496  22.2099342  39.4012413  78.1871643
  22.4433403  39.3252373  77.2619781  23.0146294  39.6956787  78.6137848
  43.7176476  67.2827148  22.1628056  43.8987846  67.5456009  23.0652008
  43.2409172  66.4567642  22.2450523  59.6521530  37.4346809  16.5693035
  59.8763847  37.6762276  15.6706333  59.9851761  38.1571083  17.1016827
  17.5904903  40.4889641   2.7016773  17.1969147  41.0540543   2.0368445
  17.0040073  40.5607719   3.4547460  77.7738419  16.8372231  63.8805466
  77.6685104  15.9830656  63.4615555  77.8618088  16.6375999  64.8125534
  65.1807785   8.7632675  65.7785416  64.4357681   8.2399607  65.4830170
  64.8992767   9.6701708  65.6580734   2.8627121  -0.3749920  60.4486694
   2.7830188   0.2827154  59.7578011   3.2426729   0.0992961  61.1882057
  26.1309929  63.1449890   7.3940744  26.3974724  62.8856354   8.2760935
  26.9144592  63.5428276   7.0144248   2.0047243  70.7690125  40.4425583
   2.5132565  70.8173370  41.2520599   1.8675067  69.8322678  40.3014679
  12.9288568  47.7946053  19.3376007  12.4142475  47.1188660  18.8962536
  13.3199615  48.3010063  18.6256847  27.2608051  64.2773819  80.4001999
  26.9685917  64.1933899  79.4925766  26.4560394  64.2299881  80.9162827
  60.5017357  10.7418671   8.7653894  60.9733543  10.2583323   8.0871553
  60.2831421  11.5785141   8.3549395  35.3280106  59.8475838  69.4231110
  34.8329773  60.1889496  70.1678543  35.1860733  60.4890022  68.7269287
   4.0095654  63.5213585  20.7877407   4.8366847  63.7622986  21.2049351
   3.7796743  62.6791992  21.1803589  48.6240540   8.4528246  45.5301170
  47.8391304   8.5735264  44.9957428  48.9468422   9.3404589  45.6855011
   8.5178070  14.5794392  26.2537460   8.2591953  14.8690815  25.3788414
   9.1059828  13.8406429  26.0973454  80.5816727  70.5387878  42.4583893
  80.1328201  69.9106064  43.0242119  79.9202042  70.7989044  41.8172684
  67.1898575   7.7732024  60.2599106  68.0555496   7.8303947  60.6643143
  67.3686066   7.6237569  59.3314972  45.8477478  49.0490303  23.6284065
  44.9894562  49.4605293  23.7295933  46.0357895  48.6726875  24.4881954
  19.1439266  26.1807537  24.3258152  18.2576828  26.4335938  24.0672112
  19.0727463  25.2526226  24.5488396  82.2941895   8.5091057   8.5206232
  82.4103012   9.4556770   8.6028070  81.9309692   8.2382507   9.3637953
  34.9359856  16.5275021  26.4146042  35.7815094  16.4830933  25.9681244
  34.3120003  16.1719608  25.7817783   3.8965216  54.4778748  75.4054337
   3.5686738  55.1906738  75.9537582   3.8851383  53.7107239  75.9777832
  20.7573433  43.7020454  68.4513550  20.6756344  42.9103546  68.9831314
  21.6817589  43.9412117  68.5183411  77.2316132  46.1950645  36.8777809
  77.8520279  45.4691124  36.8121147  76.5128403  45.8487549  37.4066162
  66.6615829  46.1950760  39.0669937  66.6067734  47.0884056  38.7275963
  66.0152740  45.7054977  38.5582428  60.9153671   7.1192923  71.6737595
  61.6950264   7.4305267  72.1336365  60.6187515   6.3676138  72.1868134
  86.2737198  59.0030441  33.5158615  85.4777832  58.4737053  33.4656143
  86.1260605  59.7170486  32.8956757  62.3511047  33.7015915  17.4531841
  63.1425438  34.1547432  17.1624870  62.6613350  33.0702896  18.1023731
  49.1669998  28.3053379  18.1236076  48.4333992  27.8479691  17.7126598
  48.9078789  28.3985195  19.0403442  15.4147635  36.4767609  14.2076817
  15.7672615  37.1780739  14.7555294  16.1881104  36.0396919  13.8511190
  76.7831192   9.1647243   6.4568830  76.0446243   9.4207115   7.0094433
  76.6683655   9.6722641   5.6534743  27.0756512  52.9307480  23.7675037
  26.5665703  52.5357399  24.4753437  26.6416397  52.6358871  22.9669285
  64.5631027  11.6250315  10.3889408  65.1629791  12.3281507  10.1399364
  63.7204018  12.0617838  10.5127649  46.3877792  67.7894440  51.3653679
  46.9281960  67.4371414  52.0725212  46.7853279  68.6353149  51.1587601
  52.5896111  45.1013069  80.4912796  53.4702682  44.8781853  80.7927551
  52.2747269  45.7443542  81.1265488  38.1806374  34.1938400  74.3406296
  37.5670242  33.6125984  74.7899246  39.0285530  34.0032501  74.7418137
  22.8906403  58.1625977  64.7389526  23.7520485  58.5556946  64.5986557
  22.4528351  58.7564278  65.3488083  54.3703384   1.3636024   0.7360752
  54.4418716   1.6775970  -0.1653250  55.2763138   1.2404739   1.0194175
  79.7354355  56.5424232  41.0220680  79.6941376  55.8045273  40.4137650
  79.0392227  57.1315880  40.7315483  46.0654831  48.0645180  12.7569456
  46.7044067  48.5875435  12.2727375  45.9098129  48.5604591  13.5607109
  24.0645809  43.6872253  28.7369461  23.7792263  43.7205505  27.8238773
  24.4753628  42.8274879  28.8282776  51.9985123  42.9911919  14.7226219
  52.0238953  42.0373306  14.6468620  52.5066643  43.1824532  15.5109310
  46.9498291  35.4785995  27.2918491  47.0872002  36.1104965  26.5861092
  47.6774750  35.6310005  27.8947887  69.0537109  38.4332161  77.9099426
  69.5593033  38.2994537  77.1082458  68.4771957  39.1705132  77.7093124
  74.0318832  46.3909607  73.5608215  74.1691666  45.4595604  73.7336731
  73.0857773  46.4757500  73.4427795  42.7712555  56.8058891   0.1002470
  43.2821693  57.5885239   0.3068445  43.4027214  56.2052155  -0.2955788
  56.5546570  23.9804287  22.0109921  56.5300140  23.3963242  22.7689133
  55.7505188  23.7834816  21.5305748  80.0337372   5.1994743  -0.0587665
  80.8817978   5.5083065   0.2600599  79.4277420   5.9122338   0.1436544
  18.4376297  60.6508675  56.3028107  18.3343773  61.3360062  56.9632339
  18.0711117  61.0307159  55.5043068  45.2657509  12.0641422  73.9870605
  44.6066360  12.1171217  73.2949677  45.8111725  11.3167915  73.7416763
  32.4098587  37.5830956  70.9280777  33.3548622  37.4838600  71.0436401
  32.2228966  37.1456795  70.0974503  26.4638977   1.4709774   0.7345158
  26.7957497   0.9779549   1.4848723  25.5515137   1.1939802   0.6504890
  71.8318787  51.8769455  33.2858543  71.4150543  51.0486870  33.5235062
  71.3547821  52.5378342  33.7876816  70.7360840  47.9568901  76.7445450
  70.7160797  48.1658249  75.8106461  70.7533112  48.8089790  77.1802979
  52.0933723  37.2222137  27.3413258  51.7981720  37.2274628  26.4307976
  52.9722099  36.8445587  27.3060112  76.2005920  58.3613853  16.6881561
  76.0684662  59.1878319  17.1526566  75.7415619  57.7115059  17.2203064
  21.3464775   4.9609690   4.0163727  21.5655594   5.1707201   3.1084967
  20.9413452   4.0949178   3.9710453   0.4867266  46.3350830  26.0818291
   0.9742677  46.4734802  26.8938522   1.0391225  45.7457047  25.5682888
  31.3919563  61.7711639  60.9253197  31.8011513  61.1392326  61.5164680
  30.7860451  61.2493935  60.3991432  73.5402603  50.3705482  57.8281212
  73.7198792  51.1649742  57.3252716  74.0973969  49.7028236  57.4281502
  52.5169296  65.9766846  74.3945618  52.4820328  66.5803833  75.1365585
  52.9750862  66.4645309  73.7102127  27.4031944   2.1264365  59.7566109
  27.8029461   1.5354003  60.3946609  27.8278389   1.9064287  58.9274521
  63.7809982  67.3802795  20.7609673  62.9616547  67.6911774  20.3759365
  64.4466629  67.9799957  20.4241180  77.6523819  41.8868484  44.7155533
  77.8019104  41.0626373  45.1787491  78.4383392  42.0082169  44.1828499
  50.6220894  29.4314785  59.7313843  51.1161995  30.0009480  59.1416473
  50.1816330  30.0328865  60.3318367  68.4420013  36.0828362  10.1122169
  68.0304031  36.2728081   9.2691679  69.3712769  35.9796448   9.9072123
  84.4618607   9.8606367  86.4817352  83.8327332   9.4471807  87.0729065
  84.0175858  10.6504974  86.1735535  39.2791824  14.8569574  20.1537628
  39.7731209  14.5057354  20.8946400  39.9356613  14.9909248  19.4701538
  13.8609915  16.4766312  24.8806438  13.8396492  15.7918005  24.2122250
  14.4854460  16.1565266  25.5316601  77.4518814  36.9331284  60.0559502
  77.6241913  36.0395355  59.7592506  78.1381912  37.1082497  60.6997948
  54.6873741  68.3235016  74.8699875  55.3443031  68.7761230  74.3410110
  54.7456779  68.7382584  75.7306900  82.4114227  55.2481689  47.6985817
  82.6723557  55.3910599  46.7887840  83.0955811  55.6754951  48.2139015
  86.1034927  37.1303253   7.9698377  85.9793549  36.4879417   7.2711506
  87.0344238  37.3496208   7.9309373  47.6393623  16.6525440  27.6900387
  48.0495529  16.9010220  26.8616486  48.2989082  16.1189404  28.1333218
  71.5865402  49.1102600  10.3807936  71.1506042  49.9621277  10.3582039
  71.3631744  48.7046089   9.5430660  64.0745392  70.1171417  16.9402237
  64.2453766  70.7621307  16.2539005  64.6784286  70.3515930  17.6449089
  51.4376640  67.6060104  26.8660107  50.5782852  67.7190552  26.4599056
  51.9887161  67.2546692  26.1666317  34.7633820  69.9906006  89.1218491
  34.4768753  69.7578583  88.2386932  34.9470940  70.9288177  89.0745926
   2.9355135  62.3081055  14.9371185   3.3171408  61.9673386  15.7461119
   2.7682719  61.5302391  14.4049654  78.0972290  35.5733109  81.0183487
  78.1292419  35.5533829  80.0618896  77.4515152  36.2498283  81.2223434
  83.1806946  50.1348267  29.8869228  82.7227173  50.9635162  30.0275192
  82.4848251  49.5061111  29.6953068  84.6664658  39.2516708   9.0698223
  85.4328156  38.6972847   8.9228716  83.9463425  38.6349144   9.2012320
  17.8199120  42.4709244  14.4777107  18.4143238  42.1291733  13.8097954
  17.0517464  41.9019547  14.4284534  38.5098267  50.7397041  67.2059784
  38.3162727  51.5189743  66.6849136  38.6025429  50.0377998  66.5618057
  15.3323421  10.0215664  67.6609573  16.1087914   9.5445690  67.9539261
  14.7801895   9.3536949  67.2543793   2.5088191  57.5151253  38.1869354
   1.6370879  57.6229401  38.5673180   3.1045444  57.8615379  38.8512688
  64.2654800  22.4805164  11.2974138  64.5707245  22.5911903  12.1978617
  63.7861214  23.2866764  11.1062212  60.5218735  61.0346909  41.0307503
  60.8924866  61.1467323  41.9061508  59.9749298  60.2522545  41.1005592
  54.2990456  37.7970123  60.3446693  53.9013748  37.3939896  59.5728798
  54.6567230  37.0612602  60.8416290  67.8637009  31.4112167  17.6475582
  67.7249298  31.6071224  16.7209530  68.0516281  32.2608032  18.0464573
  82.7135239  62.3149529  21.5390072  81.7762375  62.4838409  21.6349258
  82.7796021  61.7692757  20.7553616  73.8057709  21.8181343   2.7172549
  74.0635529  21.0031986   3.1481400  73.7101669  22.4472771   3.4322855
   4.6579790   2.7801363  46.6822662   5.0708323   2.3232789  45.9494209
   4.6818671   3.7039144  46.4326744  23.9216175   4.7772317  69.0217056
  23.0391064   5.1172576  68.8740997  24.5004063   5.5003710  68.7802429
  16.3410721  37.8737946  18.8119469  17.2259388  38.2317276  18.8835506
  16.3068562  37.4934540  17.9342213  30.2054462  58.7019806  82.5945511
  29.9966755  59.2103119  81.8108139  30.3282566  57.8082123  82.2746658
   6.8841310   6.1434431  23.4896584   7.4526834   5.3749814  23.5391235
   6.1444421   5.9311552  24.0588913  35.1403961   3.3571286   9.8819866
  36.0502243   3.6005137  10.0528984  35.0949707   3.2523396   8.9316244
  82.2177734  63.0597229  58.6242561  81.3017502  63.1952744  58.3818512
  82.2720108  62.1299324  58.8451157  28.1987667  14.4224949  16.1682796
  27.4894142  15.0613699  16.2382050  28.9137459  14.9031515  15.7511377
  74.3379211  49.1548538  19.6299305  75.0229645  48.9237442  19.0026016
  74.4344177  50.0992126  19.7528439  69.0176926  65.5510178  66.7100601
  69.8758621  65.4589462  67.1239395  68.4023514  65.5954819  67.4419098
  71.1214676  12.9231262  12.9443531  70.2853699  13.1454287  12.5347834
  71.3853836  13.7228184  13.3994093   9.5131292  63.8067894  14.5307035
   9.4200602  64.4950104  13.8719730  10.4523497  63.7747345  14.7125483
  18.8390064  29.7071629  80.7250977  19.5616913  30.0770741  80.2180252
  19.2619076  29.1195889  81.3513107  64.7094574  17.9146481  22.3511829
  64.2929230  17.9238548  21.4894123  64.0147705  18.1756268  22.9557781
  37.7952156   9.4850950   1.4275082  38.2588234   9.8843918   2.1636202
  37.1861725  10.1620283   1.1324438  50.8915710  52.6364174  34.2023125
  50.9934959  52.0556526  34.9563408  51.6500854  52.4471703  33.6499748
  79.0643616  32.7592316  82.2969589  79.7611542  33.3521996  82.5782242
  79.3845978  32.3857613  81.4758606  55.9711189  34.4609947  81.4562454
  55.3233757  35.0757790  81.1117096  56.7618790  34.9873238  81.5741730
  27.7695675  56.3688622  30.5885773  27.0515041  56.9672890  30.7947445
  27.8702793  55.8350754  31.3767147  25.5384159  65.6490936   9.7077904
  25.2910519  64.7559586   9.4682989  25.6847687  65.6117935  10.6529999
  39.6344452  12.5819197  72.5202713  38.9500847  12.7423372  71.8705444
  39.1580429  12.3551569  73.3189316  49.3908920  12.4250278  77.5117645
  49.0698738  11.8640270  78.2177811  49.0695305  13.2985859  77.7350540
  50.0362129  17.0400143  14.7249546  49.2385292  16.5163765  14.6492224
  49.7460594  17.9407043  14.5807323  45.4078293  25.0583344  89.0061722
  45.9882050  24.3109398  89.1503830  44.8764305  24.8066883  88.2508392
  60.4624672  45.9630127  79.1926651  60.7408066  46.0692940  80.1023102
  61.1363945  46.4116554  78.6819992  79.3358078  55.9906502  16.6634960
  79.0207520  56.0449257  17.5657291  78.8586349  56.6797943  16.2013092
  83.8423843  57.4580498  33.6530418  83.4532700  58.2621918  33.9968071
  83.2980957  56.7566338  34.0108147  82.0135651  58.3358040  37.6401215
  81.6952057  59.0973129  37.1553688  81.8216934  57.5914421  37.0697365
  45.8567810   5.8295722  80.9402084  45.1794472   5.2323666  80.6227264
  45.7594299   6.6122260  80.3977966  38.5218277   1.4601202  34.3869286
  39.2213326   1.3533558  35.0315399  38.2521858   0.5662727  34.1758308
  70.9405670  44.9174347   5.8833952  71.3120346  45.1269913   6.7403278
  71.3436050  45.5482826   5.2868834  71.6892242  24.8773518  61.3917732
  71.9231873  25.4214478  60.6398087  72.0305634  25.3544998  62.1481094
  36.3257408  58.6231232  44.6694412  36.1925125  59.5668030  44.5802765
  36.2294006  58.2825470  43.7800827  56.9602470  65.4874954  70.9067307
  57.5942535  65.4448624  70.1908798  56.3265839  64.7984848  70.7068176
  66.1573029  13.7492552  13.6965637  65.3392105  14.2312307  13.8176422
  65.9863968  12.8878460  14.0773506  46.4100685  49.2626190  86.9555130
  45.6908836  48.8123589  87.3985443  46.6081352  50.0102806  87.5194321
  82.5664520  13.1688156  61.2342224  81.7133789  13.2743816  61.6553535
  82.9908752  12.4656639  61.7258263  49.8626862   1.2869570   5.2869558
  50.4941025   1.4007409   5.9973083  50.3199654   0.7441608   4.6446943
  19.3840351  47.1297531  10.3108969  19.5403080  46.2032318  10.1282215
  19.5310802  47.2162933  11.2527676   1.8922735  35.3408203  73.8127594
   1.8242482  34.4443626  73.4841766   2.2153184  35.2437057  74.7085571
  43.4752502  51.1143990  71.2952347  43.2336655  50.6762161  70.4792328
  43.3688736  50.4424019  71.9685364  54.3837090  13.8958969  48.0954475
  53.9827385  14.7199268  48.3719063  53.7354889  13.4969902  47.5150032
  20.4275723  46.7170486  24.2749195  19.6199818  46.2966194  24.5703259
  20.4309998  47.5661850  24.7167206   2.3856874  40.5406456  70.0161285
   1.6328559  40.1536865  69.5692062   2.0277481  40.8839226  70.8348312
  66.1331253  45.7744598  27.7097168  66.8251495  45.6702461  28.3627644
  66.5016022  46.3778801  27.0644741  19.8739738   1.6652466  77.7476044
  20.5336380   0.9776615  77.8387070  20.3699684   2.4391501  77.4805908
  26.9443951  69.8830185  69.9908218  26.4234486  70.4090195  70.5975876
  27.0952587  70.4601364  69.2422180  42.5313187  56.1466484   7.4038529
  41.6833496  56.3063087   6.9894996  42.4455833  55.2786522   7.7981429
  85.9058762  17.4903202  44.1853790  85.4832001  17.8930206  43.4268227
  86.2668381  18.2274971  44.6778336  72.7741623  38.2836533  35.0550156
  73.5430679  37.7149925  35.0145950  73.0643234  39.0432549  35.5600319
  27.1387539  40.0600357  15.4283628  27.0197353  39.6547089  14.5694246
  27.2853584  40.9865379  15.2377501  32.3126411  56.2392159  33.1498833
  32.0533562  56.9321671  32.5425720  31.7159443  56.3355904  33.8921051
  22.0216045  44.3467865  17.2242374  22.2426357  45.2551689  17.4297066
  22.8651848  43.9275627  17.0543652  75.6206131  21.9717846  74.7686081
  75.8315277  22.8816719  74.9780273  75.8183517  21.4892445  75.5712891
  30.7853622  45.1724205  82.0985107  31.5810013  44.6428986  82.0456161
  30.3319149  44.8463898  82.8758926  42.4057503  69.4989090  76.2102356
  41.8106117  70.1540756  76.5746536  42.9995728  69.9995651  75.6508102
   6.5928335  51.8453331  17.3860397   7.1827002  52.4597473  16.9492550
   5.7418675  51.9967842  16.9747601  78.7799759  41.3602791  72.0842361
  78.5586090  40.5715294  72.5793152  78.6507416  42.0770569  72.7053375
  10.9605303  26.9999352  29.4794598  11.1040039  27.0682907  30.4233742
  10.0849810  26.6219807  29.3970280  69.0783386  58.8700180  74.8716965
  69.2828522  58.1348114  75.4495163  69.2341843  58.5320969  73.9897995
  53.0284920  32.2671013  35.3411369  53.7010880  32.4260254  34.6788750
  52.2008095  32.3851433  34.8750420  34.7557220  19.9349384  15.5669308
  35.0983887  19.8240833  16.4537926  34.2043571  19.1654167  15.4252720
  30.1232033  39.3081779  21.5913906  29.8240738  38.4000206  21.6361046
  29.9732628  39.5652199  20.6816216  39.7212143  68.9320831  50.4837189
  40.3945389  68.3308945  50.1652145  39.8215828  69.7136993  49.9403725
  64.0956497  17.2638855  12.7426662  63.1698952  17.4947109  12.6657000
  64.5460968  18.1045036  12.8244839  45.9583054   8.8276472  44.9736786
  45.2952194   8.9197092  45.6578369  45.5599976   8.2399845  44.3316231
  60.9650726  51.0272560  61.4681816  61.6199913  50.4475822  61.0792236
  60.4231606  50.4497490  62.0058174  72.9319839   8.0061865  58.3958549
  72.9408951   8.9420671  58.5965538  72.3540115   7.6249824  59.0568123
  76.3924026  51.4250031   4.1751103  75.9476318  52.2016068   3.8355563
  77.2000656  51.7619133   4.5629239   3.1181779  33.0435371  12.7117586
   2.2639303  33.2729492  12.3458843   3.7150855  33.7030411  12.3582230
  32.4634857  15.4025698  82.5208511  31.7348251  15.7736301  83.0184402
  33.1256523  16.0937462  82.5143509  30.5963631  50.6057434   5.5712395
  30.8722115  50.8320732   6.4594474  30.3807487  51.4457207   5.1660457
  72.7565994  15.9436398  85.8362427  72.4641037  16.5478992  86.5185547
  71.9524612  15.5313168  85.5206757  21.0662289  18.2572365  58.0090981
  21.5669975  17.5631771  58.4377518  20.8924675  17.9195366  57.1304626
  11.4162264  49.2789650  13.7123213  11.6790905  50.0155945  13.1604996
  12.1358719  49.1775970  14.3352718  57.3164902   4.6492128  71.7210617
  57.1758881   5.5840325  71.8713074  56.4771080   4.2430000  71.9370728
  62.8884125   1.2764473  80.9959869  63.6986504   1.6206617  81.3718414
  63.1337585   0.9954063  80.1144867  37.1495781   5.0024018   3.8451180
  36.3970184   5.4303331   4.2534819  37.8623810   5.1211810   4.4728379
  80.4388351  35.4775925   6.9493632  79.9297409  34.6670837   6.9380894
  79.9832916  36.0378494   7.5777135  73.8478317  57.8706779  79.0687790
  73.0108719  57.5215645  78.7624359  73.9201202  58.7259140  78.6450043
  52.4343872  22.6304150  17.6160316  52.3560524  22.2059193  18.4703732
  51.7916298  23.3392677  17.6409550  77.4117203  61.7118225   6.3674383
  76.6741714  62.0478210   6.8767114  78.1796799  62.1373978   6.7486854
  29.5117474  22.9409447  87.7722092  29.3552647  22.0684757  87.4109039
  30.3453751  22.8621407  88.2359848  73.6084137  52.4436760  71.0002213
  73.0513840  51.9356575  71.5900192  73.3764648  53.3552475  71.1776199
  18.9450264  59.9766502  39.1750336  18.3652611  59.6890678  39.8802986
  18.5613289  59.6024361  38.3819542  28.9511909  11.7711773  86.3575363
  28.5330486  12.6310873  86.4016266  29.8890247  11.9616518  86.3370590
   6.2433834  44.1106949   2.5071087   6.1738362  45.0596237   2.6116469
   6.3518958  43.7788620   3.3983691  57.8395271  65.0442352  26.8434963
  57.0002480  64.7797318  26.4668293  57.9773712  64.4376297  27.5709953
  13.7101450  27.2688637  23.9569950  13.8377714  27.6668282  24.8181381
  12.8199072  26.9182377  23.9847412  65.2606201  44.0621071  42.0597458
  64.9053802  44.3642502  41.2238350  65.1747665  43.1093559  42.0261230
  16.5418129  55.3509140  40.8052750  16.0898571  54.5728149  41.1316681
  16.7151566  55.8733559  41.5883713  61.6772041  53.1761971  27.9110928
  62.0112762  53.8872871  27.3643036  60.8963203  53.5408897  28.3275642
   2.2686880  17.8250675  17.6065407   2.7297988  17.1468964  18.1001911
   1.8204325  18.3443012  18.2741451  50.5813484  31.3818951  47.2545433
  50.5156708  30.4317589  47.1588326  49.9397087  31.5994263  47.9307175
  65.0465546  17.0650349  17.1149178  64.5378647  16.3000412  17.3837166
  65.9280624  16.7247925  16.9618969  30.5636044   0.9198149  73.3642960
  30.4247150   1.8305045  73.6242676  30.8481636   0.4823956  74.1667404
  34.6350479  69.6957932  61.7371979  34.2624931  70.5088577  61.3960762
  34.4137077  69.7031021  62.6684265  64.7646255  11.2541847  27.0550556
  63.8841858  11.4627666  26.7427177  64.8091278  11.6477537  27.9264660
  77.2523880  54.4314575  56.6427383  77.9799118  53.8931923  56.9545364
  77.1393890  54.1745529  55.7276115  46.9395866  11.7835293  30.7323093
  47.1824303  10.9548693  30.3192959  46.1172829  12.0302000  30.3089867
  15.3223085   9.9968538   4.6443362  16.1627254  10.0175266   5.1020532
  15.4723139   9.4217558   3.8940074  12.0578976  53.0484543  42.4441833
  11.5684681  53.7859650  42.8085556  11.4240189  52.3318520  42.4140053
  80.7160797  41.4526711  35.4183960  80.7444305  42.0097122  36.1963005
  79.8030396  41.1716614  35.3581810  74.9153061  24.9539108  53.9507103
  74.0216446  24.9469166  53.6078606  74.9322052  24.2415848  54.5898781
   7.2811265  52.7124519  76.4388504   7.2004061  52.9290810  75.5099869
   7.0743442  53.5287285  76.8940048  39.8892479  23.2013073  18.0852757
  40.3460846  22.6958637  18.7576275  39.2627144  23.7365170  18.5723476
  14.5971813  23.3222694  85.5784531  14.4736137  24.2458916  85.7972794
  15.2737570  23.3249874  84.9013519  41.0861397  29.3990345  14.0177355
  41.3867722  28.8844357  14.7667608  40.1550026  29.5444527  14.1852865
  81.6767044  23.4968071  52.3433228  82.3584824  22.9427834  51.9632339
  81.4356079  23.0552540  53.1576538  70.2483368   4.0543003  84.4696045
  70.1637039   3.1025424  84.5263977  69.8013458   4.2863555  83.6556091
  80.1084518  70.3069839  52.0482483  80.3563385  71.1945419  51.7893600
  79.7589264  69.9131393  51.2489014  60.1291580  28.4918289  30.9726391
  59.3186302  28.8010235  31.3772087  60.3796997  27.7277241  31.4918728
  11.8707476  66.3839951  32.4035034  12.0819693  66.7636719  31.5505867
  12.6888199  66.4354782  32.8978081  47.0973587  64.2746811  22.1709633
  47.8161659  64.7785721  21.7893353  46.9075966  64.7170181  22.9983425
   5.3284311  50.8636894  68.2340851   4.6259961  50.4191704  68.7086563
   6.1273484  50.6109619  68.6967850  35.6866913  17.6349773  21.8685455
  35.8793144  16.9784184  22.5379181  36.2958641  17.4375477  21.1570950
  56.3476830   2.3692145  23.9414501  56.2842979   3.1731977  24.4570312
  56.7393112   1.7319220  24.5387077  53.4692841   3.3614616  14.5238695
  53.6380157   3.5412519  13.5989714  54.1559410   3.8386118  14.9897680
  64.7192841  21.3998585   3.8538988  65.1585236  21.1299076   3.0474102
  64.4547195  20.5788689   4.2688837  64.4955750  17.9655972  35.4888382
  65.0414276  18.2406712  36.2254601  64.8553162  17.1179142  35.2275810
   3.7160647  13.9905443  37.9803772   3.6680532  14.8682346  37.6014481
   4.6507659  13.7844362  37.9895706  29.9213791   7.3277707  26.5968628
  30.6170406   6.6836195  26.4651184  30.1233139   8.0285616  25.9769058
  60.2608681  29.4083252  18.0163174  60.1477547  28.4602718  17.9482479
  59.4251976  29.7709560  17.7223988  42.2075653  25.7903366  16.3251591
  42.4763069  24.8766384  16.4208889  41.9582214  26.0605087  17.2089386
  80.2555771  13.7280312  16.9774094  81.0544434  13.2051210  17.0453415
  79.5612793  13.1458673  17.2860661  24.2732677  31.4689789  81.4131699
  23.8308086  32.2449265  81.7572174  24.3915691  31.6540642  80.4815140
  84.2558517  22.9047546  48.8608818  84.5301208  23.8181038  48.9433632
  83.8584824  22.6967068  49.7064819  50.1602554  40.8922348  56.1334877
  49.4426994  40.2866096  56.3193932  50.8522911  40.6382790  56.7440796
  38.8797607  11.2241611   9.5239639  39.2068863  11.4675741  10.3899727
  38.3297653  10.4569826   9.6826220  53.5745544  43.6786575  85.4713516
  53.8101425  43.9726601  86.3512878  53.8175621  42.7529602  85.4550400
  30.2580814   3.4434066  29.4716797  31.1365604   3.7889957  29.3133316
  29.9320374   3.2105010  28.6023808  10.1067533  63.2677917   7.3794656
   9.9922266  63.7449722   6.5576296  10.5680790  62.4672623   7.1293316
  30.3442116   3.2724380  74.9127426  30.7396641   3.1530261  75.7762222
  29.6523476   3.9187760  75.0534744   5.5337586  12.1009855  17.9383316
   5.1832871  11.3609829  17.4425507   6.2414474  12.4420338  17.3914375
  58.8919792  59.7084618  75.2504272  58.8653831  59.0355530  75.9306641
  59.4469681  59.3350830  74.5657349  37.0994949  44.2480659  72.3818817
  37.5054893  44.2651253  73.2485504  36.4215317  44.9226112  72.4216690
  23.2702122  71.7068481  73.8868179  24.1062546  71.7429810  74.3515320
  22.9057217  70.8518677  74.1156998  32.1303940  22.3522568  77.7403412
  32.0399628  21.4000740  77.7777786  31.2355289  22.6736889  77.6302185
  77.4995346  57.8168449  88.9633865  77.8500366  56.9386559  88.8145370
  76.8266602  57.6957932  89.6333313   9.2788467  69.8735504   6.0055203
   9.1799927  70.2250290   5.1206908   9.8607264  69.1207962   5.9005985
  51.8900604  47.6726189  15.0124006  51.4539871  48.1239052  15.7351837
  52.5215988  48.3097000  14.6784563   3.0433345  56.1144295  77.3507156
   3.2864196  56.2102242  78.2715683   2.0964031  55.9754562  77.3661804
  38.7638550  52.1553993  55.2779579  39.6702995  51.9142914  55.0870209
  38.6192932  51.8528061  56.1744919  59.1586037  41.3510284  62.4119797
  58.4481010  40.7145805  62.4916878  59.7229919  41.1754799  63.1648941
  14.3056335  47.9872017  58.5605316  14.5433645  47.3626022  57.8752670
  14.8070583  48.7751389  58.3508606  11.0178576  50.0033112  60.7022324
  11.5386152  50.3466797  61.4282799  10.1170988  50.0176773  61.0257454
  36.8366165  25.5380688  77.9206390  35.9831123  25.4149666  78.3361053
  36.6393623  25.9789772  77.0942459   5.2503309  18.6906624  65.3917923
   5.9513373  18.2599812  64.9025726   4.4859982  18.1300106  65.2587662
  10.9893885  68.6918793  28.4721527  11.4541969  69.5065536  28.2811508
  11.1329842  68.1471100  27.6983051  56.6027756  62.7735519  89.5081940
  56.2819595  63.5539703  89.0562515  57.0508385  62.2702751  88.8283539
  37.0281410  64.0862808  69.1989212  36.5871964  64.9223328  69.3499680
  37.9388275  64.2478256  69.4454651  37.8551712   5.3364859  21.5911713
  37.5738716   5.4771953  20.6871223  37.9761200   4.3894362  21.6597290
   1.1814116  54.6095314  19.3318939   1.7160616  53.8977089  18.9801979
   1.6360831  54.8787727  20.1300259  72.0436249  11.3348055   6.9925957
  72.6731110  10.7027264   7.3396673  71.6125870  11.6940556   7.7680783
  22.6275005  58.9336815  54.4594955  22.0789833  59.3432693  55.1285248
  23.4462433  58.7311058  54.9120979  53.2434578  25.5697136  49.0829391
  53.9650002  24.9410305  49.1022110  52.5045662  25.0981426  49.4675064
  54.0511436  58.0430145   1.7211391  54.8075867  57.6040802   1.3320806
  54.1951447  57.9767647   2.6651239   1.0392203   5.5956655  11.0367241
   1.3121723   6.0225773  10.2246428   1.8122653   5.1092668  11.3231678
   7.3861017  46.3356476  34.9883080   7.6414976  45.4920082  34.6151085
   7.3133168  46.9193954  34.2332115  30.8235607  30.5550747  15.9393053
  31.2176476  29.7042007  15.7471066  31.2876148  30.8636513  16.7175522
  51.7984886  42.5212021  81.3411789  51.3707962  43.1502991  81.9221649
  52.0775375  43.0419846  80.5880890  76.2987823  65.7153397  37.4749527
  76.4799957  66.2150497  36.6789093  75.5507889  66.1610947  37.8724976
  46.7417755  13.3340034  80.2383194  46.0023689  12.7382345  80.1176071
  47.5150375  12.7760286  80.1548920  72.9071045  56.0594749  20.5598068
  73.7466354  56.4687271  20.7694187  72.4074020  56.7485886  20.1220303
  35.5500717   0.4840100   3.6374857  36.3826485   0.7240997   4.0441852
  34.9267006   1.1307979   3.9680948  68.8578339  39.0894470  67.8918533
  69.1754684  38.6818390  68.6975784  68.3126373  39.8173370  68.1904755
  76.4968948   3.0642912  86.1856689  77.3764343   3.0406392  86.5626068
  75.9129868   2.9246917  86.9311829  28.0019646  49.9966660  77.6660995
  27.7470284  49.3563004  77.0018921  28.7788486  50.4219666  77.3030472
  79.3671799   3.3438249  19.6437435  78.9028168   4.0813484  20.0395451
  80.0661621   3.1396594  20.2650089  28.1261978   3.2036843  24.3741970
  28.2012272   2.4478457  23.7916927  27.2587910   3.1163085  24.7694244
  75.2229843  44.0672684   7.8049369  75.8145447  43.3181534   7.8764801
  74.3951645  43.7544403   8.1697435  54.5278091  58.6191750  74.3617554
  53.6380959  58.9533463  74.4756393  55.0710449  59.1966972  74.8980331
   2.4625483  27.9702263  61.1513901   2.5476236  28.3572311  60.2800560
   2.4832158  28.7179604  61.7486305  51.7821388  67.1858368  24.0446243
  50.9546547  67.1525421  23.5646324  52.3106308  67.8250809  23.5668278
  86.2535553  59.3848457  58.5272560  85.8153992  60.2199478  58.3633804
  86.2504959  58.9421692  57.6785736  20.7440033  62.8206520  57.9886169
  19.7931881  62.8907394  57.9033546  20.9784470  63.4996681  58.6212387
   0.4316690  21.7861843  20.3872643   0.1983200  22.6909046  20.1792679
   0.1548735  21.6703568  21.2962189   9.2917337   2.4257002  58.9070778
   9.5485725   1.8054943  58.2247238   8.4805651   2.8166337  58.5824127
  76.4970551  12.3349886  76.5722046  76.9816818  12.8237343  77.2374115
  77.0639801  12.3531818  75.8011627  19.1611462  47.4552460  71.9694824
  18.8843040  48.1111984  72.6092606  19.0789013  46.6207657  72.4311218
  22.6736259  28.2582054  78.5961761  22.2588081  27.4925995  78.1986771
  22.0785198  28.9818535  78.4001846  78.1052475  31.0514755  23.1357021
  77.8069992  30.2788830  23.6156826  78.9883804  31.2134285  23.4674969
  63.7833023   0.6153289  13.1223660  62.8387680   0.7596511  13.1794252
  63.9266014  -0.2149630  13.5765829  14.9057140  56.6276588  65.6608124
  15.6718655  56.5349770  66.2270737  15.2389784  57.0632896  64.8763428
  71.9585114  13.7965899  31.4674911  72.0169678  13.4284897  32.3491478
  71.8352280  13.0368500  30.8984318  82.5699463  62.7711716  24.2232876
  82.4109650  63.6889915  24.4436436  82.6335602  62.7616920  23.2682514
  29.7346096   6.3284397  72.5670166  30.5151024   6.8601294  72.7231140
  29.9163895   5.5000877  73.0108795   5.5725389  23.6112556  79.6072311
   4.8820796  23.8943443  80.2067032   6.3434577  24.1103840  79.8770218
  16.9223557   1.7276675  42.5791473  17.3292961   2.5918822  42.5177994
  17.2924404   1.2360729  41.8459320  12.0020084  68.7507553   1.7972045
  11.2268429  68.5784302   1.2627376  12.4037075  69.5209961   1.3952099
  45.7754822  45.5251045  68.3352890  46.0760269  44.6366653  68.5265579
  46.5800972  46.0343056  68.2375870  43.6233292  62.0207138  47.0135498
  44.3083649  62.5997124  46.6793060  43.9327774  61.7592850  47.8808022
  11.0957918  41.9964027  28.0813904  11.8254166  42.6159210  28.0726852
  10.5552998  42.2732849  28.8212776  57.6143227   4.3317361  60.9423103
  57.3166695   4.9645276  60.2887001  56.8082809   3.9898510  61.3291473
  28.5175533  61.6758232   5.6221309  29.0524979  61.7634773   6.4110427
  28.2539692  62.5714073   5.4107499   0.9081286  70.2726212  23.2729759
   0.9320560  69.3890991  23.6404629  -0.0075083  70.4052048  23.0274906
  67.1655884  37.2429352  32.0133057  66.3467026  37.5593567  31.6318130
  67.3550491  37.8604240  32.7197342  41.7695427  50.8049927  29.9416981
  42.6438713  51.1914101  29.8920670  41.4193840  50.8900871  29.0549183
  77.1642227  56.4132423  26.2085342  77.8973618  56.9012337  26.5835114
  77.5576630  55.8875122  25.5120811  74.9382477   5.5601549  24.5352917
  74.1358871   5.3705688  24.0489712  74.6560211   5.6232343  25.4477596
  10.6250887  39.1410789  38.2743568  10.0272942  38.4074211  38.4179611
  10.1203308  39.9142456  38.5266762  68.1997223  48.5013962  61.9284058
  67.2548981  48.5705833  61.7914352  68.5355225  48.1451149  61.1058922
  17.7479916  55.7664375   8.1096478  18.3251858  56.5153465   8.2586956
  18.2629700  55.1719933   7.5640631  59.0532455  50.9740715  18.3199291
  59.0907707  50.1854515  18.8611279  59.9140472  51.0201988  17.9038429
  69.2928772  56.9030075   4.4349394  69.2830734  56.2841110   3.7047994
  69.2182083  56.3538780   5.2153988  57.1495743  13.4336777  43.5006523
  57.5753784  13.7906227  42.7212219  56.2355766  13.7064419  43.4203911
  18.4428883  63.4324455  76.9679565  18.0567417  64.0056458  76.3057175
  18.3435516  62.5507240  76.6088867  79.7435455  58.5062904  78.9813461
  79.2273865  57.7034492  79.0538559  80.1751633  58.5911369  79.8314896
  81.5833282  39.3998528  68.7461014  81.2588425  40.2801285  68.9359818
  81.0450974  38.8238869  69.2890625  82.3646317   0.9382491  44.6289711
  82.9586716   1.1621226  45.3453751  82.5489655   0.0173846  44.4438744
   6.0356121  55.9175034  22.7214241   5.3608589  55.4532280  22.2260571
   6.6701803  55.2399673  22.9548779  57.5716667  58.9045258  46.7654991
  58.4781151  58.9350052  47.0715332  57.0471687  58.9630051  47.5640678
  65.6616898  32.6986427  76.8973694  66.3666153  32.9800415  77.4805756
  64.8619766  33.0126266  77.3193970  42.0876083  71.1692734  34.6976357
  41.8195724  72.0881577  34.6919174  42.7794876  71.1174927  34.0382004
  31.4894848   7.5999832  76.9507980  32.1524010   6.9235783  77.0895462
  31.9802074   8.3517427  76.6187134  33.5544624  49.4543457   2.5080900
  33.7170334  49.9153328   3.3310685  32.6252785  49.2267494   2.5405509
  75.1257172  55.7809639  37.4889259  75.0927963  55.3098335  38.3215027
  74.3885574  55.4327431  36.9873657  84.0937424  32.2092361  20.5731449
  83.9222488  33.1437950  20.4572868  84.1330566  32.0887566  21.5219193
  76.2626495   6.9613571  33.8787270  75.3123627   6.9956784  33.9883308
  76.5948029   6.7184062  34.7429504  76.5345459  30.7339096  30.8052845
  77.1257935  31.3557243  30.3810139  75.7337112  30.7697792  30.2822056
  29.5209103  46.8112984  44.5577965  28.9706345  47.5712166  44.7474136
  29.3690128  46.2163811  45.2921219  85.2112122   3.1474965  55.1706009
  84.5618286   2.4550381  55.0479774  84.7216873   3.8670769  55.5691071
  36.5217438  42.8354645  12.8253107  36.4963799  43.7103157  13.2128954
  36.8326645  42.9784584  11.9313793  16.0041847   4.8673306  76.5501022
  16.2350941   4.7016463  75.6360703  16.3832626   4.1310654  77.0301514
  20.9159374  27.2198601  59.1587486  20.2160454  27.8710556  59.1105156
  21.1005745  27.1355286  60.0941772   6.9319019  26.4398327   4.6169682
   6.6008005  27.2678223   4.9648724   7.3996601  26.0415649   5.3510094
  59.5794907  31.2681141  73.2565460  59.0214386  31.4865608  72.5101624
  60.2817726  30.7357864  72.8828354  78.8591232  22.5645237  38.2060509
  78.5112839  22.5062542  37.3161964  79.7030563  22.1148834  38.1632423
   5.0533338  13.5632505  28.8945904   4.1375070  13.4869413  28.6268768
   5.1737051  12.8650274  29.5381947  30.7335415   0.9355938   9.5054150
  31.4777927   0.5755016   9.0230722  31.1254654   1.3598950  10.2686949
  20.4960785  39.2885056   4.4035149  19.9206142  39.2954979   5.1683836
  20.2315025  40.0568657   3.8976951  55.6936150  22.2770443  67.2944336
  56.4988327  22.4776096  67.7715378  55.0713501  22.9444466  67.5835571
  47.4981575  18.5259647  84.0763931  48.2445412  19.0113926  83.7249603
  47.8194618  17.6294785  84.1728516  65.2319107  62.1944122   9.6171293
  64.4505310  62.4059372  10.1279516  65.9014130  61.9998627  10.2729864
  15.0539989  41.4220085  22.7354794  15.8352947  41.0746422  23.1657639
  14.3402014  41.2297745  23.3435669  11.6239977  60.2222176  54.0080643
  12.3720379  60.7222633  53.6815338  11.9150639  59.3107414  53.9811401
  38.9480362   4.9326258  73.7063141  39.6212540   5.0146670  73.0308304
  38.6547127   4.0236802  73.6429749  67.2644653  68.8421326  11.2715778
  66.5357208  69.4472809  11.1338634  67.4143600  68.4482193  10.4121618
  38.7195816  32.6114540  70.7410583  37.7738457  32.5781059  70.5971909
  39.0126038  31.7085991  70.6176834  77.7215958  22.4737988  57.5335274
  78.1407852  21.6170616  57.4528351  78.4016418  23.0979900  57.2802277
  25.0149231  63.7671471  81.7381058  25.2882195  63.5038795  82.6168671
  24.1899452  63.3033409  81.5948334  34.9168663  55.5066605  44.2814674
  35.7797394  55.9055824  44.1694641  34.6195793  55.8153152  45.1373787
  82.9470062  31.5826969  16.1760139  83.2501144  32.3182678  15.6437616
  82.8471298  30.8620663  15.5539627  81.1727219  29.6170177  19.7205849
  81.0008087  30.2456646  19.0195274  81.0777588  28.7608738  19.3031769
  64.6299362  67.2782593  68.7840500  63.6826210  67.3287735  68.6564484
  64.7558060  67.4551392  69.7163086   7.5812473  35.6142960  74.7612915
   8.2519655  35.0068436  74.4492493   8.0708942  36.3854904  75.0471954
  81.7096710  60.2920952  58.8329964  81.0539551  59.7502937  58.3939972
  81.6810074  60.0093269  59.7470284  25.3431339  71.4172745  86.5854034
  25.9925556  72.0390320  86.2569275  25.7504578  70.5594711  86.4649658
  52.7660065  14.0811024  20.8570786  52.8802910  14.9409142  20.4522400
  53.1454697  14.1754007  21.7307758  67.6686325  33.7006607  44.3336716
  67.8371811  33.4718513  45.2477112  68.5387192  33.7966919  43.9464378
  79.3140182  67.3227615  60.2056351  78.5277176  67.6911545  59.8028336
  79.9790802  68.0027847  60.0984802  61.9880905  30.0791473  32.7108078
  61.4428368  29.6890545  32.0276108  61.4943314  30.8453579  33.0029564
  21.7975273  59.5662651  16.5185051  22.1468353  58.7735329  16.1113319
  22.0959759  60.2778778  15.9521418  85.4006271  53.3047905  47.9680748
  85.5179062  53.3853302  48.9146423  85.9851761  52.5905838  47.7142181
  15.1804247  68.8090515  79.9994125  14.5459480  69.0756912  79.3341446
  15.6067247  68.0367279  79.6279068  33.0742226  71.5014114  34.9598732
  33.3310318  71.2010956  35.8317070  32.4089737  72.1699982  35.1231728
   3.1741824  41.2268753  56.2050667   3.5569394  40.7252960  55.4852409
   3.2275603  40.6410294  56.9601631   5.6983471  42.6865463  31.0055618
   6.2499957  41.9045906  30.9840183   6.3165030  43.4166985  30.9740486
  85.0665054  27.8434849  78.0044861  84.2925873  27.6309986  77.4828186
  85.5038147  27.0025101  78.1377411  62.7660370  28.9076653  80.1489563
  62.0301971  28.7913189  80.7499847  62.5951347  28.2892914  79.4385757
  15.0657969  62.8728447  86.7871246  14.6513977  62.1632462  86.2962341
  15.9691439  62.5819855  86.9120178  50.3906593  49.9054718  20.2148552
  49.9548302  50.2207565  19.4230976  49.6756325  49.7137184  20.8216496
  70.1942902  66.4346390  70.6043854  70.7473755  66.1769257  71.3418884
  70.7633286  66.9739609  70.0552444  38.0841980  55.2653694  70.8972244
  38.9127922  54.8170853  71.0666428  38.2415810  55.7648926  70.0960083
  12.0011969  66.2880936  84.0884094  12.5911818  66.3992691  83.3428955
  11.3805590  67.0128860  84.0128555  10.1589880  47.3983040  58.5656509
  10.5914240  47.8608398  57.8478127  10.8764467  47.0966721  59.1228790
  80.8098221  33.7929344  75.1853256  81.3051605  33.6180496  74.3851471
  81.4758606  33.8596611  75.8695526  69.2048264  37.3589020  84.8218384
  68.3817749  37.3688393  84.3332520  69.5867767  38.2225075  84.6652145
  78.9032211  61.3996468  80.0022888  78.1470032  61.3410034  80.5861740
  78.9362411  60.5478630  79.5668564  58.3595848  57.5699310  24.3840351
  57.6218796  58.1558113  24.2144299  58.2747231  56.8809776  23.7249660
  26.6829567  50.7714462  56.8969650  25.8039589  50.4059601  56.9970322
  27.1019650  50.6231079  57.7447014  81.8790436  32.5647697  10.3148861
  81.5466766  32.0607071  11.0576391  81.5534058  33.4525986  10.4630194
  54.1906357  37.7911644  34.0644226  54.4415970  38.7148590  34.0582886
  54.8106308  37.3705559  33.4686661  25.1373329  54.8509254  65.1902618
  24.4531746  54.7087479  64.5360870  25.1823940  54.0255852  65.6729736
  12.5471926  70.7422943  33.8495865  13.4953327  70.6926880  33.7279243
  12.3418159  70.0107346  34.4317169  85.3992691  69.9759216  67.4812088
  86.0996475  70.4781570  67.8976898  85.6751633  69.0633850  67.5672226
  15.1027565  58.3634224  85.4661407  14.7480621  58.3275719  86.3544769
  15.1276417  57.4499741  85.1811371  27.4432545   3.7773094  34.8574905
  27.0511551   4.4055195  35.4639893  27.8812866   3.1405604  35.4222107
  70.2214966  66.2117386  48.2610168  70.5731735  65.3214798  48.2612724
  70.8472519  66.7165985  48.7804222  84.9466553  12.9901342  78.5642700
  84.4218369  12.4940147  79.1924896  84.3977203  13.0421820  77.7818451
  72.9082184  25.2219677  13.4388981  72.7574387  24.7695103  14.2688265
  72.7119675  24.5664005  12.7696056  53.5596504  28.2338047   1.1927729
  53.5287743  28.5360126   0.2850565  54.0815201  28.8948307   1.6476666
  53.2365570  60.6448097   1.1017661  53.4106331  59.7196846   1.2751976
  53.7454071  60.8408966   0.3150970   5.1643891  46.3477516  52.6134987
   5.5795617  46.7827797  51.8687782   5.7203259  45.5882416  52.7876091
   6.9067674  43.4168701  83.8202515   6.8911233  43.5322914  82.8701630
   6.8912740  44.3077354  84.1700363  30.8805351  65.9019547  18.6130810
  31.5826931  66.5391083  18.4817848  31.2350731  65.0810471  18.2715492
  85.4151688  17.4200153  53.0121765  86.0326538  17.0626698  53.6503334
  84.8944321  18.0504436  53.5098038  68.6437531  55.6886597  23.4093571
  69.4113235  55.9738617  23.9050732  68.6580658  56.2245865  22.6163826
  67.3527603   9.9964190  84.4990082  67.2438431  10.9358292  84.3510971
  67.8222275   9.9378166  85.3311081  21.1544113  28.6149216  19.1496754
  21.6610546  27.8215523  18.9761600  20.9034214  28.5422173  20.0705185
  42.0518684  31.9099560  15.9521074  42.2108231  31.1115341  15.4486322
  42.8778877  32.3913040  15.9049225  49.3802490  18.3328781  30.4091530
  50.2011642  17.8837471  30.2076244  48.7697906  17.6290455  30.6286793
  69.6820984  58.1039352  31.9776649  69.7796555  58.7755127  31.3026123
  68.8376083  58.2953110  32.3856354  58.1361961  39.3589134  38.0805054
  57.8121681  39.9451218  38.7643166  57.3680801  38.8534126  37.8146095
  75.2784805  25.0676746  37.4609680  75.6716919  24.3623848  37.9749565
  75.4870300  24.8473911  36.5531082  79.0611038  40.0828323  38.7480621
  79.9929352  40.2116699  38.5710678  79.0392303  39.5807228  39.5627022
   6.3303399  32.9498940  16.1526089   6.7511859  33.5922661  15.5812244
   5.4227476  32.9185028  15.8500814  66.4116745  58.5854797  52.9143639
  66.6840057  59.4197464  52.5321732  66.9227448  58.5131340  53.7204666
  64.9281387  28.4010906  76.6943817  65.4825745  29.1468086  76.4647293
  65.1308594  27.7393131  76.0331802  64.0647736  36.0609627   2.1947834
  63.7105560  35.2321510   2.5170205  64.6985016  36.3259201   2.8614249
  78.1525116  13.5229874  38.6900673  78.2361450  14.4741802  38.6232147
  77.5167542  13.3872404  39.3926468  40.6995811  14.0553303  69.9624557
  40.5741577  14.6489086  70.7028351  39.8167648  13.7592573  69.7406235
  28.4268055  32.0850906  10.0910683  28.8464394  32.7417488   9.5352430
  27.5040684  32.3391304  10.1070166  72.1364059  32.5261230  41.8908310
  71.7051773  33.0679092  41.2299690  71.4438248  32.3157043  42.5171623
  40.5455742  58.7682800  16.2182617  40.3569908  59.6386566  15.8673935
  40.2572937  58.1659508  15.5324583  63.0860405  63.2986641  22.4741669
  63.1736870  63.6208344  23.3712482  63.4883270  62.4302711  22.4911690
   5.4698787  26.0469856  32.7635536   5.3426437  25.4012566  33.4585915
   6.4083934  26.2344990  32.7797165  53.8862114  35.8608627  83.7568283
  53.9775467  35.8711548  82.8040466  53.4712219  35.0198860  83.9485855
  38.6851654  66.5189438  86.7899475  38.1270561  66.9256744  87.4527588
  39.0416908  65.7421722  87.2209320  60.4601364  38.6858635  64.9844055
  61.0422745  37.9291229  65.0528946  59.5912361  38.3080826  64.8483047
   4.2967596  35.8283463   6.7024779   3.6146152  35.8470535   7.3737164
   4.8147745  35.0503845   6.9090414  21.3628845  34.9093552  17.2707291
  21.1800900  35.1254539  16.3563328  21.8922577  34.1130409  17.2274342
  84.3052139  60.8269081  80.7915421  84.2291412  61.1165619  79.8823929
  83.5948944  61.2787285  81.2471008  19.8389034   7.0506501  85.0278091
  19.9596729   6.7427359  85.9260483  19.0201702   7.5459299  85.0524368
  52.1729698  51.2098885  39.3745003  53.0282669  50.7843475  39.4345894
  52.3021240  51.9193497  38.7450447  37.8120766  54.5615692  55.8171463
  38.3832245  53.8721199  55.4785080  37.4420204  54.9715385  55.0353432
  59.8068581   2.2716429   0.1310325  60.2114944   2.7023604   0.8840157
  60.5212212   1.7830001  -0.2778076  42.7694550  55.8521347  29.5601826
  42.5631485  55.6725540  30.4774723  43.3520966  56.6110039  29.5898552
   1.8996662  53.0279808  85.0220032   1.6783010  52.4787712  84.2699356
   1.1798646  52.8918724  85.6381073  65.1373596  53.5808258  22.0704117
  64.4860535  52.9751511  22.4242229  65.6379776  53.8672638  22.8343315
  56.4581451  23.3253613  55.0769157  56.5779839  23.4305420  56.0207443
  55.8401680  22.5991650  54.9934044  17.6731319  14.4048719  13.1498642
  16.8236485  14.1659737  13.5207224  18.3109531  13.9487610  13.6988449
  50.0699844  51.7609406  63.6782341  49.7359505  52.5670433  64.0717468
  50.2419052  51.9932404  62.7657051  77.3581543  51.5699844  55.0762100
  77.3811646  52.3960686  54.5932121  77.6375656  50.9123039  54.4393311
  25.1443748  36.8028107  79.1762848  25.3806553  36.9524307  78.2608490
  24.4502850  36.1446648  79.1400070   7.5614223  53.1130104   6.0254407
   8.3023586  53.7165031   6.0805788   7.9419565  52.2951889   5.7051415
  59.7994270  12.1798563  58.2450752  59.1325874  11.8525982  57.6413689
  60.3981743  11.4424429  58.3632050  43.7053795  64.0522919  62.1996384
  43.3347244  64.0211868  63.0816154  44.1384277  63.2054901  62.0918236
  64.8610840  44.6806793  44.6082878  64.0756607  44.1461525  44.7249985
  64.9953918  44.7053719  43.6608772  37.3693619  33.9004707  46.3223534
  37.3606110  33.3321037  47.0924950  36.7581825  33.4870567  45.7126198
  71.9841385  22.0765877  82.5578461  71.2623367  21.5893669  82.9551544
  71.9552612  22.9347973  82.9807892  20.0052242  50.5346375  82.2024536
  19.9180527  50.4321976  81.2547531  20.1442337  49.6451950  82.5277252
  41.8956604  35.4634018   3.2319582  41.0440674  35.2810440   3.6291490
  42.4804153  34.8042412   3.6058578   4.7553267  17.3690224  25.6904182
   5.2802544  17.5768547  24.9174442   3.8552959  17.3341961  25.3664379
   6.3580709  64.8448563  21.2809277   5.5693231  65.3839188  21.3403091
   6.9280877  65.3201904  20.6764679  45.8706360   4.0105534  49.1772232
  46.2385216   3.2417293  48.7415619  45.8413086   3.7699833  50.1032372
   3.1372259  39.2538986  37.1975288   2.5457571  38.5021172  37.1626129
   3.6755750  39.1718674  36.4103279  20.2995911   3.7957649  56.1587830
  20.3276196   4.6749554  55.7813301  21.2052231   3.6138661  56.4097290
  54.3308678  42.4158592  59.8647079  53.8759499  43.1635284  59.4770546
  54.6077957  41.8890343  59.1150475  40.3800812  62.5733871  59.6568451
  40.7932281  63.4303131  59.7627678  39.8795891  62.6475868  58.8442955
  20.4216881  15.2273455  80.0710449  21.3282452  15.5228615  80.1550446
  20.0290661  15.8343315  79.4436340  54.6454887   7.5088773  18.3187962
  54.6988106   6.9549270  19.0975933  54.7672501   8.3989601  18.6491871
   5.1297078  59.0188599  79.3517532   4.7283125  59.5663223  80.0265884
   5.2398596  59.6043549  78.6025543   3.2882442  35.6151314  77.6708984
   2.9011817  35.0850830  78.3676529   3.8211315  36.2635345  78.1311493
  53.6844368   6.6084967  84.1905746  53.3427124   5.9648371  83.5699692
  53.3210526   7.4430766  83.8945007  51.2624779   1.5619221   7.7409644
  51.7299728   1.0389051   8.3922224  51.1062813   2.4007771   8.1747341
   4.1520805  21.3454094  19.5596199   3.6691566  20.6964111  20.0712986
   4.9493489  20.8909073  19.2875500  74.6742935  69.9455185   7.8879490
  74.8090591  70.8658752   7.6620889  73.7271423  69.8622131   7.9983773
  32.8223763  18.5470486  18.2056103  32.8784103  18.1317692  17.3450089
  32.8199501  17.8166637  18.8242893  42.7937660  44.3555527  15.5996532
  43.3628044  43.7520218  16.0773315  43.3745728  44.7870369  14.9729824
  37.8796120   1.0707539  59.0641785  36.9659538   0.8305055  59.2182541
  38.1801414   1.4201511  59.9031258  26.8604851  56.2729034  82.4758453
  27.7742290  56.5023308  82.3065262  26.9066582  55.5594749  83.1123352
   9.5148621  61.0940590  14.3004446   9.2021456  60.9910927  15.1992426
   9.4493284  62.0337181  14.1302137  15.5717154  35.9958267  87.2886353
  15.3538218  36.4854546  86.4955292  16.5244923  35.9079590  87.2616959
  63.5404892   5.5431933  33.9795303  62.7769127   5.6376081  34.5489769
  64.0962753   4.9057646  34.4278793   5.1548843  69.0971832  37.1207962
   4.9090352  70.0050964  37.2982292   6.0584664  69.1501923  36.8094139
  11.8481340  56.9706879  79.9354172  12.5969124  57.2731590  80.4492950
  12.1263075  57.0708160  79.0250168  61.1952438   5.0828500  75.1812592
  60.7088966   5.2031384  74.3656387  62.1151466   5.1189590  74.9191360
  57.2839127   2.6444461  77.2505646  57.3644142   3.5979426  77.2749786
  56.3799133   2.4735606  77.5147858  78.9981232  33.9852219  55.1949234
  79.3394775  33.3842697  54.5326843  79.3958664  33.6900330  56.0140038
  69.9473419  50.7853317  61.9930992  70.8139496  50.7996712  62.3993187
  69.4983444  50.0513535  62.4125099  10.8353672  60.2985916  41.5644112
  10.2509689  59.7006721  41.0983620  11.4146261  60.6449356  40.8856354
  84.8949203  24.4612236  45.3945503  84.0829544  24.9558239  45.2835999
  85.4254608  25.0002689  45.9812279  32.7501335  21.9956837  21.7734909
  31.9550686  21.6247940  21.3906803  33.1227303  22.5350266  21.0759850
  16.4578571   6.1859355  10.8714733  16.3458347   7.1349316  10.9270506
  17.2731628   6.0691566  10.3837547  85.4146118  61.4626465  22.1595345
  85.0474930  60.9888496  22.9058418  84.6592941  61.8810539  21.7464218
  21.2087765  39.8851166  72.0649261  21.8884335  39.2182045  72.1625290
  21.3560390  40.4858627  72.7954407  63.1746140   8.0183468  23.2033119
  63.3058929   7.2821250  22.6058369  62.9802208   7.6103239  24.0470886
  42.9928322  41.9597816  19.2372284  43.2836342  42.2249794  18.3646832
  42.0481796  41.8343697  19.1470299  40.5093422  44.6638527  46.5550613
  41.0371094  45.4621162  46.5766640  39.9525070  44.7237930  47.3313179
  69.0461349  52.3255081  38.6678123  68.6055679  51.7099648  39.2536850
  68.8753357  51.9845619  37.7898521  65.9050903   3.4901841  46.1967735
  65.9699402   3.0710866  45.3386459  65.9409332   4.4280248  46.0086174
  55.0690269  43.8746605  19.0023327  55.7299309  43.9073563  18.3106899
  54.8093376  44.7872391  19.1287956  22.1064167  32.8441353  27.1984653
  22.1486225  31.8891392  27.1491184  21.8815098  33.0271225  28.1106949
  56.7094002  34.5352211  26.3802910  56.5324783  34.7004433  25.4542065
  57.6631470  34.5727310  26.4523335   2.3751769  65.0204773  77.9275589
   3.1944873  64.6422043  78.2467270   2.1591573  65.6986771  78.5675735
  73.6606369  43.5496330  51.7506599  72.7729797  43.7633705  51.4632492
  74.0062027  44.3736649  52.0938721   1.4361048   8.7619343  31.1412411
   2.3216040   8.9210453  31.4680538   0.8824046   9.3518095  31.6528034
  27.5588589  58.7410393  44.4651527  27.0054150  58.3347359  45.1321220
  27.0174408  58.7470360  43.6758080   0.5586643  59.7922363  19.2309475
   0.6807967  60.0807304  20.1354275   0.5617602  58.8363991  19.2819328
  46.4569969  70.1385269  85.1018829  46.9587860  70.7292557  84.5402145
  45.5434074  70.3770218  84.9447174   7.5356493  49.5019569  20.9735489
   8.3108387  49.0243454  21.2688484   6.8055887  49.0730515  21.4199619
  41.0863266  38.5791130  58.2243385  40.1847572  38.7453461  57.9490776
  41.5818291  39.3241081  57.8842049   1.2896112  58.1019669  24.0002213
   2.1023252  58.3462067  24.4430256   0.5970035  58.3895302  24.5950603
  85.7103119  59.5719261  70.5137939  85.6069870  59.6523209  71.4619980
  84.8157120  59.5031090  70.1803513   1.6651647  17.1345520  25.2643871
   1.1698680  17.9491940  25.3496609   1.2582121  16.5397606  25.8943443
  25.8775482   0.1786992  74.6110001  26.0108185   1.1247681  74.5524826
  26.6723480  -0.1495879  75.0314178  32.6961365  50.3341904  45.3887558
  32.7536278  49.6998329  44.6742516  33.3724670  50.0595016  46.0079193
  27.1940136  18.0642853  72.8634567  26.9056416  17.5172138  72.1328506
  27.1419621  18.9591618  72.5277252  10.2359123  60.4841156   1.5681159
   9.8915873  59.6682129   1.9313973   9.6537628  60.6844406   0.8351746
  44.3161087  13.3869104  22.5907536  44.7994232  13.7714005  21.8594494
  44.8700180  12.6665545  22.8915920  66.9894638  37.4865341  83.4094849
  66.4987488  37.2681236  82.6171951  66.3467789  37.9065742  83.9811096
  51.0425301  66.3150864  52.3433228  51.4221725  67.1011810  51.9506989
  51.7835045  65.8720932  52.7567711  13.7194214  68.2156372   3.8132489
  13.1725674  68.5278168   3.0923307  13.1023722  68.0419006   4.5240932
  64.1068420   3.8412592  29.0077343  63.8820267   4.6692781  28.5833836
  63.8065758   3.9455709  29.9106140  24.4177990  48.9501686  72.2587280
  23.6991844  48.7665558  71.6536560  24.2599602  49.8472824  72.5528488
  61.3719864  55.5103989  50.3515701  60.6382866  54.9230728  50.1700058
  62.1289291  54.9301338  50.4325294  26.1191425  40.4329720  25.1374474
  26.5402966  41.1897354  24.7298088  25.2988911  40.7770004  25.4910889
  28.8723717  32.1141205  21.4048195  28.3519077  31.8905563  22.1764221
  29.3271828  31.3026123  21.1793537  53.6651726  49.0020866  43.9093475
  53.1521072  48.8535805  43.1150284  53.8756981  48.1237297  44.2262077
  24.2969875  49.2315903  44.3539658  23.9163723  48.6600876  43.6870728
  23.8205032  49.0149193  45.1553688  65.4203339   1.9917736  19.5894680
  65.6206436   1.2146926  20.1112480  65.9820251   2.6760292  19.9535103
  56.6659088  57.2460175  73.0294800  57.1969147  57.4872475  73.7884750
  55.8028069  57.6167526  73.2134399  38.2328949  41.2517052  76.1784821
  38.8023109  41.2391968  76.9477921  37.9404144  40.3453827  76.0822220
  64.1678772  15.7794676   6.4375305  64.0264893  16.3609543   7.1846008
  64.2556152  14.9086380   6.8250723  18.4842453  40.1974068  17.2136841
  18.3400841  40.2195740  18.1597061  18.9435024  41.0151100  17.0221691
  14.3465109  62.5228081  26.2660885  14.7871094  62.4558945  25.4189587
  13.5501890  62.0016327  26.1637154  12.2523718   1.5275877   9.5005674
  12.2378340   2.4665527   9.3151894  11.7022142   1.1404678   8.8196144
  60.5508041   3.1824489  36.5497894  61.4706154   3.2323458  36.8099556
  60.5184517   3.6199787  35.6990509  46.9612312  23.0025730  89.3394012
  47.0687981  22.7732906  88.4163132  47.8503380  23.1772003  89.6479874
  13.4986401  44.8051300   1.5735378  14.0490999  45.5877686   1.5999907
  13.7406015  44.3696404   0.7562028  31.2524471   3.4404879  65.6214523
  31.4126453   4.1092257  66.2873077  31.9857807   3.5282567  65.0125580
  16.6590366  39.2239227  75.9702148  17.5717869  39.4985428  76.0579834
  16.7047539  38.3819160  75.5172577   5.3378773  67.0161514   9.0657806
   5.8476295  66.2112122   9.1577530   5.9556937  67.7162857   9.2763758
  11.9825478   1.2943066  61.9501495  11.0625038   1.2831279  61.6862793
  12.4610863   1.0396234  61.1612434  35.5673752  67.8008041  28.0832481
  36.0325279  68.5666809  28.4198418  36.2044334  67.3624802  27.5191021
  15.7302952  32.0716324   0.9960176  16.6081810  32.0159912   1.3734442
  15.2869387  32.7400780   1.5183638  25.3373909  37.1454124  76.5490646
  24.6421661  37.2904587  75.9073029  25.9345131  37.8833733  76.4262238
  46.1665802  39.7895966  63.5275764  46.3675003  39.2309532  62.7767220
  47.0171700  39.9649811  63.9300270  32.0522156  43.2782402  30.7595177
  32.3194695  43.9209328  31.4165955  32.5444031  42.4883003  30.9830666
  80.3914642  37.8257523  70.5155258  80.0222321  36.9462433  70.5952606
  80.4747620  38.1332855  71.4181442  40.0797920  43.2948952  40.7681160
  39.6769104  44.1139908  41.0562172  39.5653381  42.6110916  41.1970520
   3.6767130  36.6461067  72.0335617   4.3881359  36.8284531  72.6474457
   2.9672296  36.3110542  72.5818329  56.5857544  52.9327011  57.5995483
  56.1435318  52.1250763  57.8611031  56.6088181  53.4621010  58.3966904
  69.1490402  63.6050339  48.0106239  68.3190918  63.4833832  47.5495186
  69.0537643  63.0937424  48.8142014   1.1506058   1.0288332  62.9705048
   1.9257414   0.7218484  62.5002289   0.9620748   1.8857417  62.5878868
  24.9786205   5.1390185  79.8145294  25.4474449   5.9647412  79.9354401
  25.6113014   4.4655695  80.0643539  12.9267235  45.4448204  12.1458912
  13.7789545  45.0480194  12.3261261  12.2935610  44.8340645  12.5231409
  43.2520866  18.7807655  17.1980610  42.4753876  19.3398876  17.2167301
  43.9270744  19.2935352  17.6426849  32.1711349  59.1139984  12.9703579
  31.9925747  59.8695869  13.5302076  32.9313011  59.3753014  12.4506445
  56.5475845  55.9648132  84.3221588  56.2949867  56.4179382  85.1265869
  56.3804016  55.0403175  84.5054245  60.0445671  39.9343224  13.8694639
  60.5668411  40.6037331  14.3114443  60.4753036  39.1089478  14.0918550
  39.4474335  57.2122726  39.4250641  39.9749641  57.0545769  38.6420708
  39.9103088  57.9097862  39.8892365  10.9726372  34.4216270  68.3266907
  10.1559982  34.3137894  68.8142395  10.7168465  34.8887634  67.5313339
  49.8948784   9.2001438  57.2247772  49.7374840  10.1282749  57.3980713
  50.1628227   8.8406630  58.0704765  23.2053165  70.7759247  21.2350483
  24.0009289  71.2150574  21.5357094  22.7902889  70.4570618  22.0364914
  77.1225433  41.7283516  69.3727493  76.9426270  41.5161552  68.4568710
  77.2665787  40.8796921  69.7913971  11.4314566  39.4200592  35.5652122
  11.4515266  39.6400642  36.4965706  12.1572866  38.8071060  35.4482079
  44.7079391  39.0122147  -0.1664676  43.9643173  38.4653778  -0.4198990
  44.6368980  39.0870399   0.7851555  27.7353115  69.9535294  37.2751656
  27.3090382  70.4179077  36.5548325  27.0381680  69.8140793  37.9160843
  61.4941559   1.2734747  28.6150322  60.7776070   0.7936850  28.1995964
  61.9867363   1.6480000  27.8847389  82.9602737  42.6837463  75.9199295
  82.7366791  42.5817108  74.9948273  82.1701126  43.0484467  76.3185120
  75.1451263  52.6787338  35.8913879  75.7102737  53.4475555  35.8155060
  74.2559509  53.0329056  35.8787270  84.0937195  18.4454632  80.4876480
  84.5434570  18.1532574  81.2804794  84.1342239  19.4009686  80.5276566
  68.3688126  39.0670013  74.4553680  69.1848602  39.4655838  74.7577438
  68.6411362  38.4486275  73.7773666   1.4657596  31.9980450  88.0533142
   1.0603968  32.4300957  88.8051453   1.4018682  32.6392174  87.3454666
  17.9471493   1.0129527  32.9586029  18.6566906   0.9594175  33.5988503
  17.4014969   1.7369307  33.2657661   8.0600376  50.2471199  73.4916916
   7.5763946  49.5720406  73.9677048   8.6454878  49.7590256  72.9126892
  51.8936424  13.1953306   7.9385586  52.0457230  14.1342087   7.8307948
  52.7404633  12.8458223   8.2159929  54.3542442  64.9665985   7.0285454
  55.1671562  64.4944611   7.2087979  53.7037964  64.2785721   6.8879395
  86.3385773  11.5580626  21.2361679  85.4469223  11.4430580  20.9076080
  86.5395584  12.4783936  21.0663738  59.9295654   9.7996569  79.2106552
  59.1846123   9.8280392  78.6102600  59.8360519  10.5877657  79.7457886
  14.1049709  36.4529266  11.9077911  13.2970333  36.9095840  12.1421690
  14.6451321  36.5017548  12.6965075  70.0444565  20.9020901  84.1537933
  70.1708069  19.9760532  83.9470901  69.0964432  21.0006313  84.2419891
  16.7122879  18.0102482  22.9171276  17.1291981  18.0072498  23.7787590
  16.5096378  18.9311161  22.7523079  22.0474491  50.0452576  23.0999794
  22.4672871  50.8385963  23.4325180  21.9805164  49.4717026  23.8633842
  71.0599442  55.5971413  30.4260006  71.0090637  56.3104172  31.0623035
  71.8622055  55.7718620  29.9339867  84.5721817  38.8217621  61.5647621
  83.6286392  38.9820023  61.5477371  84.9639053  39.6809540  61.4080009
  80.0031281  10.3665295  19.8922520  80.2736740  11.2746582  20.0276718
  79.2379990  10.4273109  19.3203125  52.5519485  35.6431389  72.3144455
  53.3973083  35.2096939  72.4315796  52.4605827  36.2023544  73.0859146
  30.8929462  66.6210709  25.5379734  30.6340733  66.6953354  26.4565048
  31.8488255  66.5765610  25.5613766  46.8643723  69.7660446  65.0325394
  46.9354553  69.1191483  64.3306046  46.3414116  70.4730835  64.6545944
  72.7657394  44.6420097  16.0260925  71.9967728  44.9668961  15.5577211
  72.4113998  44.2440147  16.8212509  81.8656464  26.4539852  38.5378761
  82.0386658  27.1330833  37.8858643  82.2064514  25.6510658  38.1436615
  69.2110367   0.2095336  76.9034348  69.5100174   0.3489608  77.8019867
  68.2615967   0.1142221  76.9789963  47.4966431  28.6677322  80.2450638
  47.8804283  27.7965908  80.3453369  46.9590950  28.6032257  79.4556885
  56.0166779  38.4640236  56.2390060  55.7781105  37.5590477  56.4398384
  56.1371460  38.8755188  57.0948067  18.8585033  44.7961807  40.2082558
  18.0018749  44.8874207  39.7910080  19.0789261  43.8706932  40.1027985
  79.1171722  33.8727188  21.2395439  78.5274658  34.5458679  21.5791740
  79.7677002  33.7529488  21.9314251  24.1488876  60.9467354  19.1329403
  23.4450150  60.3283920  19.3290195  24.9453907  60.5034409  19.4250126
  57.1932602  46.9885902  43.9861603  57.8821297  47.0654488  43.3260193
  57.4011307  46.1811676  44.4563637  47.2525864  58.0670433  44.3256493
  47.1922379  57.9358368  43.3794060  46.3705177  57.8845367  44.6494980
  20.9729843   1.5453920  72.2080841  20.9144173   0.5997043  72.0721588
  21.6845188   1.6530343  72.8392487  50.7525749  45.4783134  72.7121658
  50.2464981  46.2250671  72.3920517  51.5194511  45.8701401  73.1300278
  46.2316742  69.3765335  41.6761551  46.7071571  68.6874847  41.2120857
  45.3674049  69.3898010  41.2649460  15.8006344  71.1686325  43.7741203
  16.1179905  71.0373154  44.6675835  16.3611355  71.8589859  43.4198952
  14.3228369  70.8273239  10.0457058  14.9515333  70.5398712  10.7077837
  13.4921379  70.8929291  10.5167332  57.1457939  20.0877972   7.4407744
  57.6821022  20.3396626   8.1925516  57.6234436  19.3626308   7.0380158
  67.9701614  25.3730869  52.4609909  67.2959366  24.6944866  52.4269257
  67.8932800  25.8293781  51.6230659  76.1053238  58.3428574  67.0276794
  76.3370895  57.4250183  66.8859482  76.5210495  58.8095627  66.3027039
  58.1289978  17.9517841  32.7833138  58.4110336  18.7435760  32.3253250
  58.2969589  18.1368637  33.7073059   9.2868271  47.0900993  68.5050430
   8.6848736  46.9439468  69.2347794  10.1560822  46.9461517  68.8790817
  45.0356560  38.9755058   8.9549980  44.5524216  39.8011436   8.9872742
  45.8386307  39.1864243   8.4785728  74.1754837  11.7696304  16.2460690
  74.7110138  12.5559387  16.3516808  74.2093658  11.5809469  15.3082609
  77.2152405  58.7563705  35.4084740  76.3862610  58.8649902  34.9423943
  77.4356003  57.8320656  35.2930222  67.5314789  52.5072479  21.2907410
  67.4969254  51.7852821  20.6632023  66.6144485  52.7324905  21.4474335
  36.8259659  31.5791702  18.5607338  36.9454536  32.0426865  17.7318134
  36.2363663  30.8557949  18.3478241  67.3478241  13.2392969  27.5130215
  67.6297531  12.8051205  26.7078876  67.3284607  12.5410824  28.1675091
  80.4094467  31.9322891  68.3776703  80.8447952  32.7698326  68.2188492
  80.1504288  31.9678059  69.2984695  66.6515121  24.9523659  24.7451344
  66.8196030  25.3918533  23.9115696  67.4467468  25.0983677  25.2575054
  15.5237217  22.3665009   4.7258344  15.5593815  21.5018673   5.1349411
  14.6596794  22.4018440   4.3154502  54.3496704  13.2571812  17.6451416
  54.7498817  13.0828285  16.7932816  53.5430603  12.7418280  17.6407967
  68.2106323  40.6078262  36.1899757  68.9504547  41.0300751  35.7533989
  68.5571594  40.3366470  37.0400429  78.0556335  63.6767998  89.0296936
  77.3845139  63.8331528  88.3653259  77.8128052  64.2518005  89.7553940
  23.7069988  52.1423302  63.9758720  22.9212399  51.6057587  63.8714333
  23.3753719  53.0328407  64.0909576   5.1223841  12.1882153  72.7943954
   4.8218608  11.5696821  73.4602280   4.5185628  12.0639896  72.0621338
  63.4617043  19.3424129  71.1123352  63.7713699  19.6391182  70.2565918
  63.9816895  18.5603294  71.2972412  70.7985840   5.7409797  63.9967842
  70.5185928   4.9819274  64.5083237  71.7353973   5.8190088  64.1771469
  73.1692047  61.0506935  55.4101486  74.0238876  60.8000565  55.0595169
  72.6980057  60.2231483  55.5069695  19.9528294  30.6036930  17.3302708
  19.1298027  30.2190647  17.0287418  20.3969193  29.8902416  17.7885323
  62.3557549  35.7376671  69.0549622  62.6009598  36.6243668  68.7906418
  63.1836128  35.2578468  69.0806808  18.4954185  53.5877800  42.8683090
  17.7064686  54.1105385  43.0115280  19.1754398  54.2306557  42.6670303
  26.0044937  63.7288857  31.9365749  25.8818207  62.9541054  32.4851151
  26.7980614  63.5436211  31.4344215  38.1996689  70.1953659   9.7098560
  38.7885361  69.8706284  10.3910408  38.6148682  69.9317245   8.8886786
  40.2106133  52.6423073  48.5609779  41.0005875  52.8301582  49.0678139
  39.6140251  53.3603821  48.7723579  33.4886398  11.5679092  17.7949219
  33.7685013  10.7429266  18.1915512  32.5359993  11.5675020  17.8882351
  15.8850927  41.8043709   4.5373855  14.9842882  42.0174026   4.2936640
  16.2718487  42.6447601   4.7831511  23.7931175  13.9676590  68.1105423
  24.5999393  14.3423967  68.4638748  23.3320274  14.7124519  67.7246552
  26.5794392  53.0840378  75.2436295  26.7580528  54.0071640  75.0642853
  27.0502682  52.6112480  74.5573196   9.5181379  27.0390759  80.2537231
   9.2365227  26.8106022  81.1395645  10.3316841  26.5507450  80.1276016
  13.7008009  37.4648247  66.1503220  14.4749126  36.9920921  66.4561157
  14.0458364  38.2817764  65.7900848  44.5781898   0.9785240  38.1691246
  45.5350494   0.9881869  38.1928177  44.3349075   1.8782494  37.9510918
  47.3126793  33.4752312  40.4957733  46.5518036  33.8956566  40.0950928
  47.7657661  33.0538635  39.7654343  37.5818558  58.2470894  12.5809212
  37.5241699  57.5552597  11.9219246  36.9066696  58.0243111  13.2217979
   5.9228244  67.2693024  65.8356247   6.5191593  67.9846420  65.6144714
   6.2652640  66.9173508  66.6572723  77.7141571   6.1200809  52.6201439
  77.3024979   5.5741053  53.2899780  77.1065140   6.8497100  52.4991493
  26.1907501  65.5667953  18.4368610  25.8052502  64.8255692  17.9697247
  25.5647221  66.2801132  18.3124104  83.8909378  38.5732155  74.4480515
  84.2583313  37.6926994  74.5251770  82.9630432  38.4646835  74.6565475
  21.5139599  68.1678391  87.1149597  22.0925922  67.6849289  86.5248642
  20.6312485  67.9127045  86.8467026  53.1277962  18.0072670  10.9691563
  53.3580704  18.2355957  11.8697519  52.1843529  17.8478565  10.9962358
  68.4679337  42.5114365  79.7252426  68.2846222  43.3831863  80.0755005
  69.4111862  42.5122185  79.5624084  71.5491409   2.1460764  66.8607178
  71.5572205   3.1002145  66.7846451  71.7117081   1.9784291  67.7889938
  38.6076126  57.3979721   3.5955558  37.7234001  57.1673241   3.3105974
  38.6999283  58.3224754   3.3653319  76.0366135  70.4878998  51.0355682
  76.0155716  71.2672806  50.4802742  76.7674332  69.9714355  50.6958504
  74.7911530  42.0862236  62.8929825  74.4038391  41.3821907  62.3728333
  75.6715469  41.7735977  63.1013222  42.1861305  30.4925842  32.0356102
  41.8245583  29.7013912  31.6362228  41.4325867  30.9226341  32.4399109
  15.3416586  17.9048347  81.5428772  16.0131664  17.2227154  81.5474091
  15.4370031  18.3291321  80.6901703  19.5872192  57.0040398  41.5458984
  19.6469727  56.1809578  42.0308685  18.7773972  57.4077263  41.8580742
  59.4660149  44.5945473  73.0080795  58.5513420  44.6098404  72.7263489
  59.8702431  43.9119835  72.4724121  73.4161224  10.6189079  26.6197815
  72.6444931  11.0553608  26.9808064  74.0670776  10.6652565  27.3200226
  82.8049622  41.1547737   7.4267683  83.1348648  40.7140694   6.6437111
  82.9602890  40.5310287   8.1360264  73.1737137   1.2603921  22.6451206
  72.2198639   1.2281986  22.5718632  73.4758530   0.4774258  22.1847820
  71.2493286  26.1730766  32.0355301  72.1771545  25.9876041  32.1803398
  71.1015930  27.0116081  32.4728775  78.9479218  36.0304832   2.4896562
  79.8574600  36.2223511   2.7180362  78.5175858  36.8854523   2.4813561
  61.6572380   9.7924871   4.7159791  61.3494720   9.3048630   5.4800043
  61.1811333   9.4090557   3.9794075   0.1315167  29.9222412  26.9557800
   1.0848885  30.0074196  26.9480972  -0.1081824  29.9968967  27.8794708
  43.8842354  69.1323013   6.3651090  44.3475418  69.8004456   6.8702455
  44.5531998  68.7593536   5.7909813  60.1953049  68.5187683  33.1616554
  59.5718880  69.0397263  32.6555023  60.5632401  67.9031143  32.5277596
  25.1391964   8.9482965  68.9634552  24.6309471   8.5698824  69.6808929
  24.4856319   9.3595676  68.3978271  65.9681549  47.6447487  44.8752174
  65.7122574  46.7458153  45.0817795  65.5399246  48.1759453  45.5465508
  13.4097252  53.8435783   7.8988228  13.8881416  54.4246979   7.3075104
  14.0919161  53.4031410   8.4056368  33.2302017  25.1645374  76.6773148
  33.4947014  24.2497139  76.5805206  32.5998383  25.3075848  75.9713287
   9.6491222   7.2432752  24.2950859   9.5380430   6.4880834  24.8726482
   8.9743881   7.1336603  23.6250477  82.7252884  38.4040184  16.7373199
  82.7662582  38.9606743  15.9597054  82.8544083  37.5162697  16.4034519
  85.8511810  43.5161743  39.3598938  85.9908829  43.1797943  38.4747047
  84.9003448  43.5918236  39.4400787  46.7279320   9.7895327  73.6434937
  47.5599174  10.0232239  74.0550995  46.3702240   9.0990210  74.2015915
  46.6260872  30.0488415  82.5363693  47.4209747  30.5810814  82.5696411
  46.7302094  29.5116882  81.7509689  23.9475365  45.7457428  43.9009705
  23.4007874  46.5288773  43.9642105  23.3714485  45.0292740  44.1674767
   2.8654695  45.1588440  25.3949642   3.0629218  44.8585815  26.2821445
   3.5120614  44.7182961  24.8435421  40.6677361  22.4648533   7.1936340
  40.3704414  23.2742062   7.6093240  39.8931198  22.1285000   6.7430058
  15.1188078  61.0508194   2.7565579  15.0403404  62.0015564   2.6779594
  15.8426695  60.8212509   2.1738462   9.0010576  56.2329407   7.8607035
   9.2292681  55.3865395   8.2450972   9.7394342  56.8017960   8.0784922
  47.6473465   1.2967764  29.3245430  48.3460083   0.7134526  29.0281715
  47.4721985   1.0226382  30.2247677  53.1746712  60.1727333  41.7064438
  52.5927544  60.5252800  42.3797340  53.0157433  60.7237511  40.9400558
  64.2247620   6.7957535  40.8977356  63.9196510   6.3218832  41.6714172
  65.0463181   6.3650322  40.6615944  58.0202332  69.1169052  21.6021843
  58.2034187  69.2390213  20.6706467  57.8367653  68.1815338  21.6895924
  67.0238953  46.2643433   1.7087810  67.8414383  46.3524132   2.1987770
  67.1670532  46.7729645   0.9106306  55.1711349   0.9978964  31.8530712
  54.9535370   1.6930679  32.4740562  56.1245193   0.9257464  31.8987236
  41.1398430  58.9754372  40.7409134  41.2375679  58.8084488  41.6783562
  42.0258408  59.1769943  40.4398956  50.4682426  50.2842865  42.4905052
  49.5978699  50.5048332  42.1587753  50.3981094  49.3673172  42.7559853
   9.1443195  46.7874146  61.9517059  10.0434284  46.5300560  61.7477417
   8.6022196  46.1302185  61.5152931  37.1804237   0.4740705  19.4860268
  37.2587852   0.4034842  18.5346546  36.2381172   0.5278537  19.6453991
  54.5981560   8.5276556  11.9547062  53.7865105   8.1424122  12.2849293
  55.2884636   8.1095877  12.4694147  11.5439682  34.4934349  13.3923206
  11.2477579  35.2700462  13.8670483  12.3943024  34.2857742  13.7796745
  44.0956535  54.1731720  24.6496887  44.8538094  54.6135788  25.0337086
  43.4105301  54.2533798  25.3133183  64.9178772  46.4726982  58.1402512
  64.1181183  46.1241417  58.5341187  64.7358704  47.4037094  58.0125084
  66.8858337  38.3552933  39.4951324  66.1792679  38.2101746  40.1243668
  66.7238388  37.7159500  38.8014259  29.3956432  48.1592560   6.3415089
  28.5385876  48.4439049   6.6587830  29.6845818  48.8665352   5.7648811
  47.0854759  54.7816505  68.7234497  47.7554703  54.1426773  68.4804459
  47.5086212  55.3342209  69.3806000  28.3542137  13.8845940  88.7980270
  27.7311382  14.5527344  89.0836868  28.9688129  13.8028250  89.5272827
  68.6247864  21.1475735  60.3271027  68.8923264  21.3693161  59.4352036
  67.8476257  20.6001568  60.2149315  56.1110229  39.4199944  21.7165413
  56.2924614  39.3268204  20.7813244  56.7672615  38.8695374  22.1438370
  52.4731407  45.9286423  33.9640236  51.7970085  45.2531548  34.0168915
  51.9863243  46.7502098  33.8986969  64.6407700  65.1545029  50.9596863
  64.9840469  65.8753815  50.4317436  64.0322266  64.6997681  50.3773422
  67.1474152  22.2205181  16.1914482  66.2326355  22.3508797  16.4412708
  67.6290283  22.2578220  17.0178185  78.4296417  23.8105927  40.5536880
  78.5778198  23.3748531  39.7143974  79.3014526  23.8859653  40.9416351
  41.9009438  44.4799347  13.0653858  41.0414162  44.3609238  12.6613064
  41.8154602  44.0820656  13.9317713  67.7551041  37.3625107  46.2286224
  67.3972702  38.2104759  45.9656677  66.9951401  36.7814255  46.2607841
  42.2497711  42.2934914  66.3335724  42.6953697  42.5209312  67.1496277
  42.9500847  42.2493401  65.6825409  17.8399849   4.0255065  70.0223846
  17.0367355   3.6091554  69.7098541  17.8831406   3.7960796  70.9506836
   9.9575071  60.7985458  24.1857300   9.5781155  60.1997833  23.5424747
  10.3728762  61.4825211  23.6604862  55.3323479  38.4950066  78.3012772
  54.3973274  38.2915154  78.2776489  55.3816910  39.3439064  78.7407761
  48.1964798  28.6607399  -0.2915038  48.7893639  28.2556000   0.3414141
  47.7181587  29.3174133   0.2146786  79.6159744  25.8608093  82.4692078
  79.6515656  26.7144318  82.0375900  79.0474014  25.3326206  81.9088745
  64.2649460  22.6312847  30.5810757  64.5831375  23.0599957  31.3755531
  64.0514450  21.7404633  30.8587170  19.0570087  15.3830881  77.4865341
  19.2997169  16.2725830  77.7436752  19.8891830  14.9127636  77.4364243
  86.3429031   3.5857170  22.5107822  86.7622910   2.7833750  22.1999836
  85.8646393   3.9160583  21.7502766  25.4088993  18.3196621  42.5378113
  26.1499920  18.4967518  43.1171646  24.6689396  18.1848106  43.1298447
  84.0186462  10.8414259  57.2569466  84.6521759  10.3288984  57.7591400
  84.3898697  10.8841209  56.3756981  33.1268234  59.8331490  30.3045235
  33.8147163  60.3413658  30.7343578  33.3959846  59.7939148  29.3867855
  59.4489136  60.1004028   1.1700212  59.7136726  60.9555664   0.8311545
  60.0761108  59.4866447   0.7877194  83.6777496  41.8414116  27.2763577
  83.7274246  41.8395081  26.3204498  84.5897293  41.7969780  27.5636730
  54.6441345  51.2502441   7.8326993  55.4746742  50.8294449   7.6105275
  54.5457153  51.9447174   7.1813526  67.1070633  66.4781570  28.9007072
  67.2700043  65.6192245  29.2904644  67.8008347  66.5810928  28.2493076
  60.7489090   9.1249962  22.0476723  61.5627708   8.7272587  22.3569717
  60.6995735   8.8815794  21.1232548  51.1561165  45.0707893  62.0638618
  51.7698250  44.7827454  61.3881187  50.7000008  44.2722054  62.3292923
  18.5585594   2.2266831  62.3248520  18.8379879   1.3916465  62.7001724
  17.7039604   2.3938832  62.7222672  48.7806244   8.1508236  24.7279015
  49.1065140   8.7346859  25.4128323  49.1978722   8.4658642  23.9260998
  23.0041294   4.7502394  50.2439346  23.7235832   4.8173590  49.6161499
  22.2278156   4.6028848  49.7036972  78.9962540  66.3768692  75.7397537
  78.8055267  65.7115173  75.0785675  78.9026337  67.2090302  75.2760925
  22.5168877  46.4371338  63.8248978  22.1317406  46.8943062  63.0773087
  22.2472134  45.5255470  63.7130356  71.1400909  27.7817230  11.8116617
  71.4411392  27.6112862  10.9191618  71.0450821  26.9130726  12.2023706
  72.2628174  66.9568405  49.7861633  72.6279907  66.0845947  49.9346809
  72.9934311  67.4657288  49.4347801  47.7288132  67.7650681  85.8117752
  46.9748116  68.2695312  85.5064392  48.4543304  68.3893890  85.8024979
  84.4509430  40.0156441   4.0502276  84.9715729  40.2465210   4.8195553
  84.5424423  39.0657730   3.9753640   6.4562364  32.2380028  56.2583923
   6.1913409  33.1575394  56.2811699   7.0076118  32.1668205  55.4791946
   8.0620432  70.8841705  77.0402451   7.9511409  70.0804367  77.5481262
   8.8649969  71.2758026  77.3839340  66.5363617  52.4731064  63.7869987
  67.1809311  52.8358192  63.1793785  65.7629395  53.0255470  63.6736259
  76.8478851  48.8413582  61.6059227  77.7381516  48.7232437  61.2747154
  76.2851181  48.6266098  60.8620110  11.9521761  63.3047905  55.7242775
  11.7928600  63.3321686  54.7808266  12.8696518  63.0440445  55.8047867
  16.0848198   1.9951417  81.0037384  16.2811623   2.0978079  80.0725327
  16.9167767   1.7304194  81.3961639  42.4044876  20.7820301   5.8465323
  41.7877464  21.4453888   6.1560736  42.8989258  21.2195225   5.1534495
  25.2423477  27.3678989  11.6457167  25.6862926  27.3529396  10.7978249
  24.8943996  26.4822464  11.7495518  26.1113472  48.1312637  47.1895523
  26.5560398  48.5470734  47.9281883  25.3289127  48.6646843  47.0499458
  34.9058914  53.2624359  50.0216713  35.5380020  52.6983643  49.5761490
  34.0808182  53.1075058  49.5617981  34.5064354  55.6039085  19.3029900
  34.1247406  55.5986900  18.4251995  35.4418144  55.4612350  19.1582813
  28.8419476   5.6174974  80.9925385  28.5639896   4.8359294  80.5149155
  28.2000237   6.2857676  80.7525787  34.6009140  51.1405296  32.8089943
  34.1133423  50.7757912  33.5475540  34.9056091  51.9927597  33.1205978
  16.3937397  58.8477898  15.9930325  16.9622154  58.9288139  16.7588673
  16.9673538  59.0296593  15.2486382  22.5688286  55.6052818  70.5658798
  22.6445255  54.6558914  70.4701462  21.8481064  55.8479195  69.9845734
  20.1854095  58.2311554  44.8384438  19.3290329  58.5095711  44.5138893
  20.0654259  57.3106117  45.0717506  33.7432518  32.9708786  23.9208412
  33.7311096  33.1614799  24.8587933  34.6470451  32.7121696  23.7406845
  60.8787308  56.1993599  63.4890976  60.4077568  55.3666496  63.5208664
  61.4028130  56.1477661  62.6897812  23.3511333  37.1764336  81.3640289
  23.8518200  37.2178764  80.5492783  23.8956680  36.6546783  81.9535065
  36.2351341   2.1371422  23.8132534  35.5713959   2.7675891  23.5335770
  36.5328331   2.4636033  24.6623898  81.2174454  24.0245075  40.7705765
  81.5708847  24.8044815  41.1983109  81.7230225  23.9450684  39.9616852
  16.2716961  55.9205055  78.8114853  16.4286537  56.2174797  77.9151611
  15.3975143  55.5314674  78.7852859  29.6759892  57.1005745  13.2714243
  30.6172600  56.9497070  13.3579130  29.3695412  56.3872528  12.7115154
  17.6126175  63.5772438  31.4366417  17.3279572  63.3667183  30.5473270
  18.2695351  62.9119186  31.6416645  44.1046829  39.2137489   2.5251567
  43.5151215  39.1427612   3.2758961  44.0193443  40.1231003   2.2387455
  84.3520660  14.6140938  51.8170052  85.2046661  14.5238476  51.3913689
  83.8306046  15.1296539  51.2017746   1.1382060   6.7956142  64.8265839
   0.9792255   6.5662060  65.7421875   0.9259419   7.7274318  64.7728043
  62.2812996  33.0492134  58.1238098  63.1919289  33.0522690  57.8288956
  61.8498383  33.7047081  57.5757217  32.2914772  28.3784828  13.4755926
  32.9516525  28.9812374  13.8177700  32.3187180  28.5065746  12.5273933
  10.3137598  59.4686317  30.1482544   9.6444674  59.0170708  29.6340847
   9.8477573  59.7864723  30.9215927  59.7964211   9.7949982  35.7899246
  60.3320274   9.0609550  36.0908241  60.1592445  10.0209827  34.9334679
  36.2733116  62.8869247  15.9293108  36.6947327  62.1881409  16.4296513
  35.4033470  62.5439835  15.7248898  72.4670868  17.6817417  28.6137524
  72.2112808  17.4132271  27.7313137  72.9832993  18.4769650  28.4819355
  75.5766068  40.4614830  85.6227417  74.8339615  40.2429886  86.1857452
  75.9787216  41.2226105  86.0413361  25.1235580  33.3691902  87.9633865
  24.2922497  33.8258438  88.0923309  24.9008751  32.6164246  87.4156723
  32.3432961  48.1671257  43.7516632  32.7329483  48.5062103  42.9457932
  31.4703522  47.8737640  43.4906273  62.9582062  30.2738152  11.6713820
  63.3603477  29.4425049  11.4195070  63.5341606  30.6219826  12.3520346
  81.7203827  47.8474388  48.8246613  81.6329651  48.7937508  48.7102928
  82.1346207  47.5457306  48.0161972  44.7577019  63.1654282  14.9480162
  44.3538132  63.7824326  15.5582743  44.6689415  63.5830841  14.0913258
  49.0902405  27.0667725  74.0580673  49.0177689  27.2262249  73.1170349
  50.0014076  27.2731018  74.2664871   0.8133742  23.0825443  14.3805723
   0.8319282  22.3613262  15.0096445   0.8569754  22.6553650  13.5250912
  82.4912262  64.7842560  33.5140800  82.6166611  65.5948792  34.0074234
  82.8404312  64.0999222  34.0850258  25.8254185  30.7887440  71.2790070
  26.7510986  30.8354721  71.5180969  25.6425953  29.8516235  71.2110977
  80.9989014  17.2469673  76.3369980  81.2110214  18.1494732  76.5751495
  80.5053024  17.3243999  75.5205460  39.9156418  59.3387680  83.9105301
  39.9983177  60.0863724  84.5025482  40.7844963  59.2453690  83.5198822
   4.8263679  11.3882713  20.7033863   5.0964704  11.6466541  19.8221855
   4.7757063  10.4330702  20.6679440  27.5912437  40.9997940  49.8186569
  27.8139763  41.0713768  48.8904877  28.2105942  41.5816841  50.2591591
  22.6093998  59.1629333  37.3036041  23.3342018  58.6365929  37.6410370
  21.8230534  58.7209930  37.6238899  61.7806587  39.8975182  25.6947689
  61.0723457  40.5184937  25.8648186  62.5707283  40.3476257  25.9938011
  78.8490295  10.8441715  49.4375572  79.3560410  11.6375542  49.6099472
  78.9386292  10.7027245  48.4951172  84.9204025  39.1242409  15.0810099
  84.9600143  40.0771713  14.9998407  84.6929245  38.8183250  14.2030001
  13.4158392  61.9608078  19.0818386  13.0705376  61.8774376  19.9706860
  12.7849503  61.4927444  18.5349140  70.9760437  17.1008511   0.8899665
  71.1466827  17.7902927   1.5316733  70.9144821  16.2995701   1.4099555
  74.2125702  23.3666325  58.8569984  74.0286484  22.4287643  58.9099693
  74.7819672  23.5417385  59.6062355  58.9950104  12.7819204   7.2644043
  59.4459381  13.2387238   6.5543141  58.0689468  12.9818726   7.1278205
  24.2339745   3.2062204   4.8535490  24.0059643   4.1309052   4.9494705
  23.4055119   2.7416887   4.9722614  76.7611847  53.7729836  18.8189888
  76.3177795  53.5983009  17.9888611  76.3862991  54.6001968  19.1213322
   0.9660769  22.8458557  35.7948303   0.6526670  23.2361012  36.6107445
   1.8926138  22.6669540  35.9553146  20.2539215   6.2056322  38.3803635
  19.5551682   6.8306918  38.1872940  20.3007431   6.1864390  39.3362274
   8.4465590  43.6686363   7.1137176   8.5273352  44.6112633   6.9682560
   9.3497849  43.3560181   7.1655493  74.5475769   4.5637636   2.0306571
  73.6409988   4.8474746   1.9129754  74.5179977   3.9734774   2.7835972
  13.8832941  11.5139399  63.0454025  14.4024944  10.8196869  63.4512024
  13.3118277  11.8267174  63.7467041  30.1220627  62.4922371   7.9822106
  30.3710098  63.3435211   8.3421793  30.3926964  61.8616104   8.6495161
  33.1151619  22.8227310  82.8860016  32.3549500  22.8052635  82.3046188
  33.8326416  23.1317883  82.3328857  25.2907715  59.2945023  64.5798035
  25.5110626  59.7251434  63.7538223  26.1351624  59.1478157  65.0060883
   1.2393068  56.6940079  64.3387680   1.2243518  57.6407852  64.4788513
   1.0319986  56.5859261  63.4105568  10.9892693  48.5083275  34.0344162
  11.7301159  47.9024353  34.0510139  10.4187155  48.1701698  33.3442345
  29.4681377   2.4699976  67.9119568  29.6998978   2.8499572  67.0645142
  29.2909298   3.2252705  68.4726639  62.4268723  11.5677052  53.1300468
  62.8644218  10.8536463  53.5936203  62.5633316  12.3340473  53.6871223
  19.4319477  22.5782204  84.7773438  19.7934036  22.1325665  84.0112000
  20.0377140  23.3008213  84.9420471   2.1699970   1.2932656  15.7190771
   2.3518145   0.7849995  14.9286089   1.6589859   0.7019697  16.2717705
  26.4802132  28.2160892  25.4813805  27.1140900  27.6469078  25.0449581
  26.6619492  29.0887413  25.1325493  77.9509659  34.4226456   8.3187342
  77.0553436  34.7005730   8.1267767  77.8487701  33.6060371   8.8075466
  24.4977112  28.1114502  19.9459782  24.0053139  28.9105186  20.1337738
  24.9936504  28.3164272  19.1533489   2.1690331  26.7966290  13.6099358
   2.0822263  27.7065582  13.3258181   3.1055436  26.6118526  13.5389557
  54.1881752  14.0160179  88.7574692  53.4130745  14.3800411  88.3297577
  54.8617439  14.6865005  88.6434937  22.9382782  25.8919315  16.0871830
  23.1749992  25.9659328  17.0116920  23.3010464  26.6802483  15.6832161
  66.2335052  48.9108162  79.2156143  65.4981461  48.3728790  79.5090561
  65.9841766  49.8050575  79.4488525  16.3147583  55.3313904  70.4693451
  16.4352322  55.9658890  71.1758347  15.7218924  54.6750679  70.8353806
   2.7429380  36.9256668   9.1992178   2.2504258  37.6582146   8.8290262
   2.1473849  36.5356560   9.8390913  56.6999283  54.4100227  36.7191086
  57.5386200  54.8704605  36.6904526  56.2404861  54.6999321  35.9310112
  43.5828934  21.9371891  77.6953278  42.8182068  22.5103130  77.6404495
  43.2805824  21.1821404  78.2000427  75.2762222  13.4084673  72.0224609
  74.3235931  13.4332809  72.1125793  75.5373535  12.5990915  72.4617233
  12.1316519  40.2844009  56.7259903  12.1406822  41.2064095  56.9829941
  12.2642508  39.8062820  57.5445557  51.1593933   7.8938589  65.6316681
  51.1443939   8.6116190  66.2647781  51.6306076   7.1904345  66.0781937
  46.0589333  10.7190247  10.1641340  46.7134132  11.0912857  10.7551622
  46.5534172  10.1173344   9.6076403  71.5731735  53.2708893  27.3151855
  71.4167862  53.3508377  26.3742371  70.6983871  53.2649841  27.7037182
  18.5348930  67.9816208  66.3676453  18.8043137  67.9731903  67.2861099
  18.8308449  68.8305283  66.0390091  35.0421448  56.0581474  10.9078770
  34.6861458  56.3445053  10.0667496  34.9348145  56.8152618  11.4836264
  22.1899719  14.0750141  74.1823120  21.8955040  14.1712418  75.0879974
  22.9799004  13.5378447  74.2430878   5.5501423  43.7165718  11.3494911
   4.8777556  44.3517456  11.5958233   5.0685301  43.0170174  10.9080076
  66.6986389  53.2318993  77.5674591  66.6152802  54.1144180  77.2062988
  67.1410065  52.7328835  76.8807831  79.1724319  25.5234051  37.9574165
  80.0048828  25.4474468  38.4237785  78.7463989  24.6762981  38.0883179
   5.8213577  43.9641838   7.8822694   5.5834470  43.0418587   7.9768653
   6.7778134  43.9698639   7.9195752  30.7082977  13.3115263  14.6022015
  31.0240192  13.9263754  15.2644043  29.8631992  13.0118208  14.9371901
  22.3196278  11.3276739  65.5256424  22.5544224  10.6286144  64.9153824
  23.1526489  11.7466755  65.7418518  12.7202148  23.3443909  21.1258144
  13.5892220  23.7200222  20.9845352  12.8233700  22.7849483  21.8956299
   2.2324543  53.0682716  38.5878143   2.1922431  52.3633728  39.2341385
   1.8253522  52.6984291  37.8044128  43.9347687  51.4134979  51.1271973
  43.5006981  50.7304268  51.6383018  44.5054970  50.9359627  50.5251465
  53.7003517  25.2184048  25.4370670  53.3278923  24.5245132  24.8929901
  54.6404228  25.0383015  25.4445934  58.1528587  26.4797764  85.1988220
  59.0767288  26.5579586  85.4367065  57.8669319  25.6656284  85.6131210
  51.8292885  14.6332664  84.6468048  51.4988213  14.1802797  83.8710251
  51.1679459  14.4701395  85.3192978  29.2217236  46.0151520  61.4160385
  30.1538010  46.0323524  61.6332207  28.9475384  45.1184120  61.6081581
  78.9787369  47.7839279  15.2144661  79.0666733  46.8888359  15.5420504
  78.1602936  47.7780075  14.7181301  77.6530609  38.6098099  69.4224701
  78.2652283  38.7358704  70.1474457  78.2123108  38.4718285  68.6579895
  73.1519241  11.2334690  33.1517448  72.7713318  11.2841892  32.2749290
  74.0447540  10.9199524  33.0075340  65.6254120  17.8990345  38.1498566
  66.2450104  18.3407993  38.7305298  65.1183243  17.3300686  38.7289696
  78.7797165  26.3565540  54.2404633  79.5336685  26.7924252  54.6377144
  78.8224869  26.5995045  53.3155975  15.6515036  53.2796326  56.2193642
  14.7261801  53.0537834  56.1244926  15.6834240  53.8374825  56.9965515
  62.4825439   5.5210991  42.8536301  63.3404694   5.1855512  43.1136436
  62.0652618   4.7875018  42.4020309  75.6408539  68.0273514  70.6269226
  75.7220306  68.3515244  71.5238876  74.7184372  68.1585083  70.4074020
  39.5610695  11.9185095  12.0518990  39.4324875  12.8668690  12.0695810
  40.2198639  11.7535095  12.7264338  21.2782516  62.8262901  45.1262779
  21.3287296  61.8728180  45.0586586  21.6102142  63.0221748  46.0024414
  50.4815063   3.9898870  83.4503632  50.4621201   3.5675693  84.3091507
  49.7797699   4.6398425  83.4871902  14.0287609  15.3484287  78.1023560
  13.7185535  14.9659271  78.9231491  13.4161148  15.0261097  77.4412918
  50.0316086  21.5175514  66.3511124  49.3697205  21.3077641  65.6922302
  50.6569290  22.0785160  65.8922882  52.4331284  52.2805099  16.6625175
  53.1728897  52.8119202  16.9567719  52.4977531  52.2879257  15.7075300
  47.0779800  15.5351219  45.5545959  46.7405243  16.3110809  46.0020828
  47.9216614  15.8124905  45.1975288  64.2676468  64.5934067  46.9789429
  64.8165970  63.8406219  47.1984901  63.6199455  64.2466812  46.3653488
  64.9224472   0.6600240  26.4888439  64.3753281   0.5923007  27.2713413
  65.5807953   1.3176869  26.7130947   2.8786266   3.6589532  81.1657486
   3.3402517   3.2871506  80.4141464   2.0462954   3.9669940  80.8071823
   3.9043179  31.3778534  67.8464432   3.4330480  30.5707150  68.0529938
   4.7601347  31.2682724  68.2609329  58.2105713  41.7736626  28.3408737
  58.8583145  41.4290504  28.9556103  57.8271141  42.5250587  28.7931957
  63.5389824  14.5938253   4.0606203  63.7564011  15.1972837   4.7711134
  62.6588936  14.8526974   3.7873838  41.0677681  18.5164108  85.7686844
  40.2385941  18.1636829  85.4457550  40.9847488  18.4888630  86.7218781
  40.3141174  19.0085621  14.0194197  39.4246254  19.1979656  14.3180141
  40.3736916  19.4297352  13.1619253  21.6784000  11.2430477  80.9539413
  21.0650215  10.5283022  81.1246338  22.0057869  11.4894428  81.8190079
  83.3372955  54.9457703  44.8935699  83.9279022  54.2022858  44.7725792
  83.7995148  55.6854706  44.4993324  22.8471489   6.3673277  85.0217209
  23.4082355   6.7358494  84.3393631  22.2155762   5.8272438  84.5466843
  71.5456314  30.8295498  78.4143219  71.3218613  30.5986080  79.3158875
  72.0953064  30.1068497  78.1113358  15.2235975  53.0477486  67.6319809
  14.7941256  53.5154343  68.3482590  14.5190010  52.5552368  67.2110214
  81.4519806  24.3864136  22.2508144  81.1588058  24.4021320  23.1618767
  81.0129471  23.6253357  21.8710251  41.8215790  71.1375427  82.3869553
  41.4204788  70.3078766  82.6458206  41.6184692  71.7362976  83.1056137
  34.8549385  32.5683861  14.9254522  34.8990021  33.0592957  15.7459993
  34.5558777  33.2081795  14.2793427   6.1855059  57.9701309  38.5600815
   6.1303673  57.0438652  38.3250885   7.1240392  58.1428871  38.6345253
  67.3416977   9.7098799  63.8146286  66.6978531   9.0213509  63.6484146
  66.8471146  10.5252438  63.7321548  85.0601273  17.3073425  57.0359650
  85.3385468  17.3903046  57.9480133  85.8337479  17.5485497  56.5264931
  37.8230972  57.9147224  75.6903152  37.8242073  57.1921730  75.0625000
  37.6799278  58.6959724  75.1560974  73.3984756  46.2046661  68.9535446
  74.0749130  45.5466042  69.1136017  73.2477646  46.1683846  68.0089798
  37.8289413  43.5225830  15.0810022  38.6498146  43.9680901  14.8714170
  37.5726433  43.0956459  14.2635260  26.2811794  35.0874481  75.3810196
  25.8463860  35.6102295  76.0547333  25.8081284  34.2553101  75.3811493
  61.9471626   8.2553120  78.2830658  61.9563293   8.5174360  77.3625031
  61.2814178   8.8137674  78.6844940  24.4298286  69.4294052   9.4415216
  24.9441338  69.3417740  10.2440443  24.8827705  68.8761292   8.8051558
  80.8841171  35.5952682  10.1147633  80.7477646  35.3092384  11.0179939
  80.0058441  35.7977486   9.7924719  52.2603722  53.5581512  19.9653053
  52.2416763  53.0339317  20.7659798  51.9227905  52.9724693  19.2876301
  59.7090302  32.6475639  44.7831802  59.1527977  33.3176575  44.3859291
  60.3113403  33.1373596  45.3431435   3.7251632  17.4653111  39.3344650
   2.8676221  17.0404510  39.3158073   4.0461206  17.3180275  40.2241440
  65.0079956   4.6701040  64.5780106  65.7775726   5.2098446  64.3973007
  65.3460922   3.9340334  65.0880356  67.7992096  12.4138117  79.4203186
  67.1829453  12.1625042  78.7323608  67.4979630  11.9409714  80.1961441
  18.9107971  67.1776810  73.1886673  19.7745781  67.0882187  72.7860336
  18.3512955  67.5059662  72.4848022  57.6801720   8.4707527  16.2481747
  58.2458839   8.4016905  15.4791298  57.9239082   7.7222805  16.7927971
  78.2357025   6.4148941  78.0843048  77.9945145   7.1157093  77.4785690
  78.5431976   6.8707771  78.8677902  42.7733765  62.5972595  81.7195969
  43.0651398  62.8738976  80.8509293  43.3656464  63.0437622  82.3246460
  72.3475723   6.1285439   1.2525859  72.6710587   7.0220442   1.1374823
  72.0243073   5.8775220   0.3873001   1.6756785   9.8898726  81.3972549
   1.5071169   8.9525452  81.3011627   1.2976729  10.2830839  80.6106644
  11.8750973  66.5769424  76.7111053  11.6467276  65.6473999  76.7065430
  12.2582579  66.7336807  75.8480606  58.1512527  14.5501728  46.9668388
  58.8386078  14.7519255  47.6017189  57.8754272  13.6604319  47.1870956
  53.9298668   4.8364329  12.0514259  54.7644081   5.3001060  12.1205568
  53.5245132   5.1896377  11.2594872  64.1923218  14.2205324  87.3544388
  64.3307724  14.6464624  88.2004013  63.3474731  14.5549021  87.0533524
  67.8043976  42.6200638  52.2474823  67.2501450  43.2408714  52.7203827
  67.8381882  41.8493233  52.8140907  25.1893692  57.8641663  55.3521996
  25.2550411  57.8518486  56.3070641  25.9797916  57.4154816  55.0519524
  67.4882507  59.5458603  37.2863503  67.1215134  58.7752342  36.8528976
  66.7569122  59.9114342  37.7840843  66.5713043  29.8735714  47.8837662
  66.3848419  30.2555904  47.0261383  66.9017639  30.6051636  48.4051170
   0.6864970  70.2359085  16.6872139   1.0625377  69.6288147  17.3246059
   1.1816065  70.0765610  15.8836555  46.3293533  59.3032417  77.4306488
  47.1449890  59.1068611  77.8915253  46.5085106  60.1195335  76.9639587
  67.3646698  65.8297577  86.4690018  67.3237457  65.3186646  87.2772903
  66.5021744  65.7160034  86.0697632   7.3086376  24.2971001   1.1995908
   7.6026735  23.4254379   1.4641306   6.5641489  24.4826679   1.7718964
   6.4674788  35.6196060  23.2220306   5.8784914  35.9346771  22.5364246
   7.1252546  35.1046638  22.7547016   7.9197187  69.0951233  41.8499794
   8.1931934  68.4512482  41.1966324   8.3765602  69.8984070  41.6004601
  80.6367264  69.8445816  28.1543922  80.9238586  68.9984360  28.4976559
  80.1970444  69.6323166  27.3310699  71.3367920  71.6896973  70.8691635
  70.9586868  71.6473694  71.7474976  72.2295151  71.3614807  70.9766312
  14.4952793  64.1286621  53.5268021  15.3951998  64.3134460  53.7955589
  14.0760498  64.9882278  53.4865303  34.6641197  50.4546165   5.0148153
  35.2301445  50.5823746   5.7760816  34.2104378  51.2910080   4.9106236
  59.9364166  16.9003906  88.9857101  59.4144020  17.5048733  88.4581375
  59.4444809  16.0795002  88.9664612  18.8920250  17.4106731  74.2250290
  18.0648956  17.3468151  73.7475204  18.6356659  17.4262314  75.1471252
  29.4733047  43.6887398  63.3830032  28.9949760  42.8664856  63.4894485
  28.9622726  44.3289490  63.8781929   6.6693902  62.0842934  81.9792633
   7.3456922  61.4125862  81.8917465   5.9658666  61.7928314  81.3993225
  43.6015015  52.1219902  85.5337601  43.3423920  52.8750496  86.0647888
  44.1282845  51.5828094  86.1236954  14.0963974  56.8675003  42.6436157
  14.1820850  57.7926025  42.8739967  13.1933851  56.6465454  42.8716087
  70.9636383  39.3098717  14.9855843  70.3490372  38.6272392  15.2548704
  70.7595520  39.4657059  14.0634689  25.0498829  51.8677711  25.6668797
  24.8566284  52.5997925  26.2525673  24.6563492  52.1192093  24.8313313
  53.1806641   2.6367443   2.9492922  52.2594528   2.5578856   3.1970367
  53.3056068   1.9682463   2.2756958  10.0133810  66.0764999  50.0930634
   9.5767651  66.7913513  49.6298332   9.5077600  65.2972641  49.8620453
  52.2188606  18.7340584   4.9587240  53.0561447  18.6507339   4.5023904
  52.0041351  19.6648331   4.8971877  27.7613277  44.0221596  83.1076813
  27.0843353  43.3818779  83.3266525  28.5760078  43.5196419  83.1100388
   0.9618818  17.4511662  11.4318581   0.0321482  17.6242905  11.5796938
   1.0465385  16.5022507  11.5247183  25.5084229  21.9452629  16.3748035
  26.2792034  22.4828167  16.1926823  25.0186596  22.4428711  17.0295925
  32.2780190  64.6738586  81.5925827  31.6105881  64.1338959  81.1692505
  32.8858070  64.0437546  81.9796066  51.0801315  58.2371368  30.1635342
  51.6969147  58.9627953  30.0674496  51.5433617  57.5993843  30.7066002
  26.9379692   6.5540366  53.7212486  27.7097015   6.8924193  54.1752968
  26.2036495   6.7914243  54.2875137  74.1602402   1.7915449  50.8385658
  74.5597534   1.5455303  50.0042381  73.2183304   1.7643658  50.6703453
  61.7247734  47.9338112  35.1475601  60.9979362  47.3114128  35.1238098
  61.8385162  48.1338730  36.0766830  34.3253860   8.6123819   6.8629117
  34.5477524   9.3133240   7.4756651  34.0567398   9.0679674   6.0651011
  39.6542664   5.3291917  84.3352203  40.3302422   6.0028582  84.4091110
  38.9063416   5.6868834  84.8136520  40.0663033   1.3716254  64.1887360
  40.1759529   2.3181241  64.2801056  40.9168396   1.0608160  63.8785439
  51.8179054  43.0888023  18.4912834  51.7914696  43.8670464  17.9346218
  51.9512558  42.3628273  17.8818493  68.9423141  39.6941223  87.0081635
  68.3039322  40.3079300  87.3713989  69.1784515  40.0684624  86.1594315
  74.7583313  33.5850220  51.3386192  74.8168564  34.4890404  51.0295029
  74.0622025  33.1955643  50.8095093  69.8766632  33.3608360  29.0605888
  69.1885757  33.7020073  28.4893055  70.1223984  34.1049232  29.6102943
  80.7443619  52.4269447  74.3944016  80.0172653  52.4052162  73.7722397
  81.5205231  52.2530479  73.8618927  52.2620049  64.7803421  86.5446625
  51.8272362  65.6330872  86.5393982  52.6958313  64.7379379  87.3968506
  15.0683994  44.2788696  13.5803471  14.9984741  43.6566887  14.3043842
  16.0051899  44.3178024  13.3876333  41.2989693   0.6254683  76.6913910
  40.9085503   1.3906413  77.1136627  41.9987564   0.3548744  77.2857895
  50.3315620   5.9103365  24.4670200  49.6465416   6.5633359  24.6104507
  49.8801651   5.1778488  24.0475731  41.2147827  69.2256699   9.3358021
  41.9998436  68.8764725   9.7576628  41.1470528  70.1232529   9.6613817
  51.9306221  55.2847862  17.7297478  52.6438408  55.4893036  17.1250000
  52.2986031  54.6277695  18.3206387   1.5204954  49.3843727  71.7509384
   1.0597057  49.2177391  70.9286575   2.4453471  49.4124146  71.5057907
  14.2493782  65.0084229  46.2166824  14.4683886  65.8805084  45.8884621
  13.9892826  65.1532364  47.1264153   0.9686807  56.5641441   6.7086926
   1.2325507  55.6530380   6.5802732   1.7790343  57.0177765   6.9405856
  32.4395752  53.2611122  63.3204346  33.3206940  53.5980263  63.4827614
  32.3545647  52.5162392  63.9155579  14.1093235  31.2425747  85.1115112
  13.3851786  31.3032818  84.4884872  13.8979292  31.8860378  85.7878952
  18.9339924  58.8995399  60.7348633  19.5632477  58.2693176  61.0857048
  19.4115124  59.7288780  60.7146950  42.3882027   7.5511122  54.8972015
  41.8629074   7.0205073  54.2982407  42.7742729   6.9178786  55.5023460
  75.3373947  56.0612373  15.1370907  75.0297623  56.6230621  15.8483906
  76.2251816  56.3694763  14.9552765  69.9826508  50.3885841  24.2958241
  70.4930115  50.0571823  25.0347004  69.2624207  50.8724365  24.7000370
  42.6062584  64.6439819  59.7257843  42.9761658  65.4983292  59.5033112
  43.2312889  64.2661285  60.3444862  82.9543915  53.0775948  79.4889908
  83.7103500  53.1004524  78.9022751  82.5150528  53.9159622  79.3463287
   6.3071928  32.4919968  76.3457718   6.6313043  33.2099915  75.8020172
   6.7026706  31.7070675  75.9666748  35.3304253  35.5858421  10.4494886
  36.1643143  36.0556870  10.4390993  34.6815033  36.2441139  10.2008753
  85.3787994  13.8209629   8.3440228  85.0276794  12.9453764   8.5061769
  84.6082993  14.3570423   8.1564493   3.6813889  21.3891869  51.8168983
   3.1153495  21.0288715  51.1342545   3.5475209  20.8117828  52.5685081
  83.1278992  23.3878841  69.9636002  82.2270432  23.3265419  70.2812729
  83.5351868  24.0481014  70.5243683  58.6587791  18.2712231   6.2787223
  57.9123344  17.6723289   6.2982798  59.2806854  17.8993263   6.9041462
  61.4049263  33.5889816  61.0384293  61.5243454  33.3558540  60.1177673
  60.8141670  32.9180984  61.3807030  78.4392014  57.4157104  75.5556183
  78.0464783  58.0356598  76.1701660  77.9420242  57.5333519  74.7461700
  49.5580444  28.9141102  46.5367432  49.0682945  28.5564632  45.7961578
  49.4309006  28.2758217  47.2386360  15.9524479  49.1417847  34.3153114
  16.3417511  49.9103279  34.7324638  15.0214176  49.3528862  34.2456703
  76.9305573  71.1837692  65.9819183  76.4644775  71.6481018  65.2866440
  77.4809265  70.5511780  65.5202408  21.7262115  31.0400391  14.3211842
  22.1375542  30.4271202  14.9305782  20.9364243  30.5883522  14.0237846
   2.3066194  12.1506586  18.4345703   2.3019543  11.2561607  18.0938625
   3.2344468  12.3745728  18.5068951  62.5799370  28.0435467  34.6083755
  62.3935051  28.7996979  34.0518570  63.2628174  28.3484364  35.2058258
  23.9696484  49.1267090  19.9036694  24.3897572  49.6214104  19.2000980
  23.0327854  49.1998634  19.7215500  34.5033722  33.5352325  80.9864044
  35.0400887  32.7710533  80.7761765  34.0974960  33.3192139  81.8259506
  75.5018387  18.2558746  22.2274971  74.8771591  18.5435295  21.5617161
  76.0573578  19.0201492  22.3808250  27.0280533  27.5671616   9.4479227
  27.8851986  27.2091904   9.6789885  27.1997490  28.4861736   9.2425737
  60.0840034  35.0277824  17.8903599  60.9449387  34.6646767  17.6825771
  59.9567833  35.7254219  17.2474403  75.0403137  19.2697620  84.4235687
  75.6530685  19.9251003  84.7571793  74.3066788  19.2931213  85.0379486
  47.9776154  46.3076210   7.1110344  48.8849792  46.4666901   7.3710699
  47.4583473  46.6110153   7.8557143   4.4981956  40.6251259  61.5596313
   5.1509962  41.0980377  61.0434532   4.9513273  40.4024658  62.3728523
  47.1641197   1.0073054  61.5500793  47.0688820   1.8867389  61.9158096
  47.8362236   1.1001896  60.8748932  42.8120956  64.7137985  25.6291733
  41.9689827  64.2605896  25.6316376  42.8970261  65.0664749  26.5149708
  62.3019867  69.7032242  54.5935974  62.0589600  69.9872894  53.7124214
  63.1782227  70.0641327  54.7284584  82.9615936  70.6277847  58.7924843
  83.7690659  70.3006668  59.1889801  82.5051956  69.8409119  58.4945526
  45.6457520  46.5657310  28.0198803  46.3770752  46.9101944  28.5324593
  44.8843956  46.6663895  28.5912304  29.2970848  22.3941345  22.7332020
  29.4826069  22.8691177  21.9231377  28.3687344  22.1691570  22.6716881
   3.6355717  22.3494492  57.2742729   3.2646024  23.1017456  57.7354279
   3.5617406  22.5765057  56.3473282  83.2211990  49.0872078  55.5434914
  82.8103485  49.8102989  55.0696068  83.6392288  48.5609856  54.8618927
  78.4439468   2.7129409  57.4326859  78.3178177   1.8155317  57.1245003
  77.9258881   3.2477865  56.8312035  64.6607208  48.2642708  84.8056793
  64.2102356  48.8006516  85.4580536  63.9706078  47.9939804  84.1999435
  49.9566269  71.3632812  28.4937305  50.8752098  71.0948563  28.5132332
  49.8387756  71.7510681  27.6265697  78.9066620  58.2628975  27.2726612
  78.3828583  58.8395882  27.8287907  79.2327881  58.8330307  26.5763683
  80.3293381  51.6968918  85.1560516  80.0647049  51.7203255  84.2364578
  81.2315826  52.0165596  85.1538620  48.8991928  25.5041542  29.8547096
  49.4488373  26.2874126  29.8797340  48.7441635  25.2908440  30.7748718
  44.7924538   5.1157393   8.9384680  43.9292374   4.8885603   8.5928125
  44.6132164   5.5007248   9.7963104  84.7844391   4.3888817  20.2442265
  84.1631851   5.0267391  20.5955372  84.7170258   4.4869041  19.2944489
  27.0948200  58.0402222  16.6854591  27.0060673  58.9903946  16.7598419
  28.0397472  57.8887901  16.6651917  38.9973221  46.6209068  12.6864738
  39.3504982  45.8379021  12.2640991  38.8451729  47.2333221  11.9667320
  63.4654312  14.5875349   9.6356049  63.1855011  15.5026283   9.6138115
  62.9827652  14.2068281  10.3693142  73.7260513  66.7782516  33.6243172
  74.3130569  66.8865814  34.3725967  73.2854538  65.9436951  33.7843857
  12.3864756  66.8068466  22.9909019  13.0217676  66.5685654  22.3157291
  11.7992496  67.4272079  22.5589867  42.3097496  54.0822792  26.9013062
  42.3093834  54.5297852  27.7474556  41.3964157  53.8317146  26.7624836
  25.0940704  21.9930954  38.8434067  25.5734787  21.3211765  39.3280983
  25.7614994  22.4272404  38.3120995  72.6071014  70.9686813  80.7710266
  72.3149567  70.0970612  80.5042419  73.5457458  70.9744720  80.5835800
  44.8994637  36.0482826  42.1566429  44.7558174  36.2672424  41.2359619
  44.8074188  35.0962334  42.1935997  58.7947845  37.4693069  28.4893456
  58.7383347  37.1123924  29.3757172  59.0698738  36.7280960  27.9497490
  31.3349934   6.5534844   9.8837395  31.6819344   6.6949782  10.7645597
  32.1084213   6.3828359   9.3462296  33.9257622   9.4994621  42.9346542
  33.0451508   9.7395525  42.6463661  33.9027367   9.6024694  43.8860207
   3.0297554  54.5087662  25.6107769   3.5897417  55.1247444  26.0832386
   2.2552390  54.4152832  26.1654091  65.4261398  44.0766678  88.3307266
  65.9390182  44.8748932  88.4573059  65.2627411  44.0439262  87.3881454
  15.3276091  48.3627853  80.7907181  16.0137959  48.8864784  81.2043915
  15.0767384  47.7255020  81.4594193  79.0719757  16.5383892  49.0317192
  79.6652145  17.1154442  49.5126610  78.3111801  17.0856209  48.8368721
  10.4481478  71.2462540  19.1015854  11.2331352  71.5176849  18.6258221
  10.1536341  72.0390701  19.5498447  80.2663269  56.5291710  70.3722687
  80.2609787  57.4863510  70.3747177  80.2185135  56.2917595  69.4462128
  16.1673126  43.8110619  18.9851189  17.0643768  44.0892143  18.8003464
  16.1065044  43.8175011  19.9403629  38.1056023  70.0076981  61.3361435
  37.8041649  70.7855682  61.8054924  38.7463760  70.3404617  60.7077217
  83.7306213  47.0826263  15.0153780  83.5110092  46.2703247  15.4716339
  83.6764069  47.7588310  15.6906834   3.1432691  15.7052927  74.8419724
   2.6082838  15.2970181  75.5226593   2.5256221  15.9018564  74.1376266
  20.3525276  29.9645939   7.0425410  21.1993256  30.0759850   7.4746933
  20.0286751  30.8565140   6.9167166  19.1816730  41.4529419  12.3176403
  19.4551830  40.6388283  12.7402992  19.0193443  41.2071800  11.4068813
  76.4894562  25.0454597  70.0516129  75.6953964  25.5515938  69.8797684
  76.1720581  24.1707363  70.2760086  76.9598236  32.3685341  61.6797028
  76.3399353  32.2082939  62.3912468  77.7805710  32.5862122  62.1215477
   0.2457635  38.5924377  45.1933136   0.9742978  38.3231850  45.7527542
   0.3949325  39.5251236  45.0381432  63.0750885  71.4707794  71.6699219
  62.8941498  70.9985352  70.8572235  64.0018616  71.3045883  71.8422546
  42.2533379   2.1194770  67.9176102  42.6535759   2.2225728  67.0542374
  42.2492256   3.0026455  68.2866974   1.9796183  16.6075478  49.0798607
   1.1877258  16.4556637  48.5640411   2.3259413  15.7316713  49.2505455
  44.2720299   1.5494127  75.6870422  44.0693665   1.9786732  74.8558350
  44.3135948   0.6177086  75.4715576  10.1894989   7.7539687  33.8362198
  11.0731602   7.4414473  34.0303955  10.1752691   8.6523657  34.1662369
  75.6007080   8.2613668  16.9844837  76.4411392   7.8631101  17.2109776
  75.8164597   8.9128151  16.3171768  48.4693298  41.4609528  76.8201370
  47.5705490  41.4634285  77.1493988  48.5295715  40.6633987  76.2942886
  12.4783115  67.7140350  12.3799982  13.1340752  67.0689240  12.6446438
  12.3370504  68.2468491  13.1625481  62.2112122  21.8098660  56.2338676
  62.6484070  21.0282726  56.5718040  62.5707664  21.9239445  55.3541298
  63.3415565   0.8725426  62.8442841  64.2454376   0.5621520  62.8980560
  63.2962418   1.3341477  62.0069656  69.4564590  30.7415123  75.6692123
  69.6649704  29.9522476  76.1690292  68.5221176  30.6631622  75.4765930
  44.1078873  57.8379440  76.9361954  44.9405327  58.2942581  77.0574799
  43.8208618  58.0923538  76.0592041  80.8198700  48.7683830  85.2972870
  81.0763931  49.6905060  85.2867584  80.8127747  48.5112038  84.3753128
  27.7242680  24.1175156   9.7667780  27.9250603  24.7409267  10.4648275
  28.0416393  24.5407734   8.9690561  13.7557707   2.2027020   0.8389631
  14.2618380   2.5294254   0.0950686  13.5226412   2.9883282   1.3336085
  57.8763542  23.5616837  44.8766365  57.7156754  22.6431484  44.6605186
  57.4192162  24.0520039  44.1933823  63.8809853  61.2966690  51.2525940
  63.5268135  60.4152374  51.3703880  63.1476631  61.8051529  50.9063072
  75.7369919  26.7070236  80.0769958  76.4696121  26.7378845  79.4617310
  76.1108932  26.9962177  80.9093399  64.4324570  42.2541275  71.5614014
  65.0597916  42.9314499  71.3085938  64.6369095  42.0683441  72.4778671
  76.2768478   2.2436161  11.4331856  77.1717606   1.9596463  11.2468233
  76.2188721   2.2412047  12.3886251  46.5366096   1.0471170   9.9158678
  47.1470757   0.4101725   9.5445662  46.9287415   1.8977764   9.7187757
  26.6721420  49.6971626   4.2330747  25.7504902  49.8667641   4.4280767
  26.6549511  48.9780006   3.6016181  56.1392365  61.6447830  41.9939613
  55.4138756  61.7020569  41.3720207  56.0334587  60.7877998  42.4070282
  58.0751572  33.8517761  49.5691452  57.8329201  34.3121338  48.7656364
  57.2433891  33.6983109  50.0172997  47.4201584  26.1161232  38.0196114
  46.8552780  26.7319279  38.4864349  46.9002838  25.3148994  37.9563522
  63.1695213   1.5901947  65.6234818  64.0459518   1.8100607  65.9393311
  63.2724075   1.4980003  64.6763000   8.8966122  36.3633385   3.2723410
   8.9683924  36.2575531   4.2209663   9.6842175  36.8478813   3.0251005
   5.6976275  35.5942078  64.0656052   6.6288819  35.5047607  63.8631287
   5.6788154  36.0070801  64.9289780  10.9713993  46.1524696  18.3076916
  10.0692005  46.2728691  18.6039562  11.0761728  45.2035332  18.2385521
  74.3064728  70.8316498  21.4196548  74.2141418  70.8809433  20.4681950
  73.8344421  70.0359573  21.6651936  36.1440163  12.2259331  83.8056641
  36.2840729  13.1065559  84.1536865  37.0235710  11.9032269  83.6095047
  58.9031258  49.3096771  40.6711540  59.1434822  50.1712379  40.3303108
  58.1340904  49.0561829  40.1607094  82.6104431   1.7047932  41.9415665
  82.4756317   1.5478193  42.8761330  83.2586670   1.0508965  41.6799278
  37.6793861  47.4700890   1.2567388  36.9636307  47.6109009   1.8764941
  37.9854660  48.3508072   1.0402101  10.7426195  59.9660149  84.2371979
  10.6797075  60.7240105  83.6560593   9.8744926  59.5643539  84.2017746
  29.1647873  36.7954102  23.7439556  28.2716255  36.4555664  23.7987080
  29.4003239  36.9968948  24.6495819  79.7046356  64.6089172   6.1203957
  79.8167725  65.5594330   6.1340370  79.5810699  64.3955765   5.1954918
  46.3147202  42.4366150  42.2979240  46.1528511  42.1802826  41.3900032
  46.3192024  41.6112442  42.7826653  37.5711670  70.8048401  33.6051445
  38.0351639  70.2120209  33.0139580  36.6603050  70.7699890  33.3129921
  74.2896652  22.3456955  18.1727982  73.5404053  22.9025135  17.9611473
  74.6914062  22.1525707  17.3257236  20.9532433  52.8238411  72.9882202
  20.1629295  53.3569107  72.9017868  21.0527344  52.6941833  73.9313660
  67.8750839  42.2068977  88.8056641  67.5477295  42.5476456  89.6381073
  67.0875320  41.9529686  88.3245010  20.2453346  61.1941986  61.1517601
  20.3927650  60.9588623  62.0677910  21.1215534  61.3558807  60.8019981
  14.8165579  19.4337940  79.5098114  14.6122637  20.2865772  79.8935547
  14.1644793  19.3198681  78.8184052  79.3767548  47.2237892   6.7080750
  79.1573715  47.8576431   6.0251899  79.2029419  47.6856003   7.5282898
  79.4977036   5.6996741  32.9138794  79.7147217   4.8650794  32.4984474
  79.3805618   6.3073845  32.1836777  64.1439285  23.7804317  44.0579453
  64.4961624  23.6362305  43.1796684  64.6543655  23.1970291  44.6194801
  67.9747543  57.4398575  54.8693047  68.4384613  56.7102013  55.2801704
  68.2158508  58.2029762  55.3944283  70.4017258  48.7278709  70.3553085
  69.6237640  48.2246552  70.1149139  70.0695267  49.4295273  70.9152679
  35.7055664  47.6622887   3.0684872  34.9467087  48.2259674   2.9180396
  35.3403740  46.7793922   3.1264508  58.4045334  62.1814613   7.4092307
  58.5720215  62.0309334   6.4788976  57.8952637  62.9915962   7.4328947
   4.0694089  12.5310640   8.6064472   3.8441842  12.1584702   7.7539930
   3.6798372  13.4053411   8.5961847  62.7276840  38.8647003  50.4134560
  63.5902328  39.2074547  50.1794548  62.9008713  38.2420349  51.1195221
   5.6324544  34.4227943  73.3933258   6.2578778  34.7618637  74.0337219
   4.9729466  33.9701653  73.9190674  65.9393845  48.6815147  71.5905762
  66.2861633  47.7957802  71.6975861  66.4910660  49.0746422  70.9143143
  38.7935486  39.8638496  30.0078144  39.0615463  39.0214272  30.3748684
  38.3953171  39.6425171  29.1659985  41.6891518  46.8901901  75.1137161
  41.6351051  46.2035294  74.4490280  40.9704170  47.4857864  74.9017868
  55.1030197  26.9605331  44.1885643  55.5726242  26.4567471  44.8533211
  55.7814293  27.2322922  43.5703888  86.2844620   3.9868681  48.7909126
  87.2298508   3.8387992  48.7673683  86.1235962   4.6194510  48.0907745
  41.4079475   9.3568172   9.1429062  42.2012215   9.6490240   9.5918674
  40.8823586   8.9451628   9.8288546  86.3872604  59.4367409  25.8019218
  86.2446442  60.1383438  26.4372520  86.6260529  58.6772766  26.3333588
  50.4642334  47.3790550  45.7651443  51.1566277  46.7181778  45.7574615
  49.9073486  47.1511688  45.0207100  83.7118835  20.3575859  83.5804749
  83.6623840  21.0019836  82.8744049  84.6340714  20.1025276  83.6077499
  74.4999542  68.0177917  79.9511566  74.4375076  67.7133484  80.8564987
  73.5947723  68.1945190  79.6949234  46.1405258  14.6541348  67.1167145
  47.0549812  14.9270582  67.1909866  45.7612457  15.2585535  66.4787064
  81.7080078  10.9586525  10.8854046  81.2686996  10.7927361  10.0513124
  81.9661179  11.8793364  10.8411856  46.9159203   2.0987949  47.0921783
  47.5192146   1.4948452  47.5252075  46.7528381   1.7019787  46.2365074
  72.0809784  29.6330452  13.8896961  71.6131210  29.5838356  13.0560799
  71.9896011  28.7583790  14.2676363  24.5647602  56.5975990   8.7992830
  24.1232262  55.7486115   8.8215914  24.0278339  57.1615105   9.3560104
  71.3012543  64.2635117   4.9982710  71.8190765  63.5914383   4.5550890
  71.9462433  64.9045563   5.2970715  36.2744255  65.1256104  30.7510376
  36.7466240  64.5760651  31.3765450  36.7779121  65.0525436  29.9402390
  26.2735500  49.7439842  27.6476841  25.9385605  49.6354675  28.5377617
  25.7501926  50.4560966  27.2799587  84.5757751  51.2303848  87.1822891
  83.9351196  51.4491653  86.5055923  84.0658417  51.1919632  87.9914398
  87.1614685  40.0686455  77.5880356  86.8329544  39.2162781  77.8740158
  86.3732529  40.5804024  77.4062347  26.0734425  58.1435165  39.3019753
  26.4298153  57.2821350  39.0845985  26.6116772  58.7582016  38.8032799
  39.3148346  39.7839470  56.5855560  39.1544991  39.0961761  55.9394226
  38.4415131  40.0829239  56.8388443  59.0284882  39.9690208   7.1314702
  58.7897491  40.3460045   7.9782996  58.1917267  39.7415504   6.7261038
  71.1434250  56.4180908  79.1685410  70.2450790  56.7323494  79.2707520
  71.4752579  56.3460579  80.0634842   2.8998404  16.8547783  64.8068848
   1.9878348  16.5770016  64.7213440   3.2756565  16.2493954  65.4460297
  66.9640427  49.3614044  88.2792740  66.9687729  49.9445534  87.5202255
  66.4673996  49.8380394  88.9443970  42.0674515  14.5793219  21.9853134
  41.8376579  14.2190113  21.1288071  42.7649612  14.0077562  22.3062916
  24.0788975  44.1111755  25.7241211  23.7722816  43.3182716  25.2842045
  23.8405247  44.8223991  25.1295052  37.1502724  12.8397598   8.0722761
  37.4676666  13.6910172   8.3736973  37.8880043  12.2460051   8.2117052
  19.6459751  56.1421318  76.7312393  18.7692566  55.7835312  76.5933838
  20.2354431  55.4768333  76.3760834  64.4301834  41.2636070  56.1641655
  63.7434464  41.8385963  56.5018234  64.3594818  41.3392487  55.2125816
  84.3952789  21.6802177  67.7384415  84.3255386  22.1836185  68.5495834
  84.9680328  20.9461651  67.9606018  21.3355179  51.5508461  88.8495407
  20.5676136  51.0561142  88.5635529  21.4694271  51.2811584  89.7581558
  28.9532394   7.7480049  29.1871548  29.1144333   7.4212532  28.3020096
  29.8260612   7.8594794  29.5639648  63.8753128  65.4068375  62.6073875
  63.1072235  65.2047653  63.1416473  64.2916107  66.1432495  63.0552902
  47.4621353  70.7791443  73.7697678  47.2434845  71.3636093  74.4955978
  46.8063126  70.0834885  73.8165054  52.7887383   0.5347221  24.7410030
  53.6886520   0.4797404  24.4195023  52.2687073   0.7384487  23.9636383
  62.3024368  21.5629330  89.1457520  61.8679047  22.3297405  88.7723618
  63.0106430  21.3666344  88.5324478  55.7154770  65.3099670  88.6510773
  56.0243034  65.5843658  87.7876205  55.7598953  66.1034317  89.1846313
   3.0464401  65.4302444   3.9567647   3.7314980  65.6944122   4.5708847
   3.4571300  64.7561874   3.4152675  54.8164177  32.2116623  33.2886124
  54.5976219  32.8500443  32.6097641  54.8191833  31.3695641  32.8335381
  27.2618065  63.6221313  51.6140823  28.0006943  63.8118362  51.0359077
  27.1369267  64.4279327  52.1154060  30.8494282   1.9917130  13.0377007
  31.0632553   2.3393753  13.9035187  30.8015766   1.0442467  13.1651754
  45.3284874  48.8879242  19.4078979  44.4949837  48.4526367  19.5868530
  45.1632652  49.8106384  19.6016388  73.9561539  27.8485050  53.9465370
  74.1024017  27.4497147  53.0887451  74.7734680  27.7001038  54.4221458
  16.5179844   9.8324623  13.4069910  15.5871124   9.9292994  13.2061615
  16.6944180   8.9001112  13.2812004  32.6754684  46.0623932  45.9206276
  33.6147385  46.1720963  45.7724075  32.2639389  46.4577789  45.1521568
  56.5696106  67.9940338  64.7851715  57.0920715  68.7953568  64.7511673
  55.9677391  68.1313934  65.5166779  63.5551338  20.8920803  83.2339249
  62.8764267  20.8048000  82.5646133  63.1285515  20.6158218  84.0450592
  39.3428230  37.7735558  72.3661270  38.9127655  36.9194641  72.3236008
  40.2695122  37.5691338  72.4914017  44.8982086  34.1211777  73.0428543
  44.2166138  34.7864799  73.1379013  45.4272003  34.4239731  72.3048019
  53.0863113  41.1293869  36.6830254  53.4174614  41.7787132  37.3034630
  52.8518486  40.3768959  37.2261772  72.3211060  40.5676537  44.7023125
  72.8601761  40.9952965  44.0369148  72.2310181  39.6658516  44.3942947
  76.9305191   1.3350060  82.2402039  76.3022385   1.9846326  82.5556030
  77.7324600   1.8336501  82.0837402  11.8677702  49.7850609  77.3090973
  12.2633972  50.1172905  78.1149139  10.9420624  50.0169296  77.3834839
  79.5697784  54.8464432  65.2745209  80.0442657  55.5347214  65.7407455
  79.8295364  54.9540558  64.3595505  60.3667145   5.6409278  58.5341263
  59.6420860   5.2551274  59.0263748  60.0647087   5.6434922  57.6258202
  15.6229000  17.6683979  84.2747955  15.3437424  18.4202728  84.7972717
  15.6425219  17.9956875  83.3754959   8.4419117   0.3844022  66.8853836
   7.9949207  -0.4023184  67.1976318   7.8163347   1.0923483  67.0393219
  36.0596008  62.4696541  88.0808868  36.2148247  63.4118233  88.0141449
  35.1478043  62.3965149  88.3628540  82.6095734  60.2926521  73.1398697
  82.5333862  59.3456612  73.0230942  81.8323746  60.5351982  73.6432266
  71.2162323   6.6138110  87.9432373  72.1014633   6.9258323  87.7554932
  70.7857208   6.5863128  87.0887604  57.2596207   5.4640446  13.0395889
  57.7269287   6.2973742  13.0980368  57.3302307   5.0878010  13.9169073
  21.0664253  55.7480850  67.0927658  21.7171707  55.1665535  67.4859314
  20.6763363  56.2082558  67.8359375  67.7100296  21.7067547  46.7958183
  68.6399078  21.9160061  46.8840179  67.6829224  20.7510529  46.7496643
  -0.0146640  43.3696213  27.1355610   0.1632068  42.6408577  27.7301178
   0.7333400  43.3795700  26.5383816  11.9327192   7.0093975   7.1591144
  11.7712440   7.0120726   8.1025925  12.4973440   7.7679329   7.0106034
   0.5706488  51.5766258  16.0253201   0.7278886  50.7507133  15.5677481
   0.5282287  51.3337250  16.9502144  52.0809021   8.9321871  44.1786461
  51.9713631   8.6186543  43.2809105  51.6940231   9.8077135  44.1754532
  15.2355585  12.0007362  24.5269604  15.2979536  12.1693878  25.4671173
  15.9940128  12.4487209  24.1524086  83.8651962  53.9622078  61.5240593
  84.2398834  53.8742371  62.4004745  83.0501785  53.4615746  61.5606613
  46.5136948  27.0484867   1.7467318  46.0108910  26.9996109   2.5597706
  46.0485001  26.4701405   1.1422974  33.0012665  51.6226997  24.6395874
  32.3936234  50.8831329  24.6335888  32.5590134  52.2918205  25.1620083
  74.6588135  59.3255043   4.2178535  75.3435593  59.9675713   4.0304737
  74.3711472  59.5345802   5.1065397  69.8269119   1.1946758  84.7448959
  69.7638550   0.7089710  85.5672989  70.3341293   0.6237463  84.1678314
  66.2320175  69.8708420  68.3771896  65.3834229  69.7321167  67.9566345
  66.5453720  68.9895859  68.5807266  30.7191544   5.4964623  43.4010735
  31.2184105   6.0177627  42.7724113  29.9322033   5.2342668  42.9233780
  19.4342155  66.9625015  16.2140827  19.0679569  67.5611649  15.5631666
  19.5765305  66.1459885  15.7352486   7.2954865  36.4052048  17.3197784
   7.1163006  37.3262100  17.5091686   6.4932685  35.9482384  17.5724907
  69.3509750  58.8241653  84.8888779  69.5738144  57.9957199  85.3134460
  69.8311310  59.4854622  85.3872452  27.3058262  31.9728851  19.0349216
  27.5777054  31.1027164  18.7431717  27.7879848  32.1138153  19.8497200
  71.4998322  23.0431080   4.1902113  71.4806061  23.3537655   3.2850296
  71.5096436  23.8419590   4.7174435   1.1301957  34.6554260  20.8069706
   0.5733876  34.8333740  20.0489922   2.0231304  34.7553101  20.4769382
  36.8649254  21.0604649  84.5053787  36.2185974  20.8852215  83.8214340
  37.1624565  20.1936035  84.7815323  71.6376572  22.1578827  44.6373482
  72.4415207  22.5586662  44.9681091  71.7633896  22.1160126  43.6893654
  42.3334503  65.6752625   9.3619013  42.3097496  64.7413712   9.1532955
  41.4232216  65.9010315   9.5535936  46.9855385   2.7672617  16.8259449
  46.8711929   3.7140503  16.7437954  46.1921082   2.4678040  17.2698154
  76.9711838  20.5408421  10.5992622  77.1264877  19.6632023  10.9483471
  76.6280136  21.0369511  11.3424606  29.6016674  27.9980736  79.2638016
  28.7352333  27.7375050  79.5762558  30.1329613  28.0628777  80.0573807
   2.0622978   9.9344387  36.6549644   1.1963137   9.8858442  37.0598640
   2.5540004  10.5372295  37.2127304  83.5284424  27.7172356  70.4449692
  82.5861053  27.8830357  70.4723206  83.6195526  26.8062553  70.7243423
  16.9266777  11.6852150  69.8596573  16.6386738  11.8991623  68.9722366
  17.8813171  11.6494198  69.7995529  43.1886139   2.7764478   5.9496961
  44.0694504   2.6102009   5.6139603  43.2141571   3.6850812   6.2496371
  79.5192337  66.3738556  50.6222801  79.5561142  65.4371719  50.4286537
  80.4262009  66.6155243  50.8099823  43.4769402   4.8236418  57.1526718
  43.3571129   5.7306242  57.4341927  42.7803040   4.3407898  57.5973969
  28.0827904  63.5760040  34.3469467  28.0313072  63.6741219  33.3961830
  28.1181965  64.4731598  34.6787491  15.0951166  32.2814674  10.2239819
  15.3140621  33.1634941   9.9234428  15.4117451  31.7057629   9.5278912
  80.0415192   3.8266978  71.2327957  80.9955826   3.8416743  71.1568375
  79.8660202   3.1839392  71.9200287  53.5373650  36.2178841  23.2876740
  54.2480202  36.2062111  23.9288197  52.9068871  35.5774956  23.6172638
  39.2918091  12.3335533  67.2062531  39.7425194  13.0444670  66.7505264
  38.8520164  12.7610073  67.9411697   0.1878694  49.6802444  76.0760345
  -0.4817500  50.1008377  75.5366440   0.6251867  49.0699539  75.4822922
  58.1085663  54.0770836  21.2707939  59.0340347  54.2352524  21.4571476
  57.8118324  53.5179214  21.9887886  28.2110538  53.8691025  80.6567307
  28.0375156  54.3680878  79.8585205  27.3872814  53.4177551  80.8408966
  36.4277229  14.2375231  75.4326324  36.6174965  14.2598076  74.4946976
  35.8429909  14.9815941  75.5764313  33.5446587   6.6617618  61.4054375
  32.6653061   6.2866716  61.3576965  33.4123917   7.6001830  61.2708893
   7.8966646  62.4394722   4.3988309   8.6985569  62.9600449   4.3519144
   7.5010300  62.5303802   3.5319746  41.4010963  52.3772507  67.4868622
  41.7964897  51.5521393  67.2056351  42.1401062  52.9791832  67.5750275
  61.1991615  26.3665867  13.4513292  61.8476067  26.4892178  14.1446638
  61.1358833  25.4171104  13.3477793  31.0015583  25.4621639  83.6306610
  30.4499359  24.6799717  83.6196976  31.4918365  25.3980141  84.4502640
  78.8921738   8.9595079  83.8078232  78.2931366   9.0352058  84.5505600
  79.7040939   9.3645515  84.1127090  78.0628891  57.2882233  19.3240910
  78.7860336  57.9149208  19.3473263  77.2813950  57.8183708  19.4804268
  66.2237625  31.1303616  45.5356140  67.0978012  30.8886051  45.2292824
  65.6985245  31.1908092  44.7376747  76.8448563  27.3348885  82.4291077
  76.9631195  28.2836018  82.4759216  76.0609512  27.1651726  82.9515305
   3.6741199   3.7976956  38.1289253   3.3116002   4.6611991  37.9310036
   3.2195327   3.5239451  38.9255676  14.8316622   1.3178179  60.8202705
  14.3627090   2.1164916  61.0620041  15.6150103   1.3242373  61.3703232
  21.7801876  49.0713844  53.8327827  21.6605453  50.0138741  53.9495583
  22.1795368  48.7773857  54.6515121  60.8668861  19.1108170  73.8276138
  61.1679764  19.9573021  73.4973984  60.7837334  18.5646305  73.0459518
  81.9206238  27.6969795   3.0176840  82.6022415  27.1273441   2.6611145
  82.3271408  28.1085033   3.7803242  14.4170694  44.7419395  73.4396667
  15.1717262  44.2376022  73.7435989  13.8626804  44.8339233  74.2145386
  30.9720535  37.0648384  76.4347992  31.0246506  37.8758087  76.9405670
  30.1119614  37.0990448  76.0161057   1.1448271  32.5132637  46.6449699
   0.3298405  32.2674484  47.0826950   1.5497154  31.6792774  46.4067192
   2.0228620  67.7259674  67.3587799   1.0869403  67.9229965  67.3205643
   2.1216578  66.9302826  66.8359375  68.8800430  60.1036301  69.8568268
  68.4036407  59.5689659  69.2216873  69.7669907  59.7436790  69.8555222
  32.4751358  59.2040977  73.3248520  33.0203476  58.4302483  73.4667587
  31.8065319  59.1545792  74.0080414  47.5151672  30.1602077  50.3462715
  46.9730377  29.7358494  49.6812553  47.2542648  29.7452946  51.1684685
  18.8532543  46.8159828  64.0418625  18.6179619  47.1325836  63.1697197
  18.5967636  45.8937912  64.0391617  61.5244408  71.7982635  88.3500519
  62.2622490  72.2422638  88.7680664  61.8008385  70.8841705  88.2846680
  51.6261978  51.3797340  71.4477844  52.2805595  51.0388832  70.8379822
  50.7974510  51.3087845  70.9740982  37.8785286  68.3040924  31.2508755
  38.6539993  67.8513412  31.5823784  37.1419563  67.7835312  31.5713577
  62.0500374  59.5609741  28.5940018  62.7069969  60.2199249  28.3694611
  62.4490814  59.0568542  29.3031254  63.0758438  22.1180916  61.7927094
  62.7011719  21.2676926  61.5631981  63.2527771  22.5370464  60.9504509
  63.8060684  64.8535690  53.8764076  64.3415680  64.5316696  53.1512527
  62.9341698  64.9674072  53.4981689  50.1990929  52.2116890  18.2002735
  50.9800606  52.2892456  17.6522713  49.5283394  51.8626633  17.6133327
  64.3283463  56.5909042  64.2813187  64.4036789  55.6476784  64.4258499
  63.4184723  56.7944832  64.4979019  38.5090904  15.3350439   8.3901320
  38.3145676  15.3144913   9.3271332  39.4535751  15.4837837   8.3447962
  29.2067242  23.0696678  14.3159094  29.5655270  22.5294247  13.6118994
  28.8385315  23.8318672  13.8690119  69.5889664  48.4691010  14.5945492
  68.6442490  48.5927582  14.5026083  69.6889267  47.9906960  15.4175749
  19.3921337   5.9439635  75.1037827  18.4730625   6.0132098  74.8454285
  19.8677120   5.8613629  74.2771988  82.9639435  56.6847343  54.5158806
  82.6503220  56.3107605  53.6924629  82.7139206  57.6075821  54.4703979
  11.4318876  18.5625820  22.6540985  12.2897730  18.7960892  23.0086956
  10.9372759  18.2484875  23.4110222   5.6832585  51.9724808   8.8855581
   6.2146864  52.4568825   8.2537584   6.2640939  51.8389015   9.6345701
  21.6482506  55.0795135  11.4878149  21.8124924  54.1624832  11.7076111
  21.4622116  55.0711555  10.5489054  41.6498985  28.5688419  25.6022339
  41.2037582  27.7220402  25.6131821  40.9490128  29.2103424  25.7182846
  61.5724411  61.1289558  48.6103592  61.7088432  60.3015099  49.0718346
  61.8703041  60.9569435  47.7170944  83.4270706  53.8731575  74.6702728
  82.4754562  53.8622589  74.5675888  83.7542496  54.2079811  73.8353577
   6.1292076  14.8236475  13.9684505   5.4704165  14.1438665  14.1103106
   6.9036183  14.3477764  13.6683388  39.3004646  34.0219917  78.1703339
  39.4045029  34.0105362  79.1217880  38.5098839  33.5068359  78.0096207
  81.3651352  59.1260376  46.6986237  82.0747910  59.1734123  47.3392334
  81.8055191  59.1682358  45.8497887   7.7148895   4.5027714   1.6758236
   7.8087606   4.1325502   2.5535231   7.9431720   5.4265132   1.7798444
  71.0828781  57.9410973  52.8761673  71.2304459  58.8839455  52.9502831
  70.1381912  57.8559074  52.7475624  18.3096600  54.5817604  29.8482952
  19.1329842  55.0696640  29.8303490  18.0215969  54.6314964  30.7597656
  73.7415466  54.2754669  24.3633881  72.9571838  53.7379341  24.4731941
  74.1000595  54.3593330  25.2469444  31.1822968  44.8456535  69.1139069
  31.8462734  44.9696617  69.7921371  30.7433777  45.6939240  69.0504761
  21.3433399  50.4416962  66.1802750  21.0804539  50.9496574  66.9477997
  20.6224461  49.8275490  66.0411072  45.4301376  12.1760759  67.7575912
  44.5008507  12.3787642  67.8651581  45.8564987  13.0310459  67.6986313
   8.4059687  41.3841324  87.7689590   8.2600203  42.1225891  88.3602448
   8.7789774  41.7786217  86.9806213   7.4927802  15.6286077  76.3861694
   6.6662955  15.7703381  76.8477631   8.0279169  15.1274366  77.0015411
  69.4143372  11.5409660   2.9512115  68.8153381  12.1833286   3.3317347
  69.2823334  11.6205912   2.0065076   0.9877676  59.2502899  80.2576828
   1.7643260  58.7256393  80.4524384   1.2566154  59.8167152  79.5344162
  20.1180573   3.2691817  28.5531807  19.1645126   3.2214355  28.6217785
  20.4359188   2.6114380  29.1717033  76.2765045  23.3875637   1.3426436
  76.2669067  22.9876442   2.2122438  76.0853500  24.3118534   1.5019652
  64.2180557  19.8955193  57.1893845  64.8620529  19.2628708  56.8711815
  64.7189026  20.7000542  57.3239403  45.0857658   7.7818050   6.3436866
  45.6675453   7.6112633   7.0844154  45.6092873   7.5633240   5.5726972
  45.3677025  67.1523132  27.2414932  45.2678223  67.8360901  27.9038391
  45.4305229  66.3398132  27.7436199  66.8544388   8.7180891  53.4192810
  66.0229950   8.2510061  53.5015717  66.6264725   9.6381655  53.5524139
  46.7500114  28.4518795  23.0671616  47.1420212  29.0672245  23.6867676
  45.8316345  28.3980942  23.3316002  13.5341587  64.2485275  34.5209312
  13.8560696  64.9511032  33.9561424  13.7042303  63.4467812  34.0264473
  39.2359047  55.3516808  80.4644089  38.9510536  54.5733566  80.9432678
  38.4869728  55.9462852  80.5065842  50.2334137  30.5334415  64.4699707
  49.7784615  31.2698116  64.8786392  49.5354767  30.0080109  64.0787582
   4.1514664  38.0995178  29.3820724   3.4603240  38.7010345  29.1050701
   4.3042684  37.5424614  28.6188087  13.3229790  57.3047218   8.0077496
  14.0374403  57.1264496   8.6193008  12.6312323  57.6822472   8.5510683
  16.3471794  49.3983498   2.6194232  17.2364273  49.6846771   2.8279603
  15.8147211  50.1892014   2.7047019  47.7934227   7.9614720  86.7788925
  47.6042595   8.0252981  85.8427429  47.2277184   7.2547345  87.0899124
  80.0805435  63.1285744  22.3240547  80.2020798  63.3574333  23.2455120
  79.1524048  62.9055214  22.2530689  56.5024414  35.2737122  23.6743546
  56.3286362  35.4164696  22.7439556  57.3158455  35.7496834  23.8418484
  85.8739319  23.5352058  75.8765869  86.7107086  23.9669418  75.7044296
  85.5576477  23.2724953  75.0121918  41.9984245  35.3110161   9.0052662
  41.4643440  35.0246735   8.2643223  42.8991127  35.2595100   8.6853628
  21.2670002  19.3230572  82.1005936  21.2640343  19.2568283  81.1456909
  21.1380634  20.2550907  82.2764359  59.6044846  25.1918297  77.4017258
  59.6081200  24.2519073  77.5827332  59.3903694  25.5967751  78.2422104
  54.6729469  53.1471024   5.7252393  53.7649765  53.1923332   5.4256134
  55.1495056  52.7645340   4.9885130  64.4993668  35.1918068  17.0312080
  64.3129959  35.9608841  17.5697441  65.1058273  35.5091972  16.3621044
  19.5494099  25.3235130  14.6614485  19.8999023  25.0708370  15.5155802
  19.0596199  26.1280289  14.8320179  66.2246552  37.4930344  24.5957565
  66.0349197  38.3897247  24.8717651  66.6478271  37.0930519  25.3554764
  30.1102486  22.4718380  18.2062798  30.4875679  21.9726238  18.9306049
  30.6579971  23.2543297  18.1437302  65.0770416  33.5162354  35.0710869
  64.2001038  33.3650169  34.7184677  65.5825424  33.8397102  34.3253860
  54.6033478  42.4139709  76.9412308  54.1312408  43.1233253  77.3773041
  54.2363663  41.6145210  77.3186417  25.4410973  33.8374023   8.1939135
  25.2049484  34.7629776   8.1324453  25.1435108  33.4588394   7.3666496
  27.3369560  60.7563362  59.5929718  28.2257042  60.4008751  59.5953560
  27.3424320  61.4103012  58.8940239  48.8934174  65.5789490  55.9700050
  49.1477928  64.6823120  56.1880875  47.9641800  65.5172119  55.7487755
   3.4823744  36.7320976  23.1164742   3.5518222  37.3885384  23.8096485
   3.5460622  35.8934784  23.5735283   9.1072598  59.6228180  66.9684143
   8.8482790  58.7628899  66.6372223   8.2799768  60.0669670  67.1543274
  58.6515503  58.4514503   3.1477191  59.0001602  58.8718224   2.3615947
  59.3729057  57.9113083   3.4704063  74.2516937  52.9399605  32.8343163
  74.8294601  52.3503799  33.3188896  73.3705215  52.6104164  33.0108719
  51.6648407  28.6646461   4.4342742  51.3829880  29.5695877   4.5679626
  52.5610390  28.6408825   4.7696767  38.0600357  12.1093435  74.7042542
  38.0542107  11.4578514  75.4055099  37.4497871  12.7849302  74.9999084
   8.5237226  15.7116632  21.5578232   8.9446468  15.7416840  22.4169807
   7.8029151  15.0911732  21.6658039  86.9651718  23.1284943  40.5820274
  86.4669418  22.4036980  40.9597473  86.3449554  23.8570786  40.5550385
  77.1558838  12.2517128  83.0074387  76.7720337  13.1171246  82.8661728
  78.0071945  12.4296532  83.4072418  45.5093956  42.6918869  37.5368042
  45.3702202  43.6353416  37.4546432  45.7789726  42.4124603  36.6618843
  35.6710548  23.4140759   2.5751011  36.0636101  23.4692917   3.4463558
  35.0810051  24.1664391   2.5301385  75.3527222  28.3517723  58.8041611
  74.9894485  29.2170525  58.9927292  74.8664627  28.0498695  58.0369339
  43.0045624  46.5923996  51.0185738  42.5402222  45.9048119  50.5412483
  43.9031525  46.2701836  51.0888824  55.3701057  41.1878471  39.0172005
  56.1897316  41.6025391  38.7479897  54.7131996  41.8790054  38.9334679
  47.6007423  53.1845665  71.9439011  46.9458466  53.8151817  71.6444626
  47.0889282  52.4641151  72.3116379  50.6309700  47.9289589  12.4913502
  51.1850777  48.6869049  12.6776800  50.7971687  47.3267021  13.2165384
  74.6482849  44.9578362  35.1760368  75.1782532  45.2045059  34.4180603
  74.8039017  44.0193214  35.2818832  30.7310581  50.6735687  47.2180328
  31.0389481  51.5538063  47.4339485  31.2648430  50.4102974  46.4683685
  55.7914391  56.2469635  26.9314308  56.3603973  56.6342812  26.2662239
  54.9135628  56.5527611  26.7032700  42.5656738  48.8431015  33.0257912
  42.0591202  48.2725677  33.6038284  42.5714684  48.3871269  32.1841927
  27.4661732  56.2490730  54.6660080  27.9148197  55.9504395  53.8749542
  27.6203461  55.5539055  55.3057022  66.2254562  62.5661316  47.2738647
  66.7312317  62.1811981  46.5581474  66.1854630  61.8767319  47.9367065
  78.4811478  29.1986237  65.7647629  78.4831772  30.1296482  65.9870605
  79.3409271  29.0439301  65.3734894  16.4281292  11.5307417  81.3885651
  16.7771835  11.1237965  82.1815262  16.4893513  12.4713345  81.5551987
  87.1693039  10.9585056  28.3965244  86.4647827  11.2092867  28.9940166
  86.7949371  11.0735521  27.5231133  47.0606346  45.7785797  47.5605698
  47.3869896  45.9642334  48.4410591  46.3181190  46.3724823  47.4501801
  55.5107841  38.6222038  38.1020164  55.3077774  39.4820099  38.4704628
  55.5421333  38.0382347  38.8597946  85.6043854   2.5195503  11.5768070
  85.6030731   1.6596549  11.9972944  85.4325943   3.1349547  12.2895460
  82.3543167   4.9555511  30.8217106  82.1699905   5.6334667  30.1715660
  82.6613998   4.2083931  30.3082047  69.1876907  58.5288010  19.9453201
  69.1953735  58.8876762  20.8326664  70.0978012  58.5886269  19.6548843
  30.7466507  61.7427788  27.3184128  30.5305767  62.1679802  26.4885063
  29.9378033  61.3026772  27.5797691  82.7017365  16.1754589  56.3250809
  83.0193558  15.7181425  55.5464859  83.4869919  16.5614986  56.7131233
  81.9034042  71.7582932  65.3215256  82.7320099  72.0471954  64.9392014
  82.1588821  71.1516418  66.0164642  18.6859283  53.5536613  18.7849331
  18.1780586  53.1603508  19.4945850  18.6361237  52.9159813  18.0728111
  73.1735001   5.4698586  31.0971546  72.7423859   5.2725477  31.9286804
  73.9687424   5.9411392  31.3455791  31.4789581  31.8035049  87.5192413
  30.8931370  31.1447945  87.8922653  31.1270485  31.9692421  86.6446381
  52.0314369  28.5761776  17.5256233  51.0950432  28.4929218  17.7058010
  52.3159523  27.6855946  17.3203335  39.2273331  67.3822708  79.6744461
  40.1015472  67.7653885  79.7465210  39.0405006  67.3867874  78.7356644
  70.8684998   8.2610369   5.9913111  70.6036606   7.3933573   5.6859884
  71.7937851   8.3259983   5.7549677  57.0970612   7.1992211  49.9161110
  57.9874458   7.2265987  50.2663994  56.8504944   8.1187382  49.8164902
  35.3243637  67.2303314  77.3875885  35.0764046  66.3787231  77.7474747
  36.2773552  67.1885376  77.3082581  28.0372543  45.3244095  71.3488846
  27.2636509  45.7744217  71.6883850  28.7517948  45.6161728  71.9150391
   6.9583740  47.3402367  50.6272964   7.6993356  46.8567429  50.2620010
   7.2637267  48.2461586  50.6752243  48.1182899   5.3622231   2.3241987
  47.5202370   4.8216729   1.8080881  48.6323280   5.8394947   1.6728852
  22.2218781  45.5637436  54.0410728  22.7328949  45.7602730  54.8262291
  22.0401115  44.6259460  54.1021194  23.2469425   5.5662770  77.8117447
  23.6737003   5.1967998  78.5847931  23.8044357   5.3005743  77.0804214
  43.3182526   5.5790772   1.3822483  43.3884697   4.6626663   1.6496298
  43.3276482   6.0697513   2.2040648  72.5233765  13.7959080  72.0778580
  71.8285446  13.4574699  71.5131378  72.2533417  13.5509195  72.9628983
  80.4989471  41.4385414  59.9042358  79.6416473  41.2261772  59.5352097
  81.0015945  41.7767334  59.1631546  33.0662575  58.0890350   0.1640243
  33.6051331  58.6056557   0.7631443  33.6086349  57.3306351  -0.0525124
  80.3632202  60.6876450  43.6482162  81.0511551  60.0512543  43.8431091
  80.5784988  61.4466209  44.1902885  43.3546410  71.3434372  13.6429930
  43.2473831  70.9753036  12.7659502  42.7448883  72.0808258  13.6694517
  25.8836040  65.0348511  12.5843658  25.1832924  64.6251831  13.0922670
  25.9309196  65.9299545  12.9202099  35.1147385  36.3262177  74.6408844
  35.0215607  37.2206154  74.3128586  35.3489075  35.8111267  73.8688202
  27.0668068   2.8812599  65.2446899  27.2815208   2.9035857  66.1772308
  27.2845840   3.7578061  64.9277191   9.9218092  12.2330484  26.3907280
   9.2159061  11.6653156  26.0815144  10.7233229  11.7504778  26.1884079
  16.7227459  53.7122917  60.8270569  16.1803055  53.0112190  61.1882820
  16.8339996  54.3269348  61.5523605  11.8049574   2.6888866  28.8391495
  12.6346016   3.1147718  28.6234074  11.2234306   3.4081850  29.0854588
  56.8369141  42.3213348  53.7799644  57.2817688  41.4741974  53.7536430
  56.6427231  42.5184593  52.8636322  33.5749016  37.3473053   9.5744305
  34.2210159  38.0382347   9.7206631  32.7314644  37.7993126   9.5976324
  85.3231888  61.1419792  31.3900547  85.3296204  61.9301224  31.9332161
  85.1843185  61.4656258  30.4999981   1.6963469  55.8870354  22.3135948
   1.0431794  55.2910957  22.6802826   1.7226435  56.6207924  22.9277134
  25.5403900  45.3289337  35.8359642  25.2788296  46.1800728  35.4847107
  24.7325783  44.8155479  35.8461838  71.4119263  31.1917934  56.2138596
  71.7810593  31.0522461  57.0859261  72.0946121  30.8913746  55.6139221
  83.8457794  70.8459473  38.4331589  84.7499847  70.9926147  38.7109070
  83.6184158  71.6302643  37.9337654  84.4868011  53.5441742  66.6897812
  85.3484879  53.1277885  66.6708832  84.6632004  54.4479599  66.9510880
  12.8188171  50.0360107  47.1068611  12.2203522  49.2889748  47.1032677
  13.6349497  49.6908226  46.7449150  74.6827011  30.0735130  70.0937271
  75.2710571  30.4732208  69.4531784  74.7168579  29.1370277  69.8986359
   7.2146797  66.4064865  32.7430115   6.4297256  66.8172836  32.3806267
   7.7874284  66.2761002  31.9872417  49.3097916  60.6063538  24.8048611
  49.8701248  61.3798027  24.7413597  49.1352310  60.3617859  23.8960438
   9.5153189   5.8190994  20.1879940  10.4448996   5.5909858  20.1792812
   9.1014843   5.1589541  19.6319542   4.3906565  40.9125252  41.8591232
   3.5604515  40.7392120  42.3029175   4.1873975  40.8244667  40.9279060
  53.1409302  44.2376862   6.8023119  53.1069145  43.5515251   7.4688396
  52.5535049  44.9188805   7.1296263  27.1111736  52.9013939  47.5675468
  27.3142834  52.0711670  47.1366158  27.7134476  53.5307846  47.1708527
  45.8363647  32.6403389  27.2889328  46.0862198  33.5643463  27.2843189
  45.3088074  32.5309258  26.4977684  65.4369278  17.1052437  70.6078110
  65.6579132  17.4003086  69.7244415  66.2629776  17.1509266  71.0892487
  80.1363220  20.9812927  85.1343994  80.9539185  20.9906139  85.6320648
  79.7401657  20.1346226  85.3404160  49.1547203  42.3271751  48.5350380
  50.0711250  42.0650749  48.6229744  48.9690514  42.8207283  49.3338928
  63.0504150  67.5682144  16.8622074  63.5100441  68.3893280  17.0375462
  62.5306702  67.4115906  17.6506004  46.3207550  20.6812878  24.1301270
  46.4615059  21.2459888  24.8900852  45.3689308  20.6304092  24.0425415
  50.7213860  52.3416138  11.2303019  51.2117157  52.1344604  10.4347544
  49.8375473  52.0168304  11.0583029   9.5951099  57.3513336  38.6536217
   9.9194460  56.6921730  38.0399857   9.3691282  56.8553925  39.4405212
  68.6020279   1.6283332  18.8038521  69.1363220   2.3014886  19.2253036
  69.1899719   1.2182382  18.1695213  30.6115589  32.3157730  84.9775467
  29.9496098  31.6912098  84.6809387  30.3287525  33.1550446  84.6144104
  71.7442856  62.8812599  19.1611385  71.5551529  62.4322891  19.9850845
  72.6706924  62.7034798  18.9986706  85.3953629  46.1661606  19.0968971
  84.5727844  45.7720566  19.3872032  85.8153687  45.4846725  18.5721073
  41.9420586  44.8179855  49.3523788  41.1810188  44.3223648  49.0500412
  42.6734085  44.4678688  48.8436775   7.0793257  15.2251635  24.1812572
   6.7092743  16.0838127  23.9762821   6.3922706  14.6042490  23.9390736
  58.8031921   1.3724866  75.3524628  58.1725082   1.8217825  75.9151382
  59.6454086   1.4963058  75.7901535  72.9387207  57.9243622  71.7306442
  73.0970383  57.8360214  70.7907715  72.4738235  58.7565079  71.8180466
  78.8904037  22.4531212   0.9270523  79.3774033  22.3640060   1.7462713
  78.1996536  23.0850163   1.1265668  58.9920807  33.6785736  21.3826103
  58.1105385  33.4446793  21.0920753  59.5736122  33.1803169  20.8083344
  78.0071259  49.7986107  57.0133247  77.8495255  50.4714394  56.3509865
  78.8807144  49.4635849  56.8112679  26.2010651   9.1546879   7.2550097
  26.1785393   9.4472218   8.1661348  25.2826080   9.1383324   6.9859314
  31.3118172  65.7152252  12.1999483  31.9626484  65.3672943  12.8095341
  31.6686325  66.5597839  11.9249458  61.9416542  30.9788265  69.1574707
  62.1042404  31.8167248  68.7241974  62.5038261  30.3571110  68.6952286
  71.1521683  27.7314625  84.9813004  70.3842545  27.1839886  84.8175583
  70.9908371  28.1192703  85.8414154  67.6905746  65.3298035  79.2982483
  66.9699707  65.1936569  78.6830902  67.7662659  66.2811737  79.3717041
  67.0420303  19.0497894   7.1552944  66.3474274  19.5329723   7.6028371
  67.0970459  18.2182407   7.6261821  55.1479187  20.5138607  44.5746574
  54.9381065  20.4531651  45.5066032  56.1045227  20.5302715  44.5450897
  20.9367867  28.8272400  85.9436798  20.4628201  28.0224075  85.7343216
  20.7414837  29.4166126  85.2151718   9.2173014  15.2555199   4.4517255
   8.6076622  14.5176601   4.4401331   9.0749874  15.6969681   3.6144068
  71.5381851   1.5483016   0.5125163  71.9941025   0.9121941   1.0636425
  71.1614075   1.0254662  -0.1952351  23.7464771  21.7185059  20.6454792
  23.3700752  22.5484657  20.3526993  24.0484829  21.2956581  19.8415985
  28.5073643  54.2725143  83.8468323  29.1151123  53.5942917  83.5520706
  29.0677795  54.9427795  84.2378693  18.7012768  44.9349213  25.2720737
  18.4104652  45.5944824  25.9018650  18.8076134  44.1380806  25.7916565
  50.1356506   7.8932137  77.5431366  49.7067261   7.5990658  78.3467102
  50.9735222   8.2514362  77.8361893   4.5586448  34.2523651  70.7307510
   3.6210403  34.1122665  70.5984497   4.6119752  34.7783737  71.5286865
  37.2967529  57.4851646  20.7603016  37.8482170  57.4499969  19.9787121
  37.7440262  56.9247513  21.3944263  23.3160267  47.2211761  40.8469696
  22.8586292  47.5375099  41.6260376  23.1731339  46.2747231  40.8530998
  18.9694653  21.1863804  33.1145859  19.1963463  20.9534931  32.2142982
  19.1986847  20.4113789  33.6274834  60.7043495  57.1511612  11.2103167
  60.0682602  56.5934334  11.6581573  61.4842720  56.6030540  11.1235590
  79.2028275  52.5807495  47.9758835  78.3337479  52.6572227  47.5820694
  79.0910568  52.9083328  48.8683128  60.0156479  69.2384415  70.8883286
  59.9944992  70.0609589  71.3774567  59.3963432  68.6708908  71.3472214
  10.9254160  69.0631943  66.4316940  11.1982746  68.1865387  66.1610413
  10.5594568  69.4555435  65.6389999  59.2952766  32.8320465  81.6925735
  59.5975838  32.9007149  80.7869644  59.5895004  31.9671879  81.9783707
  19.3657722  56.9880257  79.5190582  19.1387424  56.5092125  78.7219238
  19.1730556  56.3758736  80.2292480  57.9595718  59.1327019  16.1976070
  58.0453949  58.5924911  16.9831238  57.7475624  60.0053139  16.5290165
  86.1321487  67.0947800  66.9370117  86.6518402  66.2975540  67.0399170
  85.6107330  66.9407578  66.1492004  10.8647470  21.7022057  81.3227463
  10.8233786  21.9731903  80.4056396  11.7917337  21.5203285  81.4771729
  32.1327095  52.4266815  18.4913177  32.8732681  51.8886337  18.2114887
  32.2555962  52.5312157  19.4348240  32.0050545  14.8809366   1.1617274
  32.8444023  14.5669909   1.4981347  31.4049816  14.1466913   1.2922119
  64.7436905  54.0418510  12.7347088  65.2685623  54.4639893  12.0546064
  64.2479019  54.7571564  13.1331635  28.6637764  51.3290367  15.3021622
  28.7201805  52.1467972  14.8078785  29.0854797  51.5252647  16.1387577
  84.0563660   5.3319817  17.6334286  83.5893097   6.1494560  17.8061390
  84.6428833   5.5402727  16.9062119  51.2777252  25.3597889  23.8670959
  50.3870049  25.7102528  23.8719196  51.7945900  26.0127640  24.3390141
   6.9203825  54.8660393   2.6540747   6.1653032  55.2299004   2.1918077
   7.2211185  55.5778008   3.2190394   5.2179770  30.5815964  74.3441620
   5.0966082  30.9571533  73.4721222   4.3437557  30.5933933  74.7338181
  78.5950623  67.9563370   4.4037256  79.4755783  67.6470871   4.6165395
  78.1610184  68.0457077   5.2521653  39.9838409  57.5188217  72.5117569
  39.7576218  56.8951569  73.2017593  40.7833023  57.1651154  72.1219025
  48.4500923  47.0171928  57.7252312  49.2069016  46.7327499  57.2128181
  48.5455055  46.5660095  58.5640144   9.8947277  36.8409042   5.8872509
  10.2698154  36.1602249   6.4460158  10.1947145  37.6624069   6.2763181
  14.4583292  43.1990547  81.9553070  15.4066944  43.0852242  81.8930283
  14.3333502  43.7485352  82.7290497  54.5078506   1.8559512  55.4347229
  55.2254677   1.3865196  55.8600388  53.8070183   1.2079436  55.3629456
  84.7483368  29.0531063  33.6204910  84.9270477  29.8712502  33.1568832
  85.0501022  29.2136192  34.5145874   0.2002113  45.1447525  80.3707809
   0.9628016  44.9819031  79.8156509   0.3373438  46.0280952  80.7130203
  41.1253357  53.8873062   5.0574632  40.4293022  53.2653885   5.2695756
  40.7106972  54.7465248   5.1352324  62.0755882  64.4419937  45.0163689
  62.6330643  64.3419647  44.2447166  61.4619408  63.7091599  44.9651413
  11.5965996  17.2348461   4.6383057  12.3332357  16.7101784   4.3247399
  10.8490944  16.9295311   4.1242533  26.5036583  16.2219219  17.1918449
  26.8267937  17.0582066  16.8565216  25.5513859  16.2868252  17.1197491
  36.5223999  31.5735970  88.4249802  37.3110085  32.1132164  88.4810028
  36.7962608  30.7150211  88.7475967  58.9941483  45.8184776   8.9564676
  58.5905266  45.6023140   8.1158752  58.7234077  45.1106682   9.5412216
  20.1852989   1.9851512  12.6587181  19.7409191   1.2088933  12.9995718
  19.7017193   2.7216189  13.0328798  50.6432991  25.5850449  62.9102211
  51.5507393  25.5705223  63.2144737  50.5354195  24.7588749  62.4390182
  52.6461830  41.8200340  63.8853760  53.2652359  41.1053734  64.0345917
  52.0180244  41.4653435  63.2562141  75.8044434  61.6428833  86.2695618
  75.5637512  62.4994888  86.6224442  75.6253815  61.0308533  86.9834137
   6.1788058  40.2606697  71.4758530   5.7870708  41.0306702  71.8880157
   6.2937102  40.5119476  70.5593948   4.1054616  15.9945202   3.6908102
   3.5348222  16.5887070   4.1781964   3.5928395  15.7478018   2.9210176
  79.1002960  57.0204582  67.7540359  78.4759521  56.6975784  67.1042786
  79.7830048  57.4490891  67.2378769  48.8990784   6.3624463  79.8361893
  48.0208778   6.3187551  80.2144547  49.4766197   6.5006413  80.5869064
  23.8835373   7.6502852  52.8815346  23.5421963   7.6169291  53.7751808
  23.8945599   8.5823717  52.6639900  27.6651840  36.2922974  28.0319576
  26.7594490  36.4857483  27.7901859  27.6179981  36.0380783  28.9535751
  47.7386169  43.3887062  46.3603935  47.6297760  44.2709770  46.7153282
  48.1851425  42.9045181  47.0549507  34.7242508  68.5223694  55.0245895
  33.8586655  68.9031906  54.8763466  34.6199265  67.5970078  54.8031044
  44.1025620  12.8224478  76.3637543  44.1500816  11.9114161  76.6535721
  44.6565971  12.8548975  75.5838623  60.3839111  47.5497322  42.7906075
  60.0180321  48.1568375  42.1473465  60.9090424  46.9397087  42.2725868
  31.4045830  49.2472610  37.1492920  31.2044487  49.3947983  36.2249489
  31.2298775  50.0893364  37.5695496  66.4842758  71.4976730  78.0731735
  65.7910309  72.1552658  78.0165253  66.2897491  71.0130768  78.8753967
  43.1382027  51.3384590  48.2095604  43.3786850  52.1740456  48.6097984
  43.0252800  50.7420692  48.9496994  34.1001816  65.0757751  35.2680588
  34.6331673  65.7607346  35.6717796  33.6769943  64.6358109  36.0053329
  71.2774429  43.3607712  18.2365093  71.2519150  42.7551804  17.4956722
  70.4069061  43.2957115  18.6291485  57.5187263  24.7979984  11.0479650
  56.8799973  25.3585835  10.6075134  58.0307312  24.4134159  10.3365021
  66.4560547  22.8424683  52.5558968  65.6633987  23.0349884  52.0550423
  66.4384460  21.8930702  52.6765785  84.5210190   3.1906872  36.8641891
  84.0741730   2.3627980  36.6876831  84.2108612   3.4500399  37.7318115
  40.1103783  24.6264191  88.5488510  39.4386024  24.9758434  89.1343842
  39.6509819  24.4695168  87.7238846  17.0797405  71.4756012  35.7274895
  17.2200165  71.4007111  36.6713905  17.9602165  71.4584427  35.3523903
  45.4279823   7.5097566  21.6484928  45.5023918   7.8541880  22.5384712
  46.0551224   6.7872586  21.6180706  24.1877651  49.0483704  15.9282017
  24.6898308  48.3630104  16.3691578  24.8504486  49.6067619  15.5216513
  37.1388588  15.3840055  81.7792969  36.7730751  14.7501097  81.1623611
  37.4689674  16.0926971  81.2270126  36.2048416  52.6200218  29.0630398
  36.4871559  52.7330437  29.9706497  35.4070511  52.0946236  29.1240215
  29.4538727  29.9289570  77.3664551  29.4299335  29.2076855  77.9952850
  29.1153717  30.6812782  77.8519058  78.9086914  22.9754562  87.3305359
  78.9261169  22.8424339  88.2782898  79.3264465  22.1928158  86.9711075
  46.5790787  56.6592369   8.6355352  46.7467194  56.0403366   9.3462343
  46.3598213  57.4789543   9.0785046  28.3171997  33.0003471   0.3983428
  28.5023346  32.6602669  -0.4770450  29.1801205  33.1476898   0.7854959
  52.0875053  37.7231369  41.1748390  52.1372108  37.8852272  42.1169052
  51.9820595  36.7746964  41.1002274  70.1845474  57.4236298  72.7752380
  70.8870163  58.0704079  72.8419113  70.1880875  57.1601868  71.8550110
  34.8622780  40.1403351  88.9660950  34.3367348  39.4077530  88.6445999
  34.8157768  40.7931747  88.2676163  81.7384109   8.2901077  23.2697830
  81.5905685   7.3668818  23.4747944  82.0026855   8.6810465  24.1025829
  37.9000397  39.2326698   6.3504210  38.8541031  39.1651306   6.3125982
  37.6662292  39.7543068   5.5826583   5.3168001  61.7011147  34.8518295
   4.8580680  61.1699982  34.2009010   6.1533771  61.9158936  34.4392242
  69.0659485  29.1271191  83.5938339  69.5073013  28.6016083  82.9265442
  68.8501587  28.5026646  84.2864532  46.7870064  20.4804173  45.4161835
  47.3499603  20.6846714  44.6694641  46.9409790  21.1945858  46.0346413
   5.8117847  67.2353592  57.8298225   5.6580772  66.3285522  58.0949745
   6.0145588  67.6924667  58.6460114  78.2367325  54.8944397  76.8989258
  78.2330322  55.7549591  76.4797287  77.9384155  54.2939568  76.2158051
  56.5726509  47.6294136  52.3886299  56.7449036  48.0506096  53.2307472
  56.9110374  46.7400131  52.4920158  68.5606842  58.5772896  17.1526356
  68.7752075  58.5716133  18.0854702  68.2818298  57.6809273  16.9655437
  67.3248596  49.8200111  15.9125738  67.2340698  49.3219566  16.7249336
  68.0255280  50.4467354  16.0929089  54.9735756  22.0663891  60.7795677
  55.3838348  21.5028725  61.4355927  54.9138908  21.5186005  59.9968834
  84.1459961  20.9646931  32.3949814  84.5842056  20.5355225  31.6601200
  83.3553543  21.3457222  32.0129662  67.0170059  16.0721264   6.6165409
  66.1352234  16.3860455   6.4162011  66.8813629  15.3589191   7.2403750
  48.2033997  14.0201416   4.2073016  47.6739960  14.0179338   5.0047712
  48.1964569  13.1094351   3.9126883  57.1867256   7.5011182  72.0334015
  58.0709915   7.8604970  71.9616394  56.6874123   8.1818466  72.4845428
   4.3958573  61.1856842  25.5612373   4.6355562  61.3852119  24.6562710
   5.1844306  61.3825302  26.0668430  68.0324478  59.5743561   0.9977872
  68.0734329  60.1983566   0.2730957  68.8856125  59.1404572   0.9887806
  62.7110634  30.8563900  76.0068665  62.9667816  30.9878349  76.9198608
  61.9761314  31.4554024  75.8753586  27.9957752  29.5975056   7.6190920
  27.0685692  29.8348980   7.6320114  28.1065655  29.1088715   6.8034983
  44.2390518   9.3415060  47.1490364  44.4961929   8.6080751  47.7077751
  43.5985184   9.8261528  47.6696739  12.5802317  32.1453514  16.1846409
  11.7817860  31.6867886  15.9230366  12.8657312  32.6002235  15.3922939
  56.8593597   5.7147279  77.9653397  57.6231918   5.9555035  77.4411087
  57.2169609   5.5083055  78.8289032  66.7360992  36.9880142   1.6472158
  66.5595703  36.6340866   0.7755482  67.6583405  37.2428932   1.6199629
  75.5596237  63.2060280  75.7426605  76.3954773  63.3181267  75.2898788
  75.7834320  62.7356300  76.5457001  72.8201904  10.8852530  54.9624786
  72.2360535  10.4311008  55.5697365  72.5922775  10.5328722  54.1021767
  84.9615326  26.3089027  17.0623817  84.4311981  25.6971302  16.5517845
  85.6151123  25.7577744  17.4928741  80.6714096  43.4551163  46.9704628
  81.0969009  42.6059875  47.0895157  79.8104019  43.2431297  46.6099586
  80.4131546  21.8656979  28.8268909  80.5599747  20.9591045  28.5571480
  79.4711685  21.9179039  28.9886284  77.5148773  68.8992004  19.4491005
  77.4903641  69.8325424  19.6600838  76.7221146  68.7491760  18.9340725
  20.8668156  21.7769985  65.8828735  21.4085884  22.3692856  66.4043198
  21.4761276  21.3811855  65.2597275  26.3506432  10.2489071  84.5200882
  25.7931004  10.9480877  84.8614426  26.2230949   9.5218077  85.1294250
  52.1078491  58.9614601  60.0321693  52.0386620  58.9349747  60.9864998
  51.5419350  58.2505608  59.7311821  48.8157158   0.1848526   8.3637495
  48.4263535  -0.0142463   7.5122867  49.3384056   0.9718566   8.2099590
  49.2121811  56.8904991  74.7044678  48.5481834  56.6970329  75.3662186
  49.0077477  56.2992058  73.9800339  12.7681952  39.1983185  32.6338196
  13.5672779  38.6803932  32.5366058  12.1368294  38.5936813  33.0237236
  63.9023590  38.4435463  57.2131233  64.5363541  38.1576500  56.5554428
  63.5449562  39.2593803  56.8625336  17.8199787  59.3097305  18.5449734
  17.4407845  60.0974579  18.9347553  17.9492416  58.7152481  19.2839661
  73.2223663  24.4887562  16.3005066  73.1289368  25.2908878  16.8143997
  72.4410477  23.9772873  16.5106697  26.2376194   0.3759441   8.0928936
  26.8111172   0.6316053   7.3704205  26.7940044  -0.1528776   8.6647463
  14.2712345  55.5981064  75.2158966  13.8030739  55.5404320  74.3829956
  14.3591204  54.6897430  75.5046539  13.5924482   9.9404240  13.3719931
  13.4062786   9.0441828  13.6518583  13.4323759   9.9347897  12.4282885
  66.4839249  10.1294746  67.8052063  66.0367279   9.6100292  67.1370544
  65.7871933  10.4035702  68.4015808  50.7156677   7.9475169   6.8659830
  50.1086655   8.2414207   6.1867180  51.3094063   8.6874838   6.9930916
  52.7304688  64.0427628  30.6430359  52.3643150  64.7538681  30.1172180
  51.9658699  63.5854950  30.9930725  66.0145798  62.9403496  23.4212532
  65.5136566  63.0773888  24.2253208  66.2566757  63.8216400  23.1367455
  48.9521561  39.8799782  11.9647799  48.0259514  39.9943695  11.7519579
  49.2753181  40.7686577  12.1132593  76.0845490  37.9483986  50.3006172
  76.0974503  37.7517166  49.3639336  76.7892456  38.5848198  50.4214554
  57.7614021  28.4991074  83.5716858  57.0540733  28.8665333  84.1016998
  58.0216713  27.7043762  84.0374069  48.4320717  64.1112976  62.9711685
  47.5149307  64.1282272  63.2446518  48.9260254  64.2347488  63.7817268
  73.3539352  25.2600002  22.3087177  74.0376511  25.6170025  22.8755646
  72.7992249  24.7470341  22.8964157  18.7386303  19.5425415  39.0906448
  18.4772797  19.0858593  38.2910385  18.6907730  20.4709816  38.8627434
  22.0515900  34.5524139   4.1268716  22.9491138  34.2766800   3.9407165
  22.0271645  35.4752274   3.8737869  41.2799225  27.4655170  84.9084167
  42.0176392  27.0879517  85.3874207  40.5130310  27.2450104  85.4370804
  32.0762558  63.9116821  62.3944511  31.6341133  63.1019211  62.1394386
  31.4498634  64.3571777  62.9648895  45.1252480   4.9278097  41.0796967
  44.4878387   5.4534030  40.5962791  45.9650536   5.1314011  40.6679802
  63.8342743  17.8242302  42.4704208  63.7346039  18.7748928  42.5208282
  64.6567917  17.6451473  42.9260788  20.8213978   2.1474330  15.6845560
  20.6601257   1.2663763  15.3469725  20.2880688   2.2014151  16.4775734
  40.5347214   3.9847434  81.9833145  40.6777191   4.8102169  81.5203094
  40.1213989   4.2410417  82.8077621  25.8841610   6.3831954  68.1209946
  26.6795197   6.4592195  67.5938721  25.6707039   7.2841511  68.3637848
  63.1028137   9.9472914  88.0800018  63.9494247   9.5843515  87.8196945
  63.2046165  10.1493692  89.0100708  71.9368591  22.8039341  53.0190811
  72.4636307  23.4666557  52.5723724  72.1096573  22.9477921  53.9494972
  81.2004776   0.4267355  60.5059586  81.5135498   0.2328848  59.6224213
  81.4573212  -0.3361968  61.0238380  78.1176071  42.5905457  20.4230690
  77.2294083  42.3434143  20.1656723  78.3947372  41.8977547  21.0226288
  48.4898491  70.8133850  69.0183258  49.1494064  70.1425400  68.8417587
  48.5933685  71.0119705  69.9489594  73.1930161  63.0685654  86.7948685
  72.3582230  62.9541473  87.2490234  72.9504471  63.2094727  85.8796997
  51.2037086  38.3862076  84.8670502  51.2738113  37.7057610  85.5366135
  50.8168030  37.9412880  84.1130066  83.6653824  18.9736290  10.2780247
  83.2347260  19.8007221  10.0619564  84.5997543  19.1813393  10.2718439
  47.6378822  29.2270031  66.2776184  48.0580254  28.7965202  65.5330429
  47.2093506  29.9949722  65.8997116  79.7446823  27.3735561  63.2760239
  80.0261612  28.2298012  63.5982780  80.1926346  27.2747307  62.4359055
   4.5097480  67.8594055  29.1863365   3.9380562  68.5840607  29.4398556
   4.9275632  68.1555634  28.3776627  69.7834930  43.2074623   9.3966074
  69.1722336  42.6053581   9.8209391  69.4777374  43.2604942   8.4911079
  55.2725868  22.1514893  77.2756119  55.6225967  22.9861965  76.9641800
  55.7387009  21.4904194  76.7637939  46.5152664  41.3135300  39.8078423
  47.0696564  40.5649109  40.0279732  46.8859634  41.6550102  38.9940834
  47.2479134   9.1632118  76.7409439  48.1589470   9.3703003  76.5327148
  47.2178268   8.2066545  76.7589951  41.5093803  31.4457951  85.6438751
  41.8295097  30.7099648  86.1657104  42.2614517  31.7080727  85.1129990
   3.2938187  21.1232834  33.2589073   4.1049047  21.5950394  33.0696526
   3.4197361  20.7749043  34.1415215  76.9402390  27.3795357  32.6071129
  77.4385300  27.6745319  31.8449364  77.2711182  27.9121227  33.3303680
  80.6715317  68.3623962  58.0936356  80.2578125  67.8949814  57.3679695
  80.6667404  69.2800064  57.8212433  22.7677517  67.6855621  80.4092865
  23.3629894  68.3496017  80.7571030  21.9363804  68.1457977  80.2942429
   0.7602048   3.4156582   5.3109350   0.8229143   3.9919541   4.5492382
  -0.1241840   3.0524573   5.2643156  43.4107018   9.1881142  15.0898409
  43.1008263   9.8850641  15.6681757  44.2364540   8.9021606  15.4804707
  85.1536407  34.5050240  64.7912674  84.8713226  35.3291588  64.3946152
  84.4489746  33.8889847  64.5908432  49.4796371  52.7926102  21.0005627
  49.8538437  51.9564209  21.2780380  49.8799591  52.9630089  20.1479568
  12.1857376  22.9202213  25.6471310  11.5776482  23.2884483  26.2881222
  12.8002968  23.6309166  25.4642086  33.9898758   1.8231738  73.9183731
  34.7839050   2.0729976  74.3909531  33.4859848   1.3108525  74.5507126
  71.8116608  21.8672333  42.0019722  72.0050201  22.7326870  41.6416473
  72.2789078  21.2593517  41.4289207  34.0122566   2.4268031  48.9462585
  33.2983513   2.1458838  48.3738480  33.6269989   2.4366248  49.8224487
  15.1938066  52.5665131  47.4750671  14.6297407  51.9167747  47.0556602
  14.9731960  52.5107231  48.4048271   8.4400740  26.7492962  82.6841431
   7.7098002  27.1467533  83.1584396   8.8441486  26.1575489  83.3188019
  75.5042953  39.2459602  22.7240009  76.2160645  38.6991425  23.0565739
  75.8357849  39.5929985  21.8958015  76.8555832  32.7500992  14.3133202
  76.3806000  32.0146561  13.9263468  76.1731644  33.3001633  14.6979828
  30.1092720   3.3320982   2.1904168  29.4540195   4.0154929   2.0495384
  30.0330887   2.7653408   1.4228142  11.6933651  10.0588722  10.8817253
  10.7481794  10.1517048  11.0010471  11.9474354  10.8292427  10.3735828
  12.6857004  44.1875992  79.7324448  11.7527151  44.0794830  79.9170532
  13.1245289  43.6580772  80.3982315  26.5496712  67.6267929  61.8834572
  27.4982376  67.7118759  61.9794464  26.2287140  68.5284424  61.8675728
  30.0949917  46.0546074  20.3077240  30.2844620  46.4622498  19.4626446
  29.1403408  46.0745964  20.3746185  70.1360474  24.3154964  70.4885025
  69.7185898  24.1152687  69.6507263  69.4074097  24.5007401  71.0809631
  31.0792580  39.7876778  29.4364586  30.3413391  39.3332024  29.0300617
  31.0389137  40.6755066  29.0809803  41.0190811  11.3011370  76.1276093
  40.1551285  11.7081900  76.0634003  40.8751297  10.3913231  75.8673248
  67.4307785  25.4634819  80.7325668  66.8493347  25.7758083  81.4258270
  68.1469727  25.0308437  81.1974487  58.9025841  24.4457359  70.8284454
  59.1240997  24.5585842  69.9040909  58.2856827  23.7139263  70.8392944
  70.5659027  69.3571548  66.3692551  71.4822845  69.3251724  66.0945663
  70.5234146  70.0961990  66.9760818  81.9645309  48.7620850   5.1256361
  82.5660934  49.1856880   5.7379355  81.1099854  49.1435127   5.3268948
  15.2188349  69.6800232  68.6117554  14.9809179  68.9854431  67.9975967
  14.3807402  70.0206146  68.9245300  11.3883581  10.7855349  71.5057526
  11.0326357  11.6103468  71.8364792  12.3345299  10.9274139  71.4763947
  20.1047630  65.6481171  11.4648905  19.7479477  66.2424850  10.8048601
  21.0284863  65.8902130  11.5308838  23.8390541  56.6333885  61.1649246
  23.9570465  55.6837654  61.1419983  24.3654232  56.9222183  61.9104080
  50.0009384  44.2720222  54.2901764  49.6323624  43.4162064  54.0711632
  50.9471893  44.1284714  54.3054771  86.5957031  46.7602386  60.0423546
  86.5624771  47.5904503  59.5670853  86.1861725  46.9508209  60.8862724
  66.7566223  41.1050835  30.1279488  67.1569519  40.8162842  29.3078499
  67.2522964  40.6509972  30.8093739  61.1430550  22.9274998  48.0228691
  60.5667381  23.6896896  47.9666710  61.2368240  22.7668381  48.9618187
  18.8015537  54.9405975  82.1334305  18.4886894  54.7641945  81.2461700
  18.2766457  55.6844597  82.4290237  72.0036392  19.6905212  33.4320107
  72.8704071  20.0962524  33.4501953  71.5615463  20.1031723  32.6900520
  81.6078339  34.6598511  46.2392540  81.1885834  34.8288956  47.0829887
  81.2365189  35.3175812  45.6512489  68.1197968  34.5299644  31.9715805
  67.4394760  33.8698997  31.8384953  67.6460953  35.3614960  31.9915791
   5.9703465  60.3964615   1.3969287   5.2977772  60.5983887   2.0473959
   5.4895582  59.9997597   0.6704987  80.0639801  12.4342775  58.1057663
  79.6694565  11.9789553  57.3619499  80.8145599  12.8966475  57.7328339
  72.4069748  40.9526672  53.5858459  71.6195145  40.8197632  54.1135559
  72.5437241  40.1144409  53.1443596  40.0246925  70.5767212  52.9632492
  40.2608681  70.0251541  52.2174492  39.6857872  69.9643478  53.6162224
  74.2593994  65.4875946  77.6873932  75.1994019  65.6558304  77.7531128
  73.8708725  66.0265198  78.3764801  75.1905975  68.3244476  29.7821121
  75.5833817  69.1842041  29.6312294  75.3895111  67.8276367  28.9884853
  16.4721851  63.2606201  28.9775982  15.8543777  63.9842644  29.0819359
  16.3071995  62.9302826  28.0944843  11.8532963  14.7608080  85.0297012
  12.6675978  14.9438744  84.5610504  12.0816946  14.8588972  85.9540558
  76.4729233  41.6700516  25.7977924  77.3222580  41.4871712  25.3960266
  76.5571671  42.5593529  26.1417046  82.9739075  66.4791183  40.2593613
  82.9759750  66.2144623  39.3394775  82.4269638  67.2643585  40.2814407
   3.9148009   3.1976743  78.4749222   4.6818967   2.6340764  78.3741608
   4.2606559   4.0875330  78.4058685  67.1904526   3.9659805  48.7316971
  66.8867264   3.5090182  47.9473686  68.0110016   4.3803649  48.4648209
   0.8505819  36.9002419  64.1989746   1.7347695  36.9560509  63.8365784
   0.9081373  36.2169189  64.8667984  51.4527550  60.1166382  18.0879860
  51.6996765  60.1503677  17.1637974  50.4961166  60.0850296  18.0793114
  83.5878830  25.5678635  75.5596237  82.8389664  25.1915607  76.0219498
  84.2789154  24.9115639  75.6489563  15.7357216  60.3371582  66.6759567
  14.9325933  60.6763420  67.0711441  15.7583189  60.7309074  65.8037872
  79.7194443  35.1079674  48.4648018  79.6094742  35.8689842  49.0348854
  78.8626556  34.6811867  48.4670982  26.1892776  68.7729721  23.6437874
  26.0497093  68.3437881  22.7996559  26.5361595  68.0827026  24.2089767
  66.6342392   9.0643997  17.2714882  67.3583527   9.6899252  17.2467003
  67.0589752   8.2066698  17.2829628  55.4891205   9.3495550  36.8048172
  54.6225739   9.0950146  37.1219025  55.9885750   9.5392838  37.5990372
   7.7257466  66.6744690  60.6621132   8.5566044  66.3483124  60.3163757
   7.1140304  65.9484177  60.5400925  15.6451054  71.6120453  83.9274597
  16.3033600  71.5392227  84.6185684  16.0573215  71.2133026  83.1610947
  24.1517334  39.7508507  82.3732071  23.7115231  38.9268799  82.1646042
  24.7063313  39.5424576  83.1250229  68.7896500  61.0410614  12.1438875
  67.9645462  61.1041603  11.6627951  68.5275040  60.8567123  13.0458460
  51.4108543  12.1667051  53.1939278  50.6167641  11.7684650  53.5503769
  51.9895782  11.4261370  53.0126266  85.9503250  70.6716766  58.6848984
  86.0057831  71.6272659  58.6880913  86.0531464  70.4227219  59.6034203
  21.0716057  54.6738014   5.3696461  21.0549030  54.4284401   4.4445782
  20.3431854  54.1899872   5.7589531  26.9288311  25.3647499  78.0415649
  26.9828167  24.7199535  78.7469406  26.0119667  25.3436604  77.7674408
  32.2679176  60.2689781  38.4124565  32.5552521  60.3440323  37.5024910
  31.4566078  59.7631187  38.3664970  28.9792309  19.8178082   0.9578091
  29.0728664  20.6374760   1.4432045  29.8645401  19.4551544   0.9271075
   2.2539535  19.4201851  58.5623016   2.5448523  20.3269291  58.6593819
   2.5528069  19.1649132  57.6895180  72.3424454   4.1150932  33.4805222
  71.9975891   4.3386874  34.3449936  72.9037628   3.3554425  33.6357231
  49.9339981  38.0640717  58.9190178  50.8284416  37.7241478  58.8934288
  49.6566963  37.9405174  59.8268013  45.9736786   5.4562984  52.5107231
  45.2772331   5.2160654  53.1218605  46.6440926   4.7845840  52.6355362
  62.4390640  27.7601986   2.3301158  61.8830376  28.5366383   2.3949738
  62.2485199  27.4008541   1.4636310  70.9725266  24.9510078   9.9504499
  70.2351608  25.4696503  10.2722139  70.9406204  25.0536861   8.9993086
  52.5576859  47.3611259   9.4210033  52.0293465  47.8323059   8.7767391
  52.8187675  48.0311546  10.0527706  22.0857029   1.0630809  58.6700554
  22.2682056   1.0057780  59.6079483  22.0785503   0.1536795  58.3714447
   5.1897001  26.9724655  86.9961395   4.2696505  27.2244167  86.9170151
   5.5660181  27.6229134  87.5890427  41.5739250  30.8377991  23.4548950
  42.2949600  30.8998547  24.0813866  41.8132896  31.4435539  22.7534676
  57.1265106  57.7885742   7.6833839  58.0419693  58.0032997   7.8624420
  56.6920433  58.6379471   7.6057010   9.1247654  49.8118820  15.3829632
   9.9274588  49.4766197  14.9835701   9.4256744  50.3137360  16.1404762
  86.1296844  50.1076431  22.5947227  85.6820679  49.4611702  22.0488853
  86.5713882  49.5888214  23.2669964  14.6511793  35.4375916  36.3746910
  14.3287916  34.5391045  36.4455338  15.4479637  35.4486732  36.9050140
  61.1454277  50.4341583  10.7596083  61.4284897  49.7302246  10.1760120
  61.9530106  50.8932800  10.9903574  52.6942253   8.4717073  78.6798248
  52.5827713   8.6303091  79.6171875  52.7068977   9.3453627  78.2889328
  25.7382851   2.5617616  87.5941162  24.9318867   2.1015475  87.8268280
  26.2769508   2.5154736  88.3840103  41.8526726  64.8479919  56.3891296
  41.8317947  64.7520523  55.4369774  42.5089760  64.2145309  56.6793442
  49.8717079  70.5211029  15.1259670  49.2920570  71.0087357  15.7111607
  49.5089378  69.6354065  15.1129093   5.3220515  53.9977493  58.7887878
   6.0508962  54.0358658  58.1694603   5.6707015  54.3824654  59.5929451
  75.8250732  14.7284327  32.1540070  75.1108627  14.5178633  32.7554970
  75.5032501  15.4779425  31.6531086  16.8955173  58.2264748  59.1717415
  16.3312817  57.5167694  59.4786530  17.3792152  58.5017357  59.9505234
  11.9247961  42.2177849  10.6088037  11.6824570  42.6835098  11.4091816
  11.4066792  41.4133148  10.6335936  15.4225035   7.1095691  30.5064583
  15.2638493   6.4539485  31.1855907  15.6863213   7.8938503  30.9876385
  12.3869038   7.4861655  85.4604492  12.4581165   7.8140950  84.5640030
  11.8418350   6.7028136  85.3863373  15.7279606   2.9451053  22.7896748
  14.8847380   2.8732970  22.3424034  16.1460438   3.7085724  22.3914814
  20.1449184  52.1707153  76.3418808  19.8043537  51.2983246  76.5398254
  21.0792904  52.1141167  76.5418320  14.5023899  70.4787827  53.9099197
  14.7624493  69.9598160  54.6710243  14.3470430  69.8325195  53.2211189
  75.0217133  53.3784752   6.6274199  75.3055344  53.3964424   5.7134418
  74.1799393  52.9232063   6.6079106   5.5406947  58.2436218  34.9349022
   5.5439248  57.3398972  34.6194649   6.4664650  58.4669113  35.0314598
  27.1421566  24.5092602   4.3875818  27.0527344  23.5573521   4.4335098
  26.7390194  24.8269558   5.1955304  65.8479614  10.2939463  19.5768700
  66.5743408  10.9158726  19.5343208  65.9334488   9.7709351  18.7797604
   1.0236539   1.3174641  80.4083557   1.3562102   1.6705405  81.2335663
   0.1785861   1.7500424  80.2860107  64.1469116  40.5856705  82.0310974
  63.5826149  39.9327202  82.4451752  64.3580475  40.2117958  81.1756058
   4.1554217  20.5649338  67.3705444   4.4262719  19.9714203  66.6701050
   4.3259869  21.4400597  67.0222702  26.4100170  57.6930161  25.7021046
  26.0167351  58.4470520  25.2627964  27.1534214  58.0568504  26.1829453
  48.3926659  71.0461273  83.4038315  49.0499382  70.3593826  83.5161057
  48.7955322  71.6661682  82.7959824   2.6668448  32.8017311   9.2413874
   3.0544930  33.1876221   8.4558620   3.3814163  32.7858429   9.8780718
  51.4191399   9.8621855  67.3515930  51.3541908  10.7259035  66.9441528
  52.2238121   9.9011116  67.8685303  26.5546932  70.7774200  43.4833031
  27.3280773  71.3355103  43.5647736  25.8729858  71.3601532  43.1487427
  28.4501057  60.9998703  35.3611908  28.1856308  61.8370514  34.9798622
  27.9335232  60.9284325  36.1638565  57.5439796  37.9785233  46.0231934
  58.1399422  37.2498436  45.8497467  57.1757126  37.7866631  46.8856316
  74.6487961  10.3966808  18.4696236  74.2876434  10.8435183  17.7040272
  75.0360641   9.5948639  18.1184139  84.7569962  35.2902222   1.7012264
  84.9331436  35.6768646   0.8434908  84.1914520  34.5408554   1.5145742
  79.3818970  20.1755390  88.6877136  79.1935120  20.7932415  89.3942490
  80.3067169  20.3174725  88.4857330  66.1099243  63.8808746  34.9145012
  65.9383926  63.2181549  34.2454643  66.8467484  64.3848495  34.5690536
  85.7637558   8.4261589  71.6085052  85.0989380   7.8295441  71.2645569
  85.6937485   9.2059269  71.0577850  47.3251610  34.0749626   3.0275838
  48.0537415  33.4986076   3.2582624  47.3460426  34.7646599   3.6909974
  50.3005905  41.1169243  39.3588104  49.7963600  41.7080078  38.7997017
  50.6864815  41.6871948  40.0237236  39.4937897  51.7742310  72.1922226
  39.2634239  52.4954109  72.7779388  39.7153931  51.0508652  72.7786255
  51.6427345  22.0897808  84.0410233  51.0659370  21.8952065  83.3023224
  51.0504227  22.3602047  84.7426376  78.4395294  29.3733654  68.9459381
  78.3231506  28.7211971  68.2550278  77.6506729  29.9136314  68.9006729
  51.7241745  49.1315536   1.9299188  52.5597801  49.4847755   1.6245836
  51.0844193  49.8104439   1.7153344  54.0525894  50.8956337  69.6830521
  53.5145569  50.9529762  68.8934479  54.6884460  51.6052589  69.5916595
  20.9660797  70.8237457  41.3479691  20.8909092  71.4743042  42.0460777
  20.7049484  71.2920456  40.5550423  17.0244637  70.9014511  79.2002182
  16.4338627  70.1504898  79.1412430  17.3081322  70.9118576  80.1143570
  52.9893608  54.3362083  38.2747841  53.7710266  54.2907333  38.8253822
  52.6669922  55.2301102  38.3898811  69.2977371  34.6966400  76.6220703
  69.4940720  35.4212265  77.2159195  68.5968018  35.0295067  76.0616074
  82.1379013  35.7508202  72.3277283  82.2281799  36.2248764  71.5010834
  81.5242004  35.0427971  72.1320190  11.7453241  68.5761795  42.3585701
  11.2296381  67.7763824  42.2554855  12.2408342  68.6484756  41.5428047
  20.2919006  49.3036652  25.2497864  19.4267101  49.7128601  25.2652931
  20.6163673  49.3954926  26.1456203  23.3946838  63.8762207  13.6560955
  23.4444256  62.9465637  13.8785830  23.0383644  64.2916946  14.4413643
   5.3248491   3.8560078  68.9513092   5.5459113   3.4311895  68.1225204
   5.6570325   4.7489438  68.8588409  36.8428764  27.0901756  17.1671848
  36.8967934  26.1346874  17.1863918  37.5588837  27.3589497  16.5915737
  58.6001282  10.3963223  26.5363617  58.4280853  11.2833633  26.8522587
  57.7639694   9.9408188  26.6342869  47.6071358  12.8342257  71.0223083
  47.8608856  13.7545424  70.9525909  46.6501770  12.8476877  71.0054092
  50.2247734  31.5867100  73.8137512  49.5641479  31.7588005  73.1427917
  50.9728241  31.2374382  73.3293381   2.9913011  52.5478096  18.9750252
   3.5341549  52.1400986  19.6497936   3.4453964  52.3565559  18.1543827
   7.9824123   3.2988546  31.3661938   7.7910118   3.2151535  30.4320679
   8.9317493   3.4143758  31.4067535  55.6940384  12.0963020  86.3464508
  56.5891838  11.9313564  86.0502472  55.4350700  12.8977041  85.8915634
  75.7235413  11.0642729  31.6016159  76.4057312  10.4425478  31.8552017
  76.1926270  11.7596493  31.1404877  36.7435989  10.0306129  20.9521084
  36.8997459  10.9614477  21.1114731  36.3505363   9.7111950  21.7643299
  46.5130005  23.9488773  69.0977936  45.6292419  23.8264523  69.4445114
  46.6073189  23.2644405  68.4353104  28.8313847  39.9174271   9.4495745
  29.1991062  40.2466393  10.2697153  29.1279755  40.5410461   8.7867289
  64.7685089  30.9942036  20.2857742  64.9010010  31.6959324  19.6483936
  65.1702652  30.2249126  19.8820171   5.8992839  12.5938940  81.0956421
   6.5674095  12.6346836  80.4114075   5.1480880  13.0569382  80.7247925
  85.7163010  38.0267258  66.8234329  86.2034988  37.6742401  66.0787048
  85.3771896  38.8659897  66.5121994  82.6886063  58.4603539  10.2222328
  83.3071899  58.9204483   9.6548738  81.8337402  58.8207550   9.9865294
  20.6378288  34.9734230  77.1252823  21.4432297  34.5027847  76.9106598
  20.6425247  35.7337494  76.5438080  35.5710793  36.0865974   6.7925615
  35.7396774  37.0108643   6.6094317  36.4272499  35.7289696   7.0277357
  78.9402847  47.7517548  78.5100937  78.7140732  48.6665535  78.3421707
  79.8897018  47.7582512  78.6317749   8.5892124  16.9713058   6.8966885
   8.6247559  16.4363880   6.1036992   9.2271729  17.6684208   6.7441473
  35.3037224  46.3161697  20.9010925  36.1359177  45.8739433  21.0687790
  35.2091446  46.2955132  19.9488010  25.3845654  47.6556969  39.2206306
  24.7103519  47.5709610  39.8947868  25.2661495  48.5397415  38.8732491
  86.3381805  49.8323822   6.9216399  86.4415436  50.6458626   7.4154000
  86.9153824  49.2092972   7.3630357  53.2580032  20.6174965  58.7779770
  53.3868904  20.9491940  57.8893852  52.7545700  21.3021202  59.2185173
  70.0479126  26.2674522  44.1819229  69.4668121  25.7140503  44.7037468
  70.7458572  25.6784801  43.8952026  83.9568024  60.6726723  51.8951645
  84.0149384  60.9328041  52.8145027  84.8250351  60.3265152  51.6888313
  36.2669945  62.5232506   7.6563087  36.5768166  63.4108772   7.4764118
  35.9393959  62.2085533   6.8137670  83.2830658  28.4899349  17.2673531
  83.9529572  27.8129330  17.3630028  83.6938171  29.2835007  17.6105251
   6.6269536  63.9161949   6.7907610   6.9243717  63.2065392   6.2214084
   7.3287826  64.5658340   6.7503223  81.2850266  34.5871887  38.5785942
  81.7699585  35.0114250  39.2864761  81.4293747  35.1504784  37.8182640
  18.4716663  13.8664732  57.5069847  19.1215458  13.2404947  57.1875496
  17.6446953  13.3849030  57.4859543  40.4580917  13.2100191  81.8248062
  41.3776207  13.4373760  81.6869278  40.0429192  13.3664322  80.9766312
  78.1120758   2.2033763   0.6878777  77.7896500   2.9402075   0.1688857
  77.9165039   2.4444273   1.5933487  61.4524345  37.5804405  14.4194221
  62.4014549  37.6957855  14.3715801  61.2659874  36.8715210  13.8038750
  67.4895935  48.8186150  36.4094887  66.7034225  48.6500015  36.9288483
  67.4923325  49.7670288  36.2801247  76.6340714  19.3127365  53.6862717
  76.4392242  18.3775692  53.7473297  75.7754822  19.7348251  53.6562920
  78.2244492  42.6718445  32.5285339  77.9191971  41.9171867  33.0320702
  77.6976547  43.4034119  32.8502884   1.5644095  44.1285782  14.1888733
   0.7149377  44.4611816  14.4787064   1.3617153  43.2999229  13.7547274
   6.1856689  17.7196236  23.4766026   5.7933679  17.5910282  22.6130085
   6.3411674  18.6625385  23.5310307  67.2079697  32.0054932  42.1362801
  66.8147507  32.5143013  41.4272499  67.2009659  32.5975494  42.8883781
  50.2067795  12.1369705  50.5577545  50.6721039  11.8026819  51.3245392
  50.3894043  13.0765877  50.5575790  44.8231468  15.7901354  72.0251236
  44.0742302  16.0706749  71.4991455  45.4888840  16.4603062  71.8705292
  57.3985977   3.9370885  34.6511307  57.6263161   4.8640985  34.7220421
  57.4092979   3.6181142  35.5535545  82.6052780  52.2165489  11.0875788
  83.3500061  52.2582588  10.4876862  82.0888062  52.9960022  10.8827772
  34.3027611  11.9800920  81.5204926  35.0297356  11.8848543  82.1358490
  33.5705833  12.2798147  82.0592957  63.0801659  65.2242203  35.8112335
  63.5872459  64.6396408  36.3745880  62.5160599  65.7082748  36.4143219
  58.0692177   9.8499727  37.9263687  58.4695091  10.0243034  37.0745430
  58.6751938   9.2468796  38.3568459  12.0796309  61.1096611  38.9223633
  11.2607660  60.8993225  38.4735298  12.0001507  62.0376205  39.1432877
  49.1815300  46.4494591  43.3608208  48.5350761  45.8110275  43.6620483
  48.6612053  47.1488914  42.9654846  69.0728226  39.4882698  38.5348854
  68.1748810  39.2413864  38.7562218  69.5857086  39.2413940  39.3044472
  25.7552166  70.6510468  11.9203959  25.2188168  71.4298859  11.7723465
  26.6530495  70.9462051  11.7687035  64.9000854  60.4570618   7.3218307
  64.1962662  60.0701027   7.8425293  65.1570206  61.2392349   7.8101120
  10.2077122   3.6538191  14.2549906  11.1325893   3.4717317  14.0886269
   9.7941875   3.5996377  13.3934259  48.6162262   7.2441306  82.8546982
  48.3516998   6.4836431  83.3723068  49.3587761   7.6129107  83.3330917
   4.9393382  57.4671974  43.9439812   4.3378758  58.1912727  43.7702293
   4.4689631  56.9082756  44.5625153  27.9462376  48.8975487  44.9020271
  27.4394112  48.8373489  45.7118034  28.2290382  49.8112221  44.8638344
  21.9749050  14.8141689  18.4880772  21.6300869  14.9037590  19.3765068
  22.4595566  13.9888411  18.5013561  68.7451630  57.7479706  26.0486526
  69.1095352  56.8739738  25.9086876  69.0731201  58.0092087  26.9091377
  52.2055130   6.4333014  59.7707558  51.3446541   6.0562449  59.9523735
  52.0784378   7.3772521  59.8658409   7.2650805  59.5264168  60.0440941
   6.5730114  59.9290657  60.5686378   7.7793531  60.2651520  59.7184792
  84.0497284  18.6092644  62.1765671  83.4776840  18.2938976  61.4768944
  84.2626724  19.5079479  61.9250679  84.2654724   2.0687132  46.5628052
  84.5732803   2.7493093  45.9642448  84.4503555   2.4157586  47.4355087
  30.5020504  45.6728630  26.7355251  30.8798943  45.2955093  27.5299244
  30.1025753  46.4926605  27.0263519   9.5519180   3.8295805  45.0852203
   9.7708845   3.2396150  45.8064880  10.3684130   3.9207227  44.5940361
  70.2515106  44.1693687  72.9353790  70.7823868  44.7801361  72.4241409
  70.6786728  43.3213692  72.8143005   2.1494024  53.1380157  68.3021317
   2.6791053  53.9347115  68.2717743   2.0560961  52.9478531  69.2355957
  19.5838337  24.5848064   8.2749147  18.9952316  23.8569221   8.0750113
  19.0493965  25.1910992   8.7877674  47.3141785   6.0986195  56.2506599
  47.4598846   5.2752233  56.7165146  48.1936226   6.4227476  56.0563622
  83.9332504  30.8898220  62.9024239  83.2895432  31.4891586  62.5247116
  84.7176361  31.4252110  63.0221519  49.7791901  49.9342384   7.9801645
  50.2847595  50.5789795   8.4750786  50.4162827  49.2597198   7.7448468
  46.6036987  36.2354507   4.7316003  47.0752182  36.3765259   5.5525751
  46.9336166  36.9167747   4.1457815  12.2396517  46.8235931  62.5941887
  12.2849598  46.7327194  61.6423874  12.8285151  47.5514030  62.7936020
  48.8304062  30.4415550  28.4847527  48.1449280  30.8529110  29.0111923
  48.6587257  29.5028267  28.5592308  74.1441803   3.1143425  16.3320675
  74.2677917   3.0384300  17.2782116  73.6794662   3.9432101  16.2169724
  59.3336906  60.2745132  56.8949432  59.0818367  59.7124901  56.1621895
  60.0816536  59.8288078  57.2925949   4.6250343  37.1249237  79.9523773
   4.4352012  37.3348846  80.8667755   5.2727184  37.7775497  79.6862640
  84.6121902  48.8611870  77.4703369  84.8761215  49.6825447  77.0556717
  85.3932571  48.3095131  77.4276123  10.7275372  49.9332962   3.0339150
  10.1571264  49.8346252   2.2715981  11.6141338  49.8587189   2.6809058
  31.9724312  52.2420540  21.4960423  32.1510544  51.3058014  21.5840855
  31.5614185  52.4864845  22.3252316  64.2801590  31.2407131  16.3399925
  63.3288918  31.1401157  16.3052673  64.4636917  31.4696579  17.2511082
  17.1915569  14.1698008   6.6102858  17.3241749  14.9715319   6.1044464
  17.1307125  14.4667559   7.5182214  72.4962082  38.7260170  10.6891050
  72.5652390  37.9618797  11.2614317  73.3990631  38.9175377  10.4353333
  81.7629242  37.8033409  63.8196373  81.4532318  38.3739777  64.5229797
  82.2033234  38.3938980  63.2084694  28.0857658  11.8000374   6.0665727
  28.9428387  11.6039686   6.4450107  27.4987049  11.8580542   6.8203788
   7.0351958  65.3883209  37.3950157   7.8107014  64.8632126  37.1973114
   6.5835595  65.4740219  36.5554237  22.4790268  70.0068054  58.1708069
  22.7979622  69.8601837  57.2802925  23.2334747  69.8194122  58.7293091
  64.0607300  48.2657356  50.6529465  63.2727928  48.7818871  50.4827118
  64.7690582  48.9092598  50.6723404  69.3338318   5.3754516  47.8424950
  70.0599213   5.1532497  47.2597046  69.7248001   5.3937030  48.7160187
  39.7062035  52.0188980   6.1800842  40.0782242  51.1414261   6.0913396
  38.8835144  51.8838158   6.6503663  56.4302406  24.6393776  25.2645073
  56.9611549  24.7490177  26.0533943  57.0623970  24.6572704  24.5459747
   4.9232211  22.7471027  70.4143906   5.4085374  22.2144566  71.0444641
   4.0237908  22.7454109  70.7418900  72.4314270  66.3057785   8.6346760
  71.5892029  66.6972122   8.4030209  72.6254349  66.6528244   9.5053978
  78.7694778  41.8694496  79.8097153  79.2906723  42.6526031  79.9865341
  78.9898376  41.2692337  80.5220490  23.1220093  71.2175598  63.5523376
  23.0853024  70.6022797  64.2846680  23.7673855  71.8714294  63.8209877
  47.1981392  59.6096039  69.4363174  47.8610039  60.0050888  70.0023880
  47.5150261  59.7708244  68.5475998  22.9809914  59.1977196  68.5895004
  22.7710667  60.0066872  69.0561218  23.9286823  59.2348595  68.4601364
  44.8448868  50.4031372  46.1277885  45.3859596  51.1896935  46.1970673
  44.1553001  50.5286102  46.7796783   0.4702749  19.8807831  40.7361755
  -0.0503314  20.2240467  41.4623756   1.2840613  19.5845566  41.1438904
  13.8484697  44.5775108  84.3774796  13.8430023  44.8849297  85.2839584
  12.9235239  44.5253487  84.1366730  62.5801353  40.1909637  71.7593918
  63.1927910  39.5175743  71.4636993  63.0132446  40.5953751  72.5111237
   8.5479755  67.9810867   2.4202678   7.6842232  68.3720703   2.5517778
   8.9073486  68.4433365   1.6630306  46.5935249  21.7659397   8.2272034
  47.4410477  21.3809528   8.0042143  45.9509201  21.1671371   7.8467765
  60.0155449  48.0891762  77.0202789  59.5770264  48.7550316  77.5499725
  59.3394165  47.7786369  76.4180832  80.6921692  15.5300770  78.4143295
  81.0005493  16.2411671  77.8526459  79.9683380  15.9130507  78.9099426
  21.4270000  60.0661163  85.5264206  20.5826130  60.0872917  85.9767456
  21.2056675  59.8997879  84.6101303  57.4504280  55.0649452  16.3047829
  57.9503822  54.2911987  16.0447941  58.0122643  55.5114326  16.9382057
  86.2101746  16.0676956  73.9375076  86.0953674  15.1482306  73.6974335
  85.3860321  16.3096275  74.3599930  70.9871902  32.6231346  44.3444214
  70.8092880  33.5634232  44.3654137  71.8058624  32.5233650  44.8302727
  63.7465706   2.2404983  39.4037590  63.4106750   2.6207302  38.5920753
  64.4752884   2.8096530  39.6512680  11.1350050  38.1540375  71.3829269
  10.2694206  38.5546989  71.4633484  11.2190619  37.9504013  70.4514236
  41.9279137  57.0652847  46.2958107  41.1246758  57.3847160  45.8847122
  42.1368713  56.2611923  45.8204155  38.0370598  35.3533936  71.8696671
  38.3502121  34.6637497  71.2843857  38.1156540  34.9774323  72.7464294
  76.0509949  57.0730133  40.4750748  76.9423218  57.0790405  40.1261711
  75.7198868  57.9541931  40.3015099  69.4891129  27.6162663  65.0526886
  70.0942917  26.8903522  65.2044754  68.6320114  27.1992188  64.9650650
  54.0922737  40.3657990  11.1406355  53.4912720  40.7355042  10.4938383
  54.8945312  40.8786736  11.0427866  62.2032280  62.3915443  39.1411285
  61.7087135  61.8714027  39.7744827  61.7264023  63.2197609  39.0870209
  35.3957405  62.8764076  67.4097443  35.9045563  62.7558937  66.6079865
  36.0422287  63.1327820  68.0674362  70.3107452  16.6724205  12.9240160
  70.9155960  16.5569954  12.1911726  70.2595444  17.6205273  13.0452652
  69.1593246  63.9916077  43.3213272  69.1133728  63.6194382  42.4406433
  68.5429688  64.7237625  43.3044052  14.5014715  40.6271515  65.0729599
  14.4776115  41.4899483  65.4867706  15.3083191  40.6307487  64.5579681
  82.1162643  32.6184196  62.0153885  81.9515305  32.5825081  61.0731544
  82.4969940  33.4847984  62.1591187  79.8483124  59.1066704  24.0903397
  79.5163422  59.8617477  24.5760174  80.5959167  59.4475670  23.5993080
  37.2818604  53.5669098  10.2407103  37.4547729  53.5839653  11.1820087
  38.1468353  53.4812622   9.8398151  62.0960236  44.1588783  54.8353004
  62.9725571  44.0516014  54.4659576  61.5645370  44.4725037  54.1035957
  83.7300797  32.8667984  30.0709743  84.3428726  33.2166367  29.4241943
  84.0259323  33.2335777  30.9041424  65.0680466  32.5749855  82.7873764
  65.8262863  33.0051689  83.1826630  65.3485870  31.6694927  82.6546783
  82.5771790  38.6984444  84.5437393  82.0595474  38.9695015  83.7855682
  83.4601212  39.0177269  84.3574600  76.3415451  17.7439690  68.2923126
  76.1489563  18.6362133  68.5804825  76.7903137  17.8546028  67.4541016
  68.8221588  19.4589500  89.0066147  69.5140991  20.0340385  88.6799240
  68.3217545  19.2192822  88.2266235  55.0931816  16.5462627  69.5145035
  54.6398430  17.1115379  68.8890610  55.4275169  15.8225794  68.9846649
  39.9371681   8.0074368   6.9476943  40.3417511   8.7210302   7.4409795
  39.5501251   8.4340582   6.1832180  15.1115847  54.9776344  26.8372116
  15.7751837  54.2882156  26.8133430  15.1398439  55.3062706  27.7357845
  50.8356895   9.8357325  48.6969528  50.6346397  10.5029821  49.3531456
  51.5175400   9.2995501  49.1016998  70.4936142  20.6176758   4.3996906
  69.6468811  20.8437576   4.7846098  70.9071884  21.4616146   4.2181597
  78.0712051  58.4533577  53.4882774  78.2873611  57.8981285  52.7391243
  78.1678848  57.8789978  54.2478790  55.1897240  63.1530991  71.6376266
  55.0798836  63.0578308  70.6915359  54.2965813  63.1868210  71.9802551
  23.6329899  31.1784115  77.4284515  22.9388809  30.8526382  78.0014420
  24.1032772  30.3922138  77.1510468  30.5941410   0.5381160  87.7174759
  30.4919300   0.3602273  86.7825165  31.4034042   1.0457659  87.7776260
  15.6860027  65.1988678  26.8788776  16.0085640  64.4284897  26.4112148
  15.2108793  65.6999359  26.2159920   3.9047134  50.1106453  79.2824249
   3.0511343  50.1072235  78.8492737   4.4971361  50.5031509  78.6411743
  23.6058769  54.6774902  21.7933903  24.2035141  54.5160599  21.0633221
  24.1176720  55.2000542  22.4108238   7.2985916  62.0512428  84.5045166
   7.4590721  62.9872017  84.6247711   6.9651599  61.9783630  83.6102371
   9.9896679  39.5443840   7.1590853   9.0706625  39.3332596   6.9945049
   9.9605579  40.3155861   7.7253275   1.4881027  35.3411560  29.9285011
   1.4983717  35.4913025  30.8737965   1.1884983  34.4370995  29.8328266
  41.9015846  68.5283890  12.9350796  42.2710838  68.7544556  13.7886581
  42.6297302  68.6351700  12.3230085  50.6724052  48.4771118  38.6660843
  51.2905960  49.1675568  38.4265823  49.8110657  48.8844070  38.5742378
  62.0068741  29.3157921  61.6754990  61.8431358  29.7176895  60.8223305
  62.2728119  28.4193306  61.4708862  33.1626129   1.1974783  29.7251854
  33.0598221   2.1366420  29.8789310  33.0046349   0.7961839  30.5797253
   1.6902424   0.6154011  55.8914146   2.3112366   0.0844596  55.3927193
   0.8581069   0.1491783  55.8112984  14.8895693  71.0502548  58.8734550
  15.0853748  71.6575623  59.5869522  15.6099606  71.1679611  58.2542496
  27.8497181  34.2810555  17.7165337  27.5153065  33.5246048  18.1983852
  28.3399200  33.9025307  16.9867039   5.4033604  29.5136452  78.0088959
   6.3579741  29.5061970  78.0788193   5.1706872  28.6066914  77.8100739
  72.1854172  40.8214073  61.6886711  72.0851288  41.4763069  60.9978142
  71.3328857  40.7993011  62.1233292   7.5344377  51.2025909  34.5522118
   7.2569637  51.6080627  33.7307281   8.0521507  51.8783073  34.9899483
  67.2203522  24.1587620  75.6773148  67.2254410  24.3422546  76.6167526
  67.3807831  23.2170734  75.6163406  81.4224319  48.3095856   9.4679966
  82.2645035  48.7642937   9.4877586  81.5614929  47.5737686   8.8717890
  53.3796196  29.4766769  61.7532806  53.3857880  29.5362320  62.7086067
  52.7537651  28.7784538  61.5608673  72.8045197   8.8727932   1.8157737
  72.6471100   9.8129416   1.9028045  73.4572067   8.6760130   2.4877174
   9.3919468  50.7739296  39.4781876  10.3451586  50.8088341  39.3981857
   9.0917683  50.4536781  38.6275597  56.0481224  18.5266476   1.0450140
  55.5475082  18.0100765   0.4135280  55.8771095  19.4359627   0.7997928
  23.4267769  63.9391479  31.1082001  24.3797970  63.9730377  31.0255146
  23.1396580  63.4183769  30.3581352  53.7928925  47.9484901  36.2764320
  53.6210518  47.5733185  35.4127464  54.6594543  47.6178818  36.5130730
  66.1059189  19.1684437  49.8297806  65.4849930  19.8965778  49.8074760
  65.5630341  18.3953552  49.9841766  16.4276028  42.3485756   8.7733097
  15.6875229  42.9081116   8.5378675  17.1180000  42.5926132   8.1568432
  71.4043579  36.6370964  64.9631882  70.9674759  37.2937927  64.4208679
  72.2339859  36.4704361  64.5157928  78.7658844  14.9307423  35.3533783
  77.8233871  14.9774942  35.5138054  78.9863739  15.7805586  34.9720268
  70.0032349  53.2251472  22.2018852  69.1310577  52.8840141  22.0039825
  69.8786545  54.1710815  22.2788315  22.7058983  62.6577415  54.5173645
  22.4656029  63.2920990  53.8420258  21.8764858  62.2537193  54.7724533
  80.0408936  34.0199280  17.0809612  79.7012711  34.6179123  17.7467728
  79.3657913  34.0085602  16.4024754   1.9395397  64.9187393  63.7719383
   2.6941485  65.4781723  63.9558754   2.3076982  64.0388718  63.6912193
  64.5284653  12.5290661  57.0695686  64.8201218  11.6974812  56.6958885
  64.6373520  13.1619186  56.3597298  35.7691917  56.8391914   5.5318975
  36.1701851  55.9740601   5.4483538  36.2668304  57.2675972   6.2283568
  61.8750381  18.4542599  45.6034622  61.3834763  19.0268936  46.1922646
  61.4424133  18.5544224  44.7555046   3.3883138   9.1319723  77.4272079
   2.9314952   8.3043413  77.5774612   3.7140582   9.3859453  78.2907028
  74.8388977  61.8202820   1.6553843  75.3053055  61.3042030   0.9978420
  75.5243759  62.1293373   2.2476993   5.7689395  37.5640030  60.5879135
   5.3454261  38.3648186  60.8970413   5.0457788  37.0049629  60.3037491
   6.9879088  25.3358822  71.1560287   7.6335015  24.9418144  71.7426758
   7.0204329  24.7956314  70.3665390  69.2864914  19.0008717  12.9515162
  68.4471970  19.1324291  13.3925467  69.0998001  19.1656036  12.0272646
  32.1729393  10.5697184  77.4585571  32.8452797  10.3884497  78.1153183
  32.6081276  11.1343985  76.8198242  25.3013306  22.2116222  69.4944153
  25.7111912  22.2724094  68.6315384  25.6098461  22.9881630  69.9613571
  73.4829941  60.7572708  60.6222420  73.7660217  61.1810875  61.4324913
  73.8682938  61.2896004  59.9262543   3.4359806  65.4052505  84.3620071
   3.2321315  65.2315826  83.4430313   3.5065932  66.3583298  84.4157104
  44.6491508  40.1501465  80.2125473  45.4538383  39.6966591  79.9614334
  44.9255028  41.0500259  80.3859863   8.3030043  67.2358704  63.8202019
   8.0669546  66.4767227  64.3533173   8.1804161  66.9420547  62.9174957
  28.9964790  62.4233437  87.8968506  29.0531616  63.3766136  87.8313599
  28.8332882  62.1309395  87.0001373  26.2238464  38.9903755  18.2764988
  26.3097572  38.0601120  18.0680199  26.2568226  39.4302483  17.4269962
  66.8519592  23.6248455  70.0566330  66.7032166  22.8363762  69.5346909
  67.3032532  23.3115864  70.8404922  41.8369446  38.6286469  15.9119539
  41.0348701  39.1353760  15.7849350  41.5339622  37.7311783  16.0497398
  55.8391991   8.5669193  78.3524094  56.0402336   7.6881685  78.0305099
  55.6450310   8.4430647  79.2814865   8.1827354  59.7808418  81.8268433
   8.1267357  59.2373810  82.6128159   7.9351187  59.1943893  81.1120071
  22.9030476   4.1967058  17.7130527  23.0289974   3.5687642  17.0016747
  23.5241203   4.9001837  17.5243225  14.1559420  33.4342651  60.5094566
  14.0785265  33.6352081  61.4421196  14.7276611  34.1195717  60.1634483
  86.5755539  61.3191338  55.0144997  87.0680161  61.5581589  54.2292709
  86.8130417  60.4063072  55.1775398  11.9789228  55.1438446  25.6522083
  12.3519650  55.0470734  26.5283966  12.0357838  56.0818100  25.4699383
  36.7732773   5.7608924  16.4939232  37.4410591   6.3285680  16.1091576
  36.3036880   5.3998122  15.7420340  53.5297318  61.5686302  35.3057594
  53.0524979  61.3869286  34.4961548  54.3598671  61.1030464  35.2040939
  66.6342087  46.0060425  62.7182121  67.3413544  45.4301262  63.0088921
  66.5861511  45.8676834  61.7722855  85.4558487  64.0335388  17.9424438
  85.1209106  64.3091583  17.0891666  84.8872223  64.4714584  18.5757866
  79.1290283  13.1587400  51.1704559  78.4034119  13.7819748  51.2064781
  78.9768219  12.5709114  51.9104042  55.2426910  33.3476181  75.4823837
  54.4832420  32.9279366  75.0782318  54.9545746  33.5604515  76.3700333
   1.6953384  67.1793976  21.0723209   1.2219466  66.8470688  21.8350067
   1.3995115  66.6281052  20.3478928  64.2821350  58.3041420  35.5049973
  64.9572983  57.9258804  34.9417000  63.4773560  58.2394905  34.9908104
   8.6654291  47.1547775  41.4681091   9.4611950  47.6210899  41.2121010
   8.3875284  46.7006493  40.6726418  53.7918625  66.4409409  33.3712120
  53.6610794  66.8739090  32.5276108  53.3779259  67.0248108  34.0068092
  16.8944836  30.7565784  85.7262268  15.9818678  30.9926033  85.8925247
  17.4004860  31.3528461  86.2781830  11.9545126  14.6375122  76.3971634
  11.6439867  13.7911701  76.0754318  11.9193354  15.2120361  75.6323700
  14.9527864  37.3383064  85.1829300  14.7695847  36.5848465  84.6217117
  14.2199612  37.9347725  85.0298767  60.6847382   6.8151793  80.4613953
  60.5293312   6.2324824  79.7180634  61.0185432   7.6214361  80.0680084
  12.8284779  23.2829838   3.8460841  11.9492846  23.5479755   3.5758438
  13.0563459  23.8910370   4.5493469  39.0336800  33.8381691  80.8135071
  39.7385788  33.3317070  81.2170486  39.0004578  34.6490288  81.3210831
  62.6728325   6.3574672  61.9445114  63.5562248   6.6285377  61.6947632
  62.7176666   5.4021406  61.9841690   4.8040628  70.0949020  56.2467499
   4.8961277  69.9019241  57.1797638   5.3063650  69.4074783  55.8092842
  52.5075684  55.9615746  31.8434830  53.3740616  56.3620796  31.9143028
  52.5522575  55.4333992  31.0464478  69.0376740  68.7059708  57.5212784
  68.2960968  68.6175842  58.1200142  69.7921524  68.4067230  58.0286674
  24.0852718   4.8076487   0.7751601  23.2159939   4.6290646   1.1339012
  24.5867138   4.0124502   0.9552941   9.5444641  68.8597565  52.9499397
   8.9332371  68.7083664  52.2290268  10.0734463  69.6041718  52.6631355
  44.6424065  22.9937725  25.6215096  44.7651939  23.8434696  26.0447979
  45.1026649  22.3749866  26.1885166  57.6290741  65.2119217  66.5131073
  58.3117218  64.9910431  67.1466980  57.5896759  66.1682053  66.5270844
  69.4979019  51.2072220  17.0837231  70.0866165  51.3075027  17.8317814
  69.9214935  51.6963081  16.3783207  55.1319237  44.1667786  81.3239746
  55.8656311  44.6570320  80.9530869  55.5429649  43.4538994  81.8129349
   2.7377698  41.2963104  76.1348038   3.4193935  40.6559372  75.9309769
   1.9719595  40.7677383  76.3592529  46.2435265  14.6429415  74.3499298
  45.8709526  13.7889996  74.5694885  45.7850800  14.9062738  73.5519867
  24.5254269  57.6218529  20.9117565  24.5340309  57.1764412  20.0645466
  24.9231243  58.4749832  20.7378750   3.0857613  15.5211287  86.3476562
   3.5366521  16.2129440  85.8635864   3.7212374  15.2345352  87.0036011
  12.9010477  14.7529612  17.9299107  13.6915493  14.3945856  17.5262947
  13.0286760  14.6168499  18.8687477  78.9444351  35.9679146  38.1951027
  79.8482590  35.8887978  38.5001678  78.7541885  35.1227303  37.7880363
  44.0333862  49.3614693  41.4334641  43.9574547  50.0218010  42.1222534
  43.1326561  49.0826225  41.2686501  57.6231422  15.9853554  50.8111153
  57.1853447  15.1391926  50.7185135  57.2037354  16.5448322  50.1574211
  54.0970955  66.6869354  72.1523743  53.9849625  67.6173401  71.9574432
  54.8232651  66.4108810  71.5931702  17.2765522  27.1577911   5.3169909
  16.7372894  27.3884239   6.0734529  17.3568287  26.2050095   5.3616357
  39.5967598  43.6854706  66.2286453  39.8418617  44.6100426  66.2649918
  40.4312782  43.2170563  66.2087708  77.4192276  61.2914047  84.2566605
  76.7900696  61.3024673  84.9779587  76.9581146  60.8500137  83.5433807
  82.3492966  13.6949234  33.0588226  82.0863800  14.6151361  33.0411263
  82.3244476  13.4210529  32.1419754  65.6160202  70.3183441  40.3320656
  64.7940598  70.1164322  39.8850288  65.8226166  69.5236282  40.8239822
  36.6100349  37.3465347  57.2400436  37.1913910  37.4642754  57.9913101
  35.8770218  37.9383621  57.4093552  21.6607647  43.8086128  14.0032396
  22.5674496  43.8919220  14.2985620  21.1406422  43.8801498  14.8036060
  28.4055901  59.3450394  69.9110260  29.3279533  59.5963249  69.9593353
  28.3449783  58.5526085  70.4445190  32.7886047   5.7712889  21.2865696
  31.9064922   5.6153774  20.9492245  33.3690605   5.4693880  20.5878868
  83.3680573  71.1791992  11.0152836  83.6371613  71.8700104  10.4098129
  84.1890564  70.7810135  11.3045073   4.5474253  10.6044836   5.9152331
   5.2989531  10.7427835   6.4916973   4.9251242  10.2506237   5.1100259
   5.3297687  62.1350708  22.9569492   6.2171793  62.4879265  22.8919334
   5.3998775  61.2452965  22.6110859  29.4978905  65.2737045  88.7626648
  28.9111080  65.5669022  88.0655594  29.3937016  65.9273300  89.4541473
  37.2456207  59.4772987  49.0346565  36.7811356  59.8098755  49.8026924
  37.1604462  60.1734238  48.3832054  71.8512726  14.9139004  46.4724998
  72.1107635  15.7936687  46.1988182  72.5457458  14.6339588  47.0687904
  57.0596390  14.9980679  63.2425385  56.7595978  14.2185907  63.7101097
  56.9128189  14.7946033  62.3188095  58.6949921  18.4375668  17.8090858
  59.5127525  18.6246796  18.2700481  58.9718590  18.0698910  16.9698067
  40.9184303  13.8179998  65.6295700  41.7051620  13.4205093  65.2563553
  40.4491158  14.1741915  64.8751755   4.1024194  45.9857254   8.1087790
   4.7332907  45.2707443   8.0248861   3.9675004  46.0766525   9.0520506
  82.6651535  20.0403805   4.0617805  83.6179428  20.0014305   3.9786580
  82.4765625  20.9644794   4.2252002  72.5186768  23.7662735  88.1018600
  73.4487152  23.6469917  88.2942886  72.0667953  23.3357754  88.8276062
  81.5520859  29.5782509  48.3388023  81.9686584  28.8013554  48.7118034
  80.7245636  29.6574516  48.8133202  65.8159866  47.3133240  13.0237656
  65.6778946  48.2522621  12.8990545  66.5347977  47.0960312  12.4301949
  72.3434830  23.6534786  34.4323959  72.2607193  24.5385590  34.0774117
  71.5720596  23.1909752  34.1049423  24.3946095  35.8236923  83.7337723
  23.6835346  35.7863655  84.3734665  24.5387573  34.9114113  83.4823837
  12.1147423  51.6979065  20.0829544  12.2390623  51.2835388  19.2290955
  12.4030190  51.0380783  20.7136345  58.5790520  23.0418797  74.3065491
  59.4348831  23.2121620  73.9131165  58.6485634  22.1534443  74.6559525
  57.7077217  23.3735790   7.3657293  58.3718987  23.6620369   7.9917455
  58.0396538  22.5404053   7.0312548  10.5593376  55.5309448  36.2705688
  11.3649492  56.0396538  36.3624306  10.6929398  55.0119133  35.4774818
  74.6964493  38.6336327  60.4559097  75.1797256  39.0213051  61.1855545
  75.2766418  37.9501495  60.1205597  20.2282352  64.9166946   3.2834871
  21.0196381  64.4182739   3.4871814  19.5114155  64.3699417   3.6051557
  50.7993507  51.7173882  26.6549587  50.6647186  52.1755219  27.4845486
  50.1827431  50.9857712  26.6825657   7.8139720  51.5093803  10.5325117
   8.0580902  52.4318581  10.6078329   8.0071478  51.1393967  11.3939228
  40.7376480  13.5711184  17.0648842  41.2227707  13.8511868  17.8410606
  41.0249748  14.1685047  16.3743744  13.7739582  71.3557892   6.2727914
  14.3145142  71.0964584   5.5266161  14.3977566  71.6985321   6.9128199
  37.4209480  28.5937519   6.5748587  37.5956573  28.6822605   7.5118084
  36.5764351  29.0257645   6.4468341  78.8155289  62.7076836  27.3970165
  78.6519928  63.3946533  28.0432053  77.9449158  62.4581337  27.0871964
  59.8549347  12.7469587  34.2660713  58.9215546  12.6998243  34.4729805
  60.1625175  11.8435240  34.3397675  33.7866592   9.0457096  75.2970581
  34.1077347   9.9459467  75.2449493  33.1206245   8.9889278  74.6119308
  37.6978149  46.0168686  53.6701202  38.3819885  46.6375847  53.4194336
  37.3839684  46.3352737  54.5164948  25.1815910  49.4987259  36.8780785
  25.6780376  49.9979782  37.5265541  25.6391087  49.6571045  36.0523529
  29.7541656  66.8690414  21.5289440  29.2090340  66.4830093  20.8433475
  30.0849419  67.6803741  21.1435032  78.1604843  13.5121536  59.6943359
  78.5627518  14.3489847  59.9269867  78.7874908  13.1025000  59.0982819
  75.7645874  58.3720245  44.9218063  76.1054382  58.7957802  44.1340981
  76.2225647  58.8034935  45.6431389  32.4019890  38.9093132  23.2793407
  32.9828796  39.3320312  22.6468010  31.5204067  39.1398201  22.9862366
  27.2691956  55.9793816  14.7361927  26.9758053  56.0377693  15.6454487
  27.5595913  56.8656807  14.5208435  20.5576210  30.2044086  78.8063126
  20.1313705  30.3177052  77.9567795  20.7987270  31.0913773  79.0734940
  59.8094025  22.6856728  61.6799660  59.5232277  21.8780556  61.2532463
  60.7601738  22.6910954  61.5693474  66.7559586   7.4275270  25.8732471
  66.3435364   7.8691821  25.1308975  66.3005829   6.5878911  25.9355297
   0.5770131  10.8139992  87.0361252   0.6111071  11.7451973  87.2550812
  -0.3455224  10.6469622  86.8431015   1.1645067  13.6903725  86.4929657
   1.8098096  14.2582331  86.0718384   1.1736494  13.9578171  87.4119949
  13.1161528  21.1514339   5.6676173  12.7011423  21.7553864   5.0517931
  12.5763988  20.3618584   5.6292925  64.0002365  67.2030792  74.6338654
  64.6190414  67.7358780  75.1333008  63.5451927  66.6815186  75.2950287
  79.7695312  50.7731590  82.5686874  79.5121231  51.4593620  81.9529800
  80.5608826  50.3933601  82.1869202  55.7933083  53.1149216  69.8392715
  55.4976006  54.0220947  69.7629166  56.2811928  53.0905190  70.6624374
  26.6011791  48.5928040  82.0882187  26.6355686  48.6392975  81.1327667
  25.9416714  49.2408066  82.3359604  29.4741077   7.7368436   6.2556691
  28.7661495   7.4329572   5.6876192  30.0224895   6.9637775   6.3893805
  30.5958691  63.8307533  69.8069153  30.9785461  63.0566902  70.2199783
  29.6519299  63.6741028  69.8328323  71.3355942  47.2094345  52.6356049
  70.9497223  47.7698174  51.9623184  71.2704544  47.7228928  53.4408035
  49.9835281  34.9337616  44.5464859  49.7688713  34.7651024  43.6290398
  49.2998238  35.5328827  44.8462029  59.8223991  62.3522530  88.7643661
  59.1634331  62.2668190  88.0753860  59.6269035  63.1920738  89.1799622
  38.9155235  20.4416904  20.9440327  39.7251129  20.7800465  21.3265400
  38.2551384  21.1000805  21.1600037  76.7505112  33.9244461  68.1008453
  76.8225632  33.8184967  67.1522598  75.8534775  33.6593361  68.3040085
  45.5284271  62.6020508  26.0049572  45.0352974  61.9655991  26.5226288
  45.2109184  62.4804878  25.1101723   7.0472078  30.3676929  11.8464489
   6.4935670  29.7726078  12.3520060   7.6083360  29.7907143  11.3283138
  14.3409615  68.7228928  52.0256042  13.7503548  69.0734024  51.3588524
  15.1559038  68.5472412  51.5552368  75.0524216  22.3551846  38.3165283
  74.4331436  22.8146229  37.7493935  75.0679321  21.4597988  37.9784813
  75.3486786   0.8132542  73.3330383  75.8748245   0.8565446  74.1314926
  75.9740448   0.5816551  72.6463776  46.7039986  62.4760971  73.1797562
  46.0949745  61.9437218  72.6679993  46.2222977  63.2830315  73.3615570
  39.2231560   3.1635368  49.8824463  40.0716934   2.7838092  50.1105232
  39.4368324   4.0131965  49.4968910   1.5176615  52.7625694  74.4841843
   0.5815103  52.8730812  74.3179321   1.9410386  53.3849564  73.8928986
  20.3935490  32.9714012   5.6933551  20.8004379  33.3314934   4.9053149
  19.6718025  33.5701561   5.8852172  69.3209991  43.4010582  55.5066223
  69.4632111  43.3519592  56.4519234  68.5499878  42.8553467  55.3517456
  76.3419037   2.6859736  14.2855434  77.1167908   2.1349895  14.1751089
  76.2499847   2.7828166  15.2333851  73.7888641  66.1564560  52.0970879
  73.9258728  66.9080200  52.6738167  74.6365128  66.0221786  51.6731834
  44.5607147  65.9987793  30.0022755  45.4568825  65.7341690  30.2098675
  44.1740112  66.2201385  30.8494434  58.2005272  52.0908928  15.6641207
  58.7255630  51.7588081  16.3923302  58.7450371  52.7703819  15.2665749
  69.1234970  12.6982241  32.6689110  69.3817978  11.7787790  32.7332191
  69.2962112  12.9323063  31.7569847  35.7026253  54.1955261  70.9845657
  36.5522728  54.6322365  71.0447083  35.5556526  54.0858841  70.0450897
  48.1912651  36.2111206  14.8571301  47.6728859  35.5981522  14.3357983
  48.6992874  35.6539764  15.4468203  73.8717117  19.0557499   9.0691452
  74.6174545  18.6450119   8.6316595  73.1395187  18.9266872   8.4662580
  29.1119804   4.6734180  64.1811752  29.3322468   5.2457991  63.4462624
  29.9342194   4.2333660  64.3968430  23.7353821  44.6185646  83.1363068
  24.6677513  44.7557678  83.3039246  23.4078007  44.2007179  83.9327545
  14.9724379  42.0779800  87.0015869  15.4547138  41.4510841  86.4624710
  14.1548176  41.6293373  87.2171173  32.3672447  68.2072906  46.7242737
  32.4329834  67.8548584  45.8367462  31.4709988  68.5379028  46.7849197
  59.0530510  15.5448446  11.2864037  59.1749611  16.2276249  10.6267223
  58.3935852  15.9016724  11.8813906  49.7832146  66.1019821  83.0402603
  49.2812309  65.8832474  83.8253708  50.6799698  65.8399811  83.2486191
   4.1362391  71.1202087  47.6588593   3.7625854  71.9425507  47.3420486
   3.3765242  70.5750504  47.8634644  12.3697147  30.9078331   2.1702120
  12.7259207  30.9214420   1.2818630  13.0343027  31.3463554   2.7014875
   5.9202976  51.8168068  65.7908478   5.4311099  51.3818779  66.4892502
   5.5491543  51.4632759  64.9824524  14.2033730  62.0512733  32.4867058
  15.0102034  61.9115067  31.9910011  13.5136147  61.6944122  31.9271374
  82.8652802  55.2421227  82.2649689  83.2555084  54.6229019  82.8818359
  82.9441757  56.0925713  82.6971130  70.2330322   0.3548376  79.3571854
  71.0529175  -0.0922318  79.1470566  70.5030441   1.2253561  79.6496353
  22.8503361  59.6237183  11.9670267  22.1998291  59.2830467  12.5810442
  22.3383427  59.9132500  11.2118683  74.2374420  62.4526711   6.0856290
  73.9792709  61.8509331   6.7838345  74.2687607  63.3108444   6.5084600
  13.5016890  19.7363453  17.2190132  13.1028624  18.9069328  17.4821568
  13.3226185  20.3301716  17.9480762  33.7798462  69.9969406   2.7432177
  34.1036072  70.7651672   3.2135680  34.1598396  70.0741730   1.8680774
  39.3569984  44.7245598  29.9445820  39.6110802  44.0611572  30.5861225
  38.8451157  45.3591118  30.4461288  55.4538765  49.0836716  67.4067383
  55.5035515  50.0314751  67.5309677  56.3663712  48.8031044  67.3369751
  84.6899872  63.2283096  83.5307159  85.2385559  62.7053261  84.1153488
  85.2267685  63.9917068  83.3178101  68.8402786  29.6040058  54.1523514
  69.5167694  30.0893478  53.6800880  68.0669174  29.6638317  53.5914841
  23.8051968  30.7150612  20.7471218  24.2745571  31.5487175  20.7163048
  22.8800640  30.9606190  20.7390366   8.8739414  14.0263605  14.0474577
   9.5994062  13.6770668  13.5298414   8.5874949  14.8021250  13.5654106
  52.9671898  36.8997879  89.2389984  52.8858109  37.5290489  88.5223083
  53.8833046  36.9618912  89.5093918   5.3806887  58.7819099  20.0823021
   6.2046456  59.2687035  20.1013165   5.5142746  58.0608101  20.6974430
   6.6297126  48.2744446  33.0693321   5.6992640  48.1831932  32.8639793
   6.7119994  49.1618423  33.4185905  54.1140900  24.0975437  87.9040985
  54.6894112  23.7254982  87.2356491  53.3187447  24.3378353  87.4287949
  37.3942413  51.6270561   4.1928153  36.8922386  51.3169785   4.9465241
  37.7861290  50.8354607   3.8239913  14.0968800  12.1427965  34.5736771
  13.5698700  12.8426838  34.1881256  13.7950506  11.3468361  34.1359825
  77.5782852  49.7737961  85.4574432  77.6971664  49.3518257  86.3083496
  78.3682632  50.3012276  85.3391953   9.8462820  65.4051132  39.7645760
   9.1546240  64.8269730  39.4427223   9.7025347  65.4473267  40.7099800
  35.8880539  56.7532768  61.7996750  36.8274078  56.9366112  61.8151093
  35.6326752  56.8880920  60.8870735  66.1712723  32.8021584  48.7051659
  65.6884689  33.2252579  49.4151764  65.6681290  33.0081787  47.9173622
  83.1900024   4.0349193  78.0943222  83.5851669   4.8690457  78.3479233
  82.3024521   4.0721469  78.4508209  74.1642227  35.2225266  58.6555290
  73.4430237  34.6952400  58.3119049  73.8800278  36.1278915  58.5298920
  34.8184776   7.8127999  79.0209885  34.5670815   8.6964121  79.2898026
  34.0342903   7.2847042  79.1706467  48.2873001  62.4178162  15.5101652
  47.8204155  62.5749550  14.6894598  48.5600700  61.5017357  15.4589357
  57.1984787  63.3632736  33.9038277  57.4086761  63.0918694  34.7973557
  56.2816200  63.6350479  33.9454842  50.6221619  70.0759506  22.9554367
  50.2859573  69.1797409  22.9517059  49.8392181  70.6256104  22.9222145
  29.2132225  21.6707726  73.8250275  28.6754932  22.0560722  73.1332016
  28.6683025  21.7249260  74.6101151  25.5211773  51.2982483  82.8857956
  25.8865738  51.9106293  83.5243149  25.1536789  51.8571091  82.2010651
  34.5161629   1.2244369  71.3737106  33.8475456   0.7854649  70.8478928
  34.1735420   1.1984087  72.2671127  47.3027382   5.1241183  39.4973946
  48.0006180   4.4736395  39.5753517  47.5462341   5.6461911  38.7329445
   4.4846325  62.3224792  63.2958298   3.6198397  62.1057053  62.9474411
   5.0054617  62.5432625  62.5236740  63.5438957  47.1557312  75.3505173
  62.5956001  47.0410576  75.2886810  63.9064331  46.4340057  74.8367920
  78.3632202   5.0786481  21.8765869  78.6509628   4.4234776  22.5123425
  77.7188950   5.6049457  22.3499680  21.9869270  63.5223808  48.4870300
  21.2326031  64.0863800  48.3163376  22.7235222  64.1274185  48.5741425
  25.2212601  32.8558006  20.6455383  25.6399651  32.5007133  19.8614273
  24.7706776  33.6433678  20.3406639  83.1081085  29.1585712   0.7282893
  82.7483597  28.7143612   1.4960726  84.0421829  28.9502754   0.7468402
  31.2992287  58.9522057  25.4476662  31.3197117  58.0184059  25.2383118
  32.1659241  59.2727127  25.1979733   9.2936926  47.3555908  32.3033562
   8.9102192  46.9372597  31.5325279   8.5882940  47.8967667  32.6580009
  77.4120026  43.8213387  66.0836563  77.1926193  44.0511742  66.9865799
  77.4195557  44.6579552  65.6186295  67.6913605  19.1727104  30.3463898
  67.7193298  18.2374554  30.5482483  68.4167328  19.3079357  29.7366543
  50.4009094  56.7527351  86.0372009  49.8664932  56.3309097  85.3643723
  51.0761452  56.1073036  86.2462616  56.7209702  60.3311768  29.7015953
  57.6667900  60.4691734  29.6504688  56.6080551  59.7104340  30.4214268
   1.4242667  28.6758614   4.4243140   1.1059855  29.2382946   3.7181995
   2.2675128  28.3501930   4.1094990   1.8450738  56.9141998  86.5854874
   2.4457829  56.3710136  86.0752640   1.3679745  57.4238091  85.9305801
   8.7415524   4.4170551  68.7127151   8.1630402   3.7449710  69.0730743
   8.4117985   4.5669518  67.8266983   9.6440897  39.6743317   3.7420666
  10.4643974  39.2440376   3.9832678   9.1052256  39.6223450   4.5314679
  49.3470993  25.1746101  20.2680969  49.5190849  25.7456703  21.0167923
  48.8321419  24.4535332  20.6301708  23.9006824  66.8001328  25.3507156
  23.9828835  67.3662567  24.5832653  24.7950039  66.5110779  25.5320110
  52.2167206  18.3521900  64.3806686  51.5965614  18.6567287  65.0431519
  52.3554993  19.1119785  63.8152504  23.4067783  64.4606171  69.5432816
  23.3789845  64.2684097  68.6059875  22.5214119  64.7577667  69.7531967
   0.7166812  37.9653358  83.6234589   0.4894355  38.4354553  84.4256897
   1.4700280  37.4271469  83.8664627  18.2815037   1.7200201  49.2866020
  17.8823013   1.1483107  48.6308441  18.0431843   1.3252946  50.1254272
  30.9894829  56.1151314  25.1112938  30.2102566  55.5641479  25.0374603
  31.6794415  55.6136703  24.6768684  55.1366653  15.0784359  33.2969894
  54.5989037  15.8700514  33.3166580  55.9040108  15.2969608  33.8258171
  68.1117477  15.0908203  68.6587372  68.9515686  14.7002850  68.4170609
  68.3061447  15.6151543  69.4356003   7.5369658  68.7988892  83.5485229
   6.6392512  68.4670639  83.5332413   7.6445026  69.1583099  84.4291382
  43.7015457  64.8136292  44.2033958  44.5589638  65.1390533  44.4775543
  43.0899429  65.5033264  44.4612541  76.8892441  70.9593582   3.0588970
  77.5429001  71.2863770   2.4408181  77.0239487  71.4825134   3.8490803
  82.0300522  46.4161606  86.1602020  82.6078949  46.8283615  86.8023987
  81.4094086  47.1041756  85.9200516   5.8453350  31.4479046  19.2850571
   6.4433961  30.7748737  18.9601212   5.0429678  30.9720287  19.4994888
  17.4652843  55.7403564  15.7844744  16.7246227  56.0507660  16.3053398
  17.1538448  55.7762527  14.8800688   6.2821207   9.5146313  69.2524490
   5.9097710  10.3730536  69.0507050   7.1685839   9.7042933  69.5597610
  47.0974045  30.6504574  73.3559341  46.6676865  31.3630619  72.8828888
  47.8636017  30.4372005  72.8233032  23.4976349   4.3634157  71.7398071
  23.1230507   3.5382528  72.0480728  23.7756119   4.1798310  70.8424454
  59.7246056  32.0938644  66.0312119  60.1899796  32.8528633  65.6796799
  60.3148575  31.7373791  66.6950989  41.7977562  49.6951218  16.4291668
  41.9529572  49.2283630  15.6080198  41.9050064  50.6191139  16.2034149
   8.8158979  19.3674564  26.7306175   8.0106573  18.8618946  26.8411884
   9.3741665  19.0906582  27.4572201  28.4381123  63.1403084  62.4268761
  28.9377747  63.6215401  61.7673416  29.0759315  62.5485420  62.8259125
  49.0530090  60.0512886  63.1615791  49.5348358  60.0185471  62.3351440
  49.6185265  60.5528488  63.7488251  14.2899580  41.5088348  32.9376640
  13.4914083  40.9824295  32.8996010  14.3761282  41.7468910  33.8607750
  69.4398651   0.3386930  72.9700317  68.6488571   0.8448399  72.7846909
  69.1160126  -0.5011752  73.2955627   1.8698779  37.7813835  81.0077362
   1.5172815  38.1762924  81.8051987   1.9024100  36.8440170  81.1988220
  27.1934776  46.7989311  32.4555321  26.7816753  45.9777107  32.1867371
  26.5021286  47.4546356  32.3643150   7.1819525  25.8324299  79.4868698
   7.9406247  26.3431435  79.2043457   7.1217208  25.9938679  80.4284286
  86.1179199  24.8316498   6.1360173  86.4956512  25.2799263   5.3793154
  86.3189316  25.4025745   6.8775516  16.1731834  11.5256786  29.2452316
  15.7511511  12.0656128  29.9135075  16.5028381  10.7655210  29.7245235
  23.7856579  50.7779274   5.1397052  24.3994026  51.4600105   4.8671093
  23.8244915  50.7890701   6.0960522  70.6023254  39.1639175  48.3337326
  70.7616196  38.2563782  48.5930176  70.6567078  39.1530685  47.3781433
  51.9443779  49.8286324  56.8792839  52.7293663  49.6892014  56.3495789
  51.2262573  49.5122566  56.3311577  49.9035721  13.5921383  46.2890930
  49.1418762  13.3461123  46.8139915  49.8184357  14.5383625  46.1722832
  28.6762409  55.9153938  10.9084826  27.9707336  56.5342331  11.0969734
  28.2800045  55.2722549  10.3206024  17.2290974  18.6808186   0.4683595
  17.6509991  19.3155975  -0.1106787  16.3611088  18.5487442   0.0870651
  19.3346233  69.0075760  53.4256096  19.2327900  68.5880127  54.2799072
  18.7280025  69.7476654  53.4484138  37.7366333  43.0108833  68.5304260
  37.0577354  42.3411903  68.6131439  38.3231773  42.6749039  67.8526993
  53.5728149  29.1676693  80.8405457  53.0502205  29.6115799  81.5084305
  54.2250977  29.8165092  80.5764160  63.5413208  25.0578156  69.4853134
  64.0522385  24.7758961  68.7265625  64.1483307  24.9880333  70.2221375
  64.2218018  57.2723770  87.1272659  63.6996498  57.8289032  86.5494537
  64.5741119  56.5934677  86.5517731  42.5158195  63.0463142  36.7321854
  43.0529633  62.2794724  36.5330238  42.0534897  62.8124008  37.5370255
  55.8380089  57.6093330  35.3534012  55.9817810  58.4980125  35.0281143
  54.9978485  57.6543465  35.8098335  16.6626225  63.8752251  74.5753174
  16.1415958  64.6768417  74.5287552  16.1910896  63.2507286  74.0240555
  68.4939728  28.0666485  21.4218349  68.0125961  28.6578636  20.8430653
  69.1790161  28.6133461  21.8066349   3.0570347  64.4976044  11.3090830
   3.5100019  64.0086060  11.9960556   3.7192380  64.6256638  10.6298780
  82.9714661  28.3753834  10.2232351  83.6451569  29.0478859  10.3237944
  83.2089386  27.9171257   9.4171095  43.0557175  70.2596207  38.6564598
  43.4799805  71.0704880  38.3758888  42.2695885  70.2003555  38.1135712
   4.3175650  50.8824158   1.5850816   4.2826591  50.0525436   1.1093477
   5.1539145  50.8570061   2.0499525   9.6931868  59.8653069  26.7857780
   9.5777369  60.1132584  25.8684864   8.8545370  60.0735092  27.1975422
  23.4010029  65.6353760   2.1180747  22.8948421  64.9368210   2.5328672
  22.7695103  66.0902328   1.5608051  41.8302879  55.8188362  72.0289612
  41.1942787  55.2186852  71.6396790  42.6462059  55.6391907  71.5618057
  74.1867676  40.9616356  58.8388596  74.1344757  40.1945000  59.4089508
  73.3253555  41.3727417  58.9108963  58.7255440   6.8873143   5.7328510
  59.0944710   6.0217943   5.5567842  57.9829903   6.9577188   5.1329422
   1.3642492  65.1154251  66.4778061   1.5919052  64.2199631  66.7279053
   1.3098382  65.0908051  65.5224762   5.9565535  40.8805275   2.6215949
   6.0474224  41.3393593   3.4567282   6.8548007  40.7709465   2.3095438
  65.6940308  51.2214279  83.4467468  66.4818573  51.0244942  82.9400253
  65.2041092  50.3991699  83.4570465  75.0133057  10.3978996  75.4614563
  75.4530487  11.1751490  75.8060379  74.4466629  10.1067905  76.1758804
  21.0541534  31.1831913  34.5904732  20.3079052  31.0891685  35.1825066
  20.9579830  32.0611420  34.2214394   3.5678017  64.1926651  73.4763794
   3.4680381  64.6629333  72.6486588   2.9954462  64.6577454  74.0865784
  18.4948769  16.7111893   2.0835080  17.9847641  16.0856533   1.5689975
  18.2505341  17.5669060   1.7309781  86.5083618  38.1525078  16.9908085
  85.7947540  38.7426224  16.7484035  86.5947800  37.5613174  16.2429714
  11.5500488  57.5856667  24.6619740  11.1264296  58.3962440  24.9443588
  12.1812038  57.8638878  23.9982967   4.3729501  26.8395481  63.5384789
   4.7965255  27.4413567  64.1505585   3.7161877  26.3846378  64.0656891
  72.1026230  41.5867767  86.6683197  71.2195358  41.9412651  86.7718887
  72.6481552  42.1339684  87.2333069  76.7609177  71.1056671  70.8516693
  76.9054413  71.2163620  69.9119339  77.5985031  70.7856445  71.1867447
   9.0185242  58.1095886  45.1242256   8.3805428  58.1674995  44.4129906
   8.9842234  58.9675827  45.5471954   4.8399949  55.8495102   1.3022709
   4.9820371  55.5979118   0.3897175   4.1588058  55.2526360   1.6120349
  66.9524765  26.3437099  65.4060135  66.1481323  26.8188419  65.1973953
  66.8484116  26.0873661  66.3223648  48.6462440  19.0397129  13.4944887
  48.8830910  19.9570904  13.3582745  47.8968353  18.8974266  12.9162407
  26.0322475  10.9198198  72.3978271  25.6120090  10.0734377  72.5503769
  25.3047600  11.5308361  72.2809830  69.1197357  54.5652046  48.6119804
  69.2691193  54.8209305  49.5222092  69.5974960  55.2167282  48.0986595
  42.8504372   6.1147337  88.1517944  43.1262970   6.1522803  89.0676117
  43.0589943   5.2224088  87.8752213  56.8653259  12.4678373  18.2213383
  57.4365883  12.6133337  17.4672031  56.0241737  12.8428946  17.9605236
  10.8755074  20.4274788  86.0066833  11.2787981  21.2812424  86.1637726
  11.5550499  19.9194965  85.5634995  12.5222673  18.0639629  78.3897171
  12.9505596  17.2134171  78.2929230  11.7692528  17.8900566  78.9544830
   4.3516879  66.9475327  45.5206299   4.7714133  67.2231979  44.7057228
   4.7257552  67.5217667  46.1888809  85.4069672  56.8510590  21.8006153
  86.2813797  56.8913994  21.4133034  85.2494125  55.9171944  21.9395733
  71.4738083  55.3587227  12.6052237  71.9203110  54.9743423  13.3596230
  72.0771255  55.2222900  11.8747272  69.5472031  31.4381256  21.4153671
  69.1009369  32.0068054  20.7879257  70.4643936  31.4530411  21.1419277
  83.7151108  52.2068787  22.3739433  84.6294708  52.0040016  22.5714760
  83.2124023  51.5971870  22.9141235  66.6652069   0.5777351   2.6999857
  66.8736649  -0.3520544   2.6090534  65.7161331   0.6228700   2.5839977
  53.6776581  69.3571854  71.5593643  53.1525993  69.6846924  72.2896271
  53.9359207  70.1434937  71.0784760  40.5353661  55.5906525  11.9631872
  40.4622879  55.7792244  11.0275955  40.1863251  54.7042923  12.0568438
  50.6298561  65.1354218  49.6837883  50.8366623  65.3442993  50.5947380
  50.1998520  65.9224625  49.3492737  60.5016899  29.2766685  21.1530266
  60.9603004  30.0859871  21.3786602  60.3261871  29.3542881  20.2152596
  63.9772835  37.6947365  13.3452892  64.8103943  38.0949669  13.0963326
  63.4529457  37.7153969  12.5447426  57.3629951  13.0015221  13.2377844
  56.9686356  12.1788836  13.5275764  57.3803062  12.9355764  12.2830162
  64.7124863  15.1689072  31.7730579  65.0648499  15.5456715  32.5793571
  64.7967377  14.2231045  31.8938522  48.9952850  53.4360542  66.8545227
  49.6169014  53.9927979  66.3856277  49.4474945  52.5975266  66.9473190
  17.4787083  56.0112991  38.1371994  17.1679649  55.6119804  38.9497337
  16.9518585  56.8049622  38.0435982  58.1023827  48.8173141  45.9393654
  57.8479156  47.9991760  45.5126038  58.9615555  49.0226059  45.5707054
  71.4162903  22.1018085  20.3813705  71.2625580  22.4013519  21.2774029
  71.4021378  22.9016247  19.8557034  58.0816536  17.6572838  13.0399637
  57.7836418  17.0679474  13.7328596  58.0907898  18.5226250  13.4490271
  66.9541245   4.2558532  66.9144745  66.7456589   5.1589050  67.1537857
  67.5635681   3.9631095  67.5920563  67.5241852   2.3734021  80.4434052
  67.0195694   3.1354489  80.7277985  68.3048706   2.7433424  80.0312042
  36.6492844  17.4733887  74.1922989  37.4882469  17.3930607  74.6460876
  36.0603676  16.8916340  74.6728897  57.8576508  63.4523544  50.6345215
  57.7932816  62.5893974  50.2253876  57.7767830  63.2793617  51.5724792
  45.7238007  61.1612968  87.2831802  46.0517731  60.9939384  86.3996353
  44.7731705  61.0811920  87.2049561  74.3651581  66.1617203  59.2688942
  73.4640808  65.9556122  59.0202751  74.8842545  65.4452209  58.9036522
  15.3042650  62.3488235  72.6049423  15.3590212  62.4090576  71.6512070
  14.3829346  62.5165901  72.8030243   4.6457057  56.4875374  26.6671352
   5.3727627  56.6710892  26.0722160   3.9600985  57.1015053  26.4040413
  45.6471405  42.3927345  13.1821699  45.9061089  41.4791374  13.0617199
  46.2762451  42.7385254  13.8153305  24.0246525   7.7289505   4.4412360
  24.9040775   8.0576935   4.2547669  23.7998199   8.1135645   5.2884398
  23.3192959  65.1439209  16.1396313  22.9032917  64.9026108  16.9672451
  23.0683689  66.0574570  16.0028458  23.1999645   2.7571671  30.4834709
  24.0993309   2.9321392  30.7605209  22.7696667   3.6116819  30.5131340
  57.5140266  52.5290146  40.5029259  57.7578392  51.9748154  41.2443085
  58.2972298  52.5517159  39.9530983  48.2016830  13.8893747  29.5076962
  49.0810661  13.6035452  29.2602787  47.8539581  13.1678972  30.0319004
  81.6914597  36.5821838  27.0729656  82.0023880  37.3370094  26.5731697
  81.6753387  36.8860207  27.9805202  34.8230591   3.8715701  86.1936111
  34.0347672   4.3841043  86.0143433  35.0396919   4.0756512  87.1033630
  73.2794037  70.2547607  48.8143997  72.9088058  70.0092468  49.6621056
  74.0931320  70.7097015  49.0314598  15.1708412  55.5244598  13.2786360
  15.8744879  55.8878021  12.7409573  14.8854027  54.7438049  12.8039427
  25.5835705  64.3244019   1.0178927  26.0993137  65.1044388   0.8134897
  24.7979317  64.6625443   1.4476165  78.6307449  43.9618073   8.7132549
  78.0977554  44.4335938   9.3532314  79.4804993  43.8557243   9.1409264
  56.3520050   5.7680354  23.6249256  55.5033150   5.4773164  23.9587460
  56.7676048   6.2001729  24.3710918  73.1589203  54.0630913  76.8930054
  72.3002853  54.4856720  76.9129791  73.5881500  54.3546791  77.6973495
  41.4366913  71.4452591  44.1142311  41.1318626  70.7319183  43.5534592
  42.3897896  71.4275284  44.0275230  12.0726013  68.2324524  36.5945930
  12.0365276  67.3088989  36.3456383  11.3119593  68.3574295  37.1620750
   6.9286294  43.1572189  39.4595413   6.2595191  43.0676384  38.7809410
   6.4356084  43.1882019  40.2794228  43.0747490  29.7124844  80.0966187
  42.3646164  30.0705147  80.6293182  43.4481163  29.0136337  80.6336823
  57.2124901  40.6159897  13.5693598  57.9682808  40.1008263  13.8515301
  56.8093071  40.9157677  14.3841038  84.7095032  36.9351959  52.5307999
  85.5547562  36.7759743  52.1107635  84.7883377  37.8138885  52.9021683
  66.0816040   6.6578374   2.8613758  66.4675903   7.5336967   2.8723569
  65.2280197   6.7669935   3.2805486  74.9114609  20.0767059  36.6731529
  75.1303940  20.6529007  35.9408302  75.3417892  19.2479706  36.4628105
  84.1550903  45.3503380  55.9437675  84.0966110  45.5793877  55.0162201
  83.7666016  44.4773178  55.9998474   3.4694228  14.5943041   1.2302012
   3.9700036  15.3221712   0.8616073   2.6415222  14.6054811   0.7499018
  37.9388924   1.3314652   6.6295214  38.7878532   1.1955552   7.0502629
  38.0143776   0.8827736   5.7873755  63.6404190  34.8646889  77.6102066
  62.7692413  34.7272186  77.9822159  63.4836807  34.9947281  76.6749268
  70.4228592  11.8101110  71.6957321  71.0891418  11.1311102  71.5896454
  69.5964203  11.3294582  71.7426987   6.6951351  23.8437920  68.9078751
   5.9543304  23.3813248  69.2997513   7.0557370  23.2243328  68.2734756
   7.0563221  30.1550999  57.8467026   6.4995809  29.3977394  57.6659393
   6.6545506  30.8707314  57.3540764  25.3208065   3.4763412  84.9224319
  25.4862576   3.0960283  85.7851181  25.9926720   4.1511726  84.8253250
  80.5351181  46.8193665   3.3862395  81.0855103  47.5111580   3.7532945
  80.7583237  46.8041916   2.4555514  59.6871185  44.4929695  64.0948181
  58.7635994  44.3102531  64.2679062  60.0706787  43.6353607  63.9114647
  72.3658676  47.8901711  17.4368095  72.6073608  48.6784401  17.9231701
  73.0415344  47.2516479  17.6648293  66.8810196  71.0241623  18.3072281
  66.9772644  71.9013290  18.6781082  67.3267899  71.0714874  17.4614811
  52.5921402  38.1196899  79.5511475  52.3216591  38.7741165  80.1951981
  51.7821312  37.8749504  79.1036835  45.6968269  21.8316650  16.4696541
  46.0379219  21.7735672  15.5771809  46.3424950  22.3600025  16.9389133
  45.4067345  63.6231499  40.5382423  45.3561096  62.8167076  41.0513916
  45.6803703  64.2906113  41.1674118  12.6046314   4.2177625   6.4782290
  13.0692444   5.0313368   6.6743479  12.2459450   4.3522625   5.6010256
  19.1655464   8.3792830  70.9782333  20.0538673   8.7355795  70.9913712
  18.7819805   8.6615229  71.8085709  58.3025093  68.6857910  80.4400864
  57.9980507  67.8544922  80.8040695  58.6292534  68.4605179  79.5690384
  42.6965294  37.8123512  20.0333290  43.3594322  38.4614296  19.7977638
  42.6921577  37.8109894  20.9905167   7.9556913  21.2909031  80.1613846
   8.3526058  21.9523277  79.5946350   8.6643171  21.0186539  80.7444458
  25.3488789  50.8774986  18.2587376  25.5146389  50.8708382  17.3160229
  24.5892353  51.4502373  18.3643112  62.2533264  10.9612446  83.4028473
  63.0147705  10.3933430  83.2848740  62.2808914  11.2099752  84.3267593
  36.4643440  27.7859306   2.7368836  36.6012154  28.5765228   3.2588639
  37.1586990  27.8104420   2.0784757  39.9109039  13.5458651   0.3856064
  40.0962563  14.4743290   0.5264332  39.1100883  13.5383310  -0.1386733
  14.2670736  42.1489983  15.6478825  14.5240612  41.9271851  16.5428619
  13.3589544  42.4415817  15.7249947   2.6132224  65.7433624  58.2363663
   2.3060467  65.0095901  58.7687645   2.3354950  66.5220795  58.7187653
   8.7158222  48.1523972  25.3302994   9.6252537  47.9434319  25.1169949
   8.1994982  47.5570068  24.7870235  62.8364487  53.7138824  51.7661362
  63.4238243  53.5781708  52.5096436  61.9594688  53.5830612  52.1267281
  22.2777843  25.1364822   0.7812591  22.6780281  24.2817307   0.6217661
  22.9951000  25.7608776   0.6725402  66.1230469  37.6983147  75.9941483
  65.7918472  38.5348969  76.3207474  66.8395081  37.9374619  75.4061737
  57.9780502  16.4375172  83.4496231  57.3817787  15.7845325  83.0831528
  57.4032707  17.1273918  83.7811890  37.2056923  37.8686371   0.3434126
  37.8672981  37.4342957   0.8817980  37.2589989  38.7904396   0.5957391
  50.5901566  64.2872620  73.8990555  51.2661400  64.9361496  74.0945740
  50.9422989  63.4646683  74.2389984  37.1848183  57.9631348  54.2774544
  38.0270424  57.5120468  54.3358612  37.2760620  58.5439339  53.5220871
  22.5505142  54.7620201  85.7351990  21.7693825  54.7646904  86.2884216
  22.2561455  55.1329918  84.9033585   9.6920767  14.8974533  78.0833435
  10.5713301  14.6946192  77.7639618   9.6965723  15.8460798  78.2110901
   1.8433985  52.0016937  58.1552353   1.9118452  51.2039642  57.6306648
   1.4938165  51.7062721  58.9959221  17.7545223  38.0924568   1.5307229
  17.9336109  39.0234756   1.6625044  16.9675846  38.0746765   0.9860743
  41.5396881  24.2879772  71.2765045  42.4907417  24.1815586  71.2565842
  41.3877106  25.1546688  70.8997040  62.4563751  36.8388062  66.0896759
  62.2848587  37.5190048  66.7409363  63.1649551  36.3182106  66.4679871
  41.3830452  53.8552208  20.8477955  42.2413445  53.4952278  21.0713158
  40.9847221  54.0666199  21.6921177  44.3687439  54.3026047  16.1734161
  44.3190956  55.2435379  16.0048676  44.1378250  53.8970604  15.3376875
  69.8927002   6.1556106  67.9307632  70.6830750   5.7467427  67.5781021
  69.3796692   6.3913164  67.1577988  82.9675903  55.9930687  70.4089737
  82.0174179  55.8773079  70.4117126  83.1520081  56.4403038  69.5830154
  62.6085968  68.4430542  56.9125710  62.7450829  69.1341019  57.5606880
  62.5212479  68.9086380  56.0808029  51.6599159   1.2323096  56.5122910
  51.5660820   0.5638803  57.1909866  51.8065224   0.7366779  55.7066307
   4.6002092   3.6354980  75.2679901   4.7386727   2.9550338  74.6091843
   4.0774550   3.2087765  75.9468689  48.5689087   5.6905365  51.2218742
  47.6215096   5.7953000  51.3095474  48.6737061   4.9638829  50.6076889
   0.1814081  23.1164169  55.9362602   0.4743764  24.0146484  56.0898247
   0.1468589  22.7233562  56.8083496  43.4884911   8.4132957  25.4408169
  43.6940460   7.4950361  25.2653809  44.2079964   8.9006863  25.0395737
  79.5210342   9.5888777   6.6411514  79.8737488   8.8015070   6.2265811
  78.5853119   9.4109392   6.7359953  47.6130447  41.1357460   5.0546679
  47.8431740  41.4909592   5.9132113  46.8965683  40.5262375   5.2318583
   0.3675670  30.1372280   2.4040363  -0.1440036  29.5926533   1.8057351
   0.4042856  30.9930382   1.9768655  75.2532501  22.9498043  72.3998718
  74.3904266  23.2532692  72.1175842  75.0726776  22.3669758  73.1373901
  83.3593140  24.7622719   5.7620192  83.1759720  25.3801327   5.0543027
  84.3141403  24.6981144   5.7825880   7.3020368  21.7069454  26.0980663
   7.7327242  21.9306507  26.9231091   8.0200672  21.6017399  25.4738903
  44.7228508  67.4679108  87.4975967  44.6117516  66.9035416  88.2626953
  43.9050407  67.9624252  87.4439621  57.6963768  52.1053963  83.8023834
  57.6139679  52.4469070  82.9119797  58.4749641  52.5375137  84.1535416
  36.0477676  29.7730026  78.9986649  36.3126793  29.2661037  79.7661972
  35.1869774  29.4243946  78.7668381  71.0688400  30.1174641  64.9257355
  71.6612320  29.8131657  64.2381973  70.4527740  29.3951588  65.0480652
  86.5619965  12.3674145  17.2922058  86.0216827  12.6985970  18.0095692
  87.4488144  12.3433552  17.6516685  51.0529442  62.3586044  88.5970306
  51.8628731  62.4723053  89.0943375  51.3316498  62.3621407  87.6813126
   1.9769934  25.3365898  56.8239326   2.8948631  25.6036282  56.8733101
   1.7681026  25.0327244  57.7072563   3.0255430   5.2249565  28.9671593
   2.7088015   5.2955294  29.8676720   3.4249873   6.0758367  28.7863846
  24.7459583   0.7030069  34.0522919  25.1248875   0.7760702  33.1763306
  25.2034187  -0.0377315  34.4501228  73.5362244  52.5671387   9.9060440
  73.1267853  53.3208733   9.4812107  72.9400330  52.3416100  10.6201391
  57.6939583  49.7631073  59.8837128  57.3450890  49.2937126  60.6414642
  57.8472862  50.6524811  60.2026825  64.0608444  10.8349771  37.1903038
  63.2101288  11.2092934  37.4192390  64.1473694  10.0706902  37.7600479
  70.4478989  18.7674713  58.4417267  69.5641251  19.1297550  58.3791428
  70.5557556  18.5580254  59.3694839  82.5163498   8.5082397  37.6472969
  82.2221146   9.3973513  37.8451424  82.4650650   8.4456501  36.6935234
   4.7270346  27.2743301  18.1889286   4.6591392  26.5128536  17.6129284
   4.0996370  27.1005497  18.8906441  48.0661049  13.4657421  83.4194489
  48.2320137  14.0908642  82.7138062  47.2921333  12.9809055  83.1328583
  77.4420853  47.6546974  21.2050762  77.9585724  48.2283936  20.6390800
  77.8232193  46.7859840  21.0773964  59.6535149  39.1189156  54.2984200
  60.1997185  39.0140457  53.5193863  58.7558975  39.0903015  53.9672127
  14.1578197  67.2130508  60.1645622  14.7530556  67.6422806  60.7791214
  14.0233307  66.3394470  60.5319290  42.6621323  56.7567444   3.0863531
  42.4959183  56.7922020   2.1443617  43.5856209  56.5152740   3.1576939
  25.7415695  28.1965675  17.1949844  26.2301865  27.4008465  17.4054909
  26.2821865  28.6445370  16.5443783  12.1260920   2.1142552  73.9028854
  11.8824110   1.4999479  73.2104492  11.2909079   2.4166582  74.2596130
  79.7295151  11.0935383  81.3484421  79.1045685  10.9837856  80.6317673
  79.4107513  10.5086823  82.0358734  59.2214203  47.5872688   4.3632684
  59.3985558  46.8524933   4.9506035  58.7435684  47.1984711   3.6306512
  17.2640285  41.3484650  33.4180450  16.4945602  40.7995224  33.5690804
  17.3847237  41.8231888  34.2404213  45.8005829  63.0234871  30.0998211
  45.9545860  63.1156540  31.0400429  44.8547516  62.8979111  30.0232162
  30.4624290  47.9393005  76.6308365  29.7187424  48.2055244  76.0902023
  30.4384613  46.9825020  76.6167068   3.9543445   3.3313291  15.9034271
   3.2507000   3.7584531  16.3919773   3.7456005   2.3982916  15.9492378
   7.9805388  27.7386265  23.1306763   8.6774969  27.1241608  23.3607063
   7.3690820  27.2217884  22.6060505  11.2382441   5.4623442  87.7667465
  10.6503916   6.1678357  87.4966660  10.8999233   5.1808867  88.6167755
  61.1713333  13.1784096  70.7223969  61.7032394  13.8420334  70.2831879
  60.2991676  13.5688648  70.7780991  16.9940472  14.8974400  33.1584778
  17.3884315  15.4835815  32.5126228  17.2089043  14.0182848  32.8467789
  25.4465065  41.9414330  22.3987083  25.2026463  41.4895897  21.5908718
  25.7267189  42.8105659  22.1117897  82.4902267  33.4912643   1.1431353
  81.9190903  32.8447876   1.5579898  82.2476196  33.4662514   0.2175282
  35.6803055  64.2517700  40.1674309  35.4762383  63.8027878  39.3470650
  36.6236877  64.1327209  40.2773781  20.5953407  57.1596260  19.9015064
  20.8303623  56.4097862  20.4480705  20.0498142  56.7887955  19.2078781
  65.8765259  32.0544052  51.9803123  65.3732147  31.6624622  51.2666664
  66.7881927  31.8532047  51.7690964  45.5211143  32.9775581  75.5453949
  46.3513947  33.4373817  75.4211884  45.0875511  33.0317993  74.6937408
  39.3395653  40.0870399  16.0869350  38.5196152  39.7117043  16.4079266
  39.1331024  40.3938408  15.2040539  10.6196795   9.8664598   1.4098754
  10.0053978   9.8416481   2.1435475  11.0973425  10.6879168   1.5251061
  72.8112030  62.4337196   3.6065192  73.5274582  62.6994324   4.1832452
  73.2466049  62.0569801   2.8418438  30.2030945  64.9445267  64.1344986
  29.6133385  65.0806122  64.8760529  29.6488476  64.5607376  63.4549751
  33.0043335  55.1641083  86.1249390  33.1918755  55.3598862  87.0429459
  33.8487740  54.9013596  85.7587280  42.4068489   9.0501804  43.0391922
  43.0413704   8.3464432  43.1747208  41.6305962   8.6094894  42.6935692
  43.6067390  39.2871857  28.6495266  44.4906082  39.5471420  28.3898544
  43.1250839  39.2194099  27.8251190   7.0198984  34.1604691  30.6340771
   6.1618834  34.0261383  31.0365677   6.9338031  33.7878761  29.7565842
  35.0440636   5.7265692  73.2945023  35.4464417   5.2343712  74.0100861
  34.1251335   5.8108935  73.5488358  75.4581528  30.0891342  28.0916061
  76.1506577  30.6141624  27.6903381  74.7062454  30.1994267  27.5096226
  76.8651428   5.6860499   1.3610512  77.1041794   5.8921132   2.2647281
  76.0224915   5.2376494   1.4324946  33.0497932  54.8400688  60.7615852
  33.4695625  54.7842636  61.6200218  32.2599487  55.3587265  60.9144630
  60.1602173  25.6485100  44.9638824  60.6382866  25.2198505  44.2540016
  59.3694649  25.1203213  45.0732498  56.1712570  34.6666756  60.0405388
  56.1079483  33.7715797  60.3737526  55.8265877  35.2107773  60.7486229
  13.3683834  36.7178040  62.8966179  14.2760153  37.0040894  62.7942657
  12.8471642  37.4600487  62.5906258  58.2971725  17.6654205   9.6442785
  57.4400291  17.7690926  10.0575457  58.6626740  18.5498962   9.6257229
  69.2754822  66.2675552  38.4749146  68.8552017  67.1254425  38.5351486
  68.5529099  65.6564026  38.3313637  70.0440521  42.4269638   5.9353657
  70.2509460  43.3613129   5.9557662  70.8679733  41.9942589   6.1592984
  54.8842659  60.7700729  62.8916206  55.7318192  60.9853706  62.5023460
  55.0011673  59.8894348  63.2480392  81.6014481  24.5010777  28.4178467
  81.1315002  23.6966534  28.6375790  81.6049500  25.0061359  29.2309494
  77.8878784   3.7866118  73.7856674  77.8245697   4.1265798  72.8931122
  77.0270309   3.9563575  74.1682358  78.5313034  20.7145424  50.2368965
  78.3936462  20.9714775  51.1486359  78.7870560  21.5246220  49.7957726
  64.1432571  45.0721817  63.1623077  64.9876556  45.3311119  62.7932968
  63.8187714  44.3965187  62.5669746  47.6005936  48.6035423  42.1467361
  46.9100227  48.1174011  41.6961670  47.6185722  49.4548492  41.7094841
  79.7202072  43.6765404  18.0784454  79.0061035  43.3608437  18.6321774
  80.4022293  43.0104065  18.1641769  54.7955780  60.3875694  83.6575928
  54.0733452  60.9946251  83.8191147  55.4592705  60.9171181  83.2156372
  49.9792213   1.5276555  38.0385704  50.3595238   2.4056904  38.0642128
  50.0719261   1.2530402  37.1263046   3.6540279  58.8508148  15.5736904
   3.4291828  58.0822258  16.0980492   3.0239506  58.8418617  14.8531666
  39.7206879  59.9948730  77.5040054  40.4005127  60.3398705  78.0828400
  40.0020828  59.1006889  77.3104019  15.0730162  50.9386635  86.8085175
  15.9400110  51.2671394  86.5704956  14.5950642  50.9018631  85.9800034
   8.0108681  44.0339432  18.9813271   7.2856870  43.7823715  18.4094372
   7.9722843  44.9899139  19.0106125  44.7694817   3.3806467  59.5197258
  44.7252197   3.9948649  58.7869186  45.1983032   3.8732100  60.2195282
  23.6239796  21.2758904  12.6096029  24.1736374  20.6177616  13.0350151
  24.0363560  22.1111164  12.8299999  10.7478981  16.9937000  80.1298676
  11.4324083  16.9276695  80.7956848  10.0826855  17.5570507  80.5252914
  20.4532585   0.8926046  30.3341770  21.1509819   0.2376375  30.3134365
  19.7298527   0.4577111  30.7856007  70.4439774   0.6003146   3.1632609
  69.7964783   1.2983835   3.0649202  70.5671997   0.5194238   4.1090441
  57.9976273  39.7320633  66.6768036  57.6425934  40.5167961  66.2592163
  57.3517227  39.0499382  66.4931107  71.4916382  38.2967033  43.3045883
  72.1800842  37.7321167  42.9531403  70.9721375  38.5452423  42.5400124
  81.2706757  60.6669579   6.3181043  82.1238251  60.2964096   6.0921383
  80.9072342  60.9587212   5.4820328  16.1575699  41.3580589  47.7391205
  17.0763454  41.3591042  47.4706345  16.1022816  42.0420227  48.4064789
  74.9933929  13.1848412  45.8603134  74.8120728  13.6166449  45.0255051
  74.7809982  13.8433886  46.5217018  39.8864594  43.2777481  44.0761604
  40.0044937  43.9448166  43.3999062  40.0646553  43.7354279  44.8977470
  44.0531693   8.7325678   9.9845848  44.6174850   9.4459305  10.2827349
  43.9717140   8.1575966  10.7455091  82.7527008  52.7767792  48.4024506
  82.2879868  53.5692787  48.1337204  83.6760101  52.9765930  48.2481575
  77.5024414  45.3555260  80.1853790  78.0194092  44.5668449  80.3495636
  78.1394882  45.9993019  79.8756180  81.8277206  63.4536438  29.6124630
  81.9528046  62.5896416  30.0050049  81.2822952  63.9258499  30.2415600
  47.2935333  26.8652630  76.0858765  46.4703178  26.4892063  75.7742233
  47.7870750  27.0556355  75.2881317  49.2207565  20.9443798  31.4222355
  48.4837074  20.9345264  32.0328827  49.1487846  20.1168575  30.9465694
  65.9777069   2.0766325  44.0189362  66.3396378   1.2069002  43.8492279
  65.2436905   2.1537104  43.4094200   4.8284540  61.6136169  77.8274536
   4.9082394  62.2051239  78.5757751   5.0277815  62.1604843  77.0675659
  71.0069275  60.6809998  53.1653099  70.1803284  60.7328644  53.6451797
  70.9114761  61.3150520  52.4546089  78.6132202  52.0757332  72.2444763
  78.0412750  51.4289742  72.6577606  78.0831528  52.4489174  71.5401993
  66.2884827  21.2825832  68.3091202  66.8502426  20.5243282  68.1487808
  65.4147186  20.9115925  68.4320984  26.1037483  64.0849075  61.4624214
  26.8911667  63.6760902  61.8216820  25.7823105  64.6464615  62.1678047
  39.7328644  18.9890766   3.8693886  38.9616508  18.4432392   4.0227528
  39.7993813  19.0473194   2.9162803   5.3728504  50.7156677  76.6020660
   4.7569833  50.8224869  75.8771286   5.9574533  51.4704399  76.5328827
  36.4734497   0.7285198   9.3230295  37.2174072   0.1292090   9.3829079
  36.3469772   0.8601847   8.3834019  73.5620575  17.2835827   4.8350072
  73.4901581  16.7443943   4.0473919  74.1725616  17.9801388   4.5935054
  31.1500282  60.5872116  70.9518661  31.5778809  60.0376816  71.6085205
  31.5022755  60.2803421  70.1164093  45.4268417   4.3566637  19.9676514
  44.7542801   5.0056171  19.7608891  46.2136116   4.8737879  20.1403046
  41.1004143  44.4150505  73.3768768  40.8857155  43.9983063  72.5423355
  40.8539734  43.7682037  74.0380020  44.3133926  25.4623165  26.7784328
  43.8857727  25.1164303  27.5618477  44.0626297  26.3858299  26.7566586
   2.2053804   8.6230621   3.4850924   2.1814013   9.5633888   3.3077724
   2.5187829   8.2333384   2.6689272  17.4307251  18.3456039  41.1819954
  18.1963673  18.1675606  41.7281837  17.7935677  18.5487690  40.3198471
  70.6036453  23.6770763   1.0541146  70.1064987  24.4727135   1.2439666
  69.9813156  22.9648972   1.2015457   3.9082704  38.7310829  14.4193926
   3.8214977  39.0797195  15.3066101   3.3772907  37.9346619  14.4220152
  70.7642136  29.1718903  46.2276649  71.5013046  28.9816322  45.6473808
  70.0828705  29.5098667  45.6464844  47.0211411  48.2452011  36.1099968
  46.6721764  47.8788528  35.2974434  47.9148674  47.9062767  36.1611290
  27.0729351  64.6770554  43.5188866  27.7811699  65.3185654  43.4632149
  27.2330704  64.0794983  42.7884674  72.8271790  47.2811165  45.5835037
  73.2041168  47.1247978  44.7176437  73.3533249  46.7425499  46.1745644
  72.3375473  20.6439991  66.5550461  71.6027603  20.9762821  67.0707092
  72.8146515  20.0736713  67.1578140   9.0230379  59.6797791  88.5775604
   8.4087372  58.9553642  88.6962738   8.4811573  60.4047127  88.2660065
  58.2343864  62.9058380  53.1893044  58.7048874  63.3045578  53.9213409
  58.6436501  62.0473900  53.0806465   3.8156915  68.0734863  24.4676533
   4.2226162  68.9354172  24.3797951   2.8823831  68.2587433  24.5718060
  82.5777664  69.4610748  48.2521133  82.2819519  69.0645981  47.4326439
  82.2906265  68.8504105  48.9309883  72.9081955  11.8198433  23.3075542
  73.3631516  11.0028906  23.1030159  73.5640411  12.3533220  23.7564392
  49.5635872  37.6325912  47.8352776  50.5005150  37.6602287  47.6412888
  49.1814156  37.1497040  47.1024780  25.4010201   0.4247471  22.2080078
  25.6042023   0.2350087  23.1239491  25.1869259   1.3576479  22.1984520
  19.1944160  24.0734940  70.6539841  18.5300255  24.7231102  70.8838120
  19.6747875  23.9237957  71.4682770  66.8407669   8.2503757  21.5414734
  66.4367752   8.3535385  22.4030857  66.8867340   9.1397066  21.1904602
  63.6819458  32.9731140  29.9819031  63.9139671  32.0753746  29.7442970
  62.8766785  32.8853912  30.4918861  40.0442123   6.1221023  80.4038849
  40.0514946   6.6346221  81.2122803  39.1449661   6.1927657  80.0835876
   8.2862864  58.0152588  76.6882477   7.8546042  58.4740143  75.9675369
   8.3071756  57.0993729  76.4108505  43.7862206  18.5792713  85.6553650
  44.2208481  18.1025448  84.9482117  42.8973236  18.7280464  85.3329468
  64.5498581  64.6041183  20.6248951  64.0875168  65.4159546  20.4165668
  63.9342537  64.1100922  21.1663799  56.6334000   7.2316184  87.1519775
  57.5574722   7.0502868  87.3235703  56.1604729   6.6230507  87.7196198
  67.5077896  17.6267166   9.4963989  67.7424545  17.0339298  10.2103796
  67.8894730  18.4676781   9.7480650   0.6752462  63.0063934  26.9476585
  -0.0510291  62.4120979  27.1362553   0.3494684  63.5667763  26.2433338
  31.8309231  63.8129005  56.5775948  31.5026836  63.1400070  55.9811859
  32.4031105  63.3393326  57.1813889   8.4143629  55.9462891  27.6347694
   8.7537413  56.2841644  26.8059788   7.6332769  56.4724121  27.8060322
  51.2930756   0.9168522  45.6476669  52.1939240   1.2235727  45.7507362
  50.8948097   1.5424659  45.0424995  56.4166374  62.5483780  25.4838982
  56.3861542  61.7677040  26.0369358  56.1711617  62.2349701  24.6134109
  60.6640282  20.6352959  14.8670626  59.9839249  20.8788509  15.4950523
  60.7665787  21.4090481  14.3129654  16.3388615   5.9293995  87.0965652
  16.0072041   5.0843234  87.4000168  16.6679478   5.7549176  86.2148132
  42.5633163   4.7044611  73.9071198  42.2356453   5.3112969  73.2433319
  42.1168098   4.9663010  74.7122879  27.0203190  29.5308266  82.0745544
  27.9436321  29.6659031  81.8612976  26.8096333  28.6770077  81.6966171
  11.6248531  61.3631401  72.9500198  11.0716906  60.5943336  72.8115158
  11.9482450  61.5859261  72.0770874  59.0052834  34.9213982  14.0518017
  59.2654572  34.0066719  13.9431000  58.8988838  35.2479439  13.1583366
  27.5782108  16.7600555  77.8752823  26.8337555  16.4154129  78.3684769
  27.4109497  16.4930992  76.9714127  38.3416519  40.6182251   9.3224859
  38.7063828  40.1886063  10.0962000  39.0477982  40.5887680   8.6769428
  79.5728683  23.4597301  32.8165207  80.0332184  24.1799030  33.2474098
  78.9391098  23.8899403  32.2424965  26.6324558   7.6222944  73.7220154
  26.4798565   6.9790144  73.0298157  27.5056572   7.9688797  73.5386200
  34.7977371  51.9272423  66.1077957  35.0404434  51.0503387  66.4050522
  35.6298180  52.3414803  65.8791504  56.9636803  47.8828163  25.1042233
  57.6025734  47.3203812  25.5420742  57.3586197  48.0774002  24.2542858
  72.0059967  55.7914810  84.6984024  72.7698746  55.5749168  85.2330170
  71.3958130  56.2051315  85.3089828  35.9568405  61.6439705  84.7218704
  36.4048500  62.3761978  84.2983551  35.1403122  62.0203819  85.0502396
  39.8175011  60.7265778  61.9183807  39.9574738  61.2705307  61.1432953
  40.6899033  60.4052887  62.1462326  56.4799461  19.6120281   4.6173902
  56.3212090  19.9005489   5.5161614  57.4212418  19.4416428   4.5832548
  55.7780952  18.4957275  24.3810749  54.8859024  18.5670586  24.0417538
  56.3349266  18.5526657  23.6045914  86.1605225  41.0733452  24.9735184
  85.3748398  41.6188469  25.0103321  85.8277740  40.1776352  24.9168491
  33.0568771  12.0341349   8.5236912  33.4651031  12.7685356   8.9822073
  33.6570854  11.8373566   7.8044834  63.0233269  55.2126274   3.0798666
  63.9789963  55.2526093   3.1163397  62.7380676  55.5082207   3.9444389
  56.5630760  10.2028084  28.9614868  55.8721466   9.8238897  29.5048733
  56.7042160  11.0758047  29.3278046  18.8676472  56.1888008  18.1031551
  18.6399441  56.3451614  17.1866760  18.7119675  55.2532272  18.2323704
   4.2530766  58.0449600   2.8958445   3.3446991  58.3456345   2.9218707
   4.2417455  57.3002853   2.2945418  11.7750168  51.6411896  24.7203903
  12.0831337  51.2095108  25.5172291  12.4982519  52.2128105  24.4626904
  71.7737656  36.7334023  70.6676025  72.4474487  37.3816757  70.4623718
  71.4427719  36.4535446  69.8141632  54.4824905  71.6379013  74.9006882
  55.3193779  71.1828613  74.9944611  54.3132172  72.0088730  75.7666931
  25.8456669  23.3577099  12.9955616  25.9486732  23.2398052  12.0512524
  26.5932693  23.8974361  13.2525015  38.4574242  12.1436443  17.0723152
  39.1645203  12.7253208  17.3514214  37.7803574  12.2520952  17.7401886
  66.5045929  57.4682007  48.8738174  66.2949829  56.9581566  49.6562157
  66.4021759  56.8499184  48.1503029  43.9029121  46.0674362   0.7973179
  43.6971512  45.8093643   1.6958127  43.1829758  46.6447678   0.5431167
  58.1710968  12.8430710  66.2854996  58.3410492  12.7721720  65.3461761
  57.8444366  11.9788227  66.5356979  52.3160286  62.0523682  84.7656403
  51.7827187  62.8163910  84.9849091  52.0238304  61.7996788  83.8898544
  78.4105530   0.4673958  61.1601486  79.2732391   0.2445597  60.8103638
  78.0008011   0.9909129  60.4714775  79.3235397  37.4967613  49.9963875
  79.4691238  37.1766930  50.8866615  79.1198120  38.4255714  50.1061096
  70.9940338  22.2241497  38.3124161  70.6257553  21.6826019  37.6143227
  71.7235336  22.6852131  37.8983116  83.9221497   8.9041233  48.0222588
  83.6797333   8.0045080  47.8028145  84.0393906   9.3340216  47.1751060
  58.1496696  48.1045761  67.4328461  58.8379250  48.6473961  67.8173981
  58.1730881  47.2931747  67.9401093  64.1527481  26.1858635  32.3858109
  63.6100502  26.4086208  33.1421814  64.6436615  25.4122219  32.6627808
  49.9638824  31.2704792   1.4458069  50.3599548  31.2958488   0.5747650
  50.4444923  31.9294987   1.9467440  35.2243042  39.3815765  74.4916306
  36.1560593  39.1656075  74.4539032  35.0308685  39.4452057  75.4269180
  79.2164307  44.7728920  63.6979408  80.0022888  44.8870430  63.1634979
  78.5032959  44.7027054  63.0633202  49.2668571  25.5674248   1.7774774
  48.7981186  26.3118973   1.4002808  50.1781960  25.7014084   1.5172086
  40.0400276  61.5956650  33.2653389  40.3186989  61.1955643  34.0890427
  39.7359276  60.8606567  32.7328720  60.8899536  59.3443985  68.6440659
  60.7441444  58.4060936  68.5234222  61.8407974  59.4324722  68.7102127
  78.6988602  50.7462807  16.3158836  78.8584442  51.6833954  16.2037468
  78.2168808  50.4896393  15.5297098  65.4970703  15.9584827  50.5275459
  66.1721802  15.4689808  50.9974937  65.7130508  15.8370676  49.6029663
  57.9486389  40.8432846  59.5471878  58.7631683  40.6587067  59.0795250
  58.2279930  41.2816620  60.3509445  47.9920883  35.7151947  78.4753952
  48.4800110  35.3447800  79.2108841  47.0769768  35.5108337  78.6678391
  31.9265690  18.0318985   3.9719594  31.8180389  18.9488964   3.7198317
  31.2146072  17.8676376   4.5903115  66.0542755  62.4945145  81.9306412
  66.5541306  61.8890724  81.3830872  66.0440903  62.0831604  82.7948837
  56.5590134  21.7427444  23.5629253  55.9876785  21.8208351  24.3269348
  57.3673477  21.3620148  23.9062481  49.8096161  40.3047981  67.7656555
  49.8059387  40.8677101  66.9914780  49.6793900  40.9056587  68.4993057
  33.2378654  61.7666893  84.5564728  32.9292717  62.0279007  85.4240952
  32.7568245  60.9619789  84.3634109  66.2223816  46.0160141  15.5462799
  65.6385956  46.6687737  15.9327183  66.3555222  46.3161545  14.6471567
  56.0597763  28.4054108  55.5698929  56.1166763  28.2521572  54.6267548
  56.3978424  27.6012993  55.9640312  62.5739670  48.0328560  77.9703827
  61.7358513  47.9939423  77.5096359  63.2281723  48.0846519  77.2735596
  29.8482227   5.0926471  23.8111019  29.3364201   4.3012819  23.9785290
  30.5793266   5.0397525  24.4266682  34.2366982   5.4617033  82.9668884
  34.8280487   4.8796854  82.4896088  33.3616982   5.2059069  82.6750412
  52.5925713  59.8010941  79.5556259  52.9654961  59.1008797  79.0200348
  53.0988235  59.7770309  80.3676376  10.4286137  10.3695498  34.9036293
  10.2936525  11.1364136  34.3469086  10.6941566  10.7311668  35.7491760
   1.9781432   3.2534471  47.5734596   2.8809712   2.9564593  47.4597397
   1.8018709   3.7864118  46.7981453   5.2746630  34.7976532  18.3411541
   5.5252118  34.0496063  17.7990475   4.3926516  34.5867538  18.6474361
  70.2965012  45.7637672  68.1716309  70.6773529  45.8930168  67.3030243
  69.9919891  44.8563080  68.1670227  22.2598572  53.6934090  17.3274193
  21.7419968  53.2157249  16.6794453  21.7010479  54.4255333  17.5881138
  52.3646965  63.1964417  56.9523964  52.5856209  62.8189659  56.1009636
  51.7891693  62.5488815  57.3594170  25.9441414  42.0543938  78.8212814
  25.5631123  42.6658592  79.4514847  25.6663742  41.1910019  79.1272659
  34.3495636   9.1917191  25.9591446  33.7671471   8.5446997  25.5611649
  34.8220100   8.7052488  26.6347008   1.8074293  44.3736763  42.0706940
   0.9027350  44.6722603  42.1634674   1.7318151  43.4836273  41.7267036
  14.7050419  19.1623383  87.8720703  14.7119112  20.1018677  88.0550232
  14.6055260  19.1040840  86.9218369  72.1557007  33.4525146  79.0553436
  71.4620056  32.8309097  78.8348312  72.9573593  32.9295273  79.0473633
  72.4791031  44.9150085  22.0406303  71.6541824  44.8613892  22.5231876
  72.5205460  45.8218803  21.7371540  83.0647659  40.4118309  54.5932388
  82.7471161  39.8671951  55.3134499  82.2735291  40.7990799  54.2187843
  60.6153870  21.2475090  81.1941986  60.4431343  21.7177162  82.0099564
  59.7860794  20.8171959  80.9860840  84.8080292  66.7986832  50.5101814
  85.2574539  67.5529404  50.1289520  85.3646469  66.0517502  50.2899666
  44.9760742  51.1368103  78.0707397  44.4696732  51.6593475  77.4488525
  45.4587822  50.5161629  77.5248260  79.8646698  27.5895386  72.8813400
  80.1039200  27.1990471  73.7218781  79.7236328  26.8413849  72.3011551
  62.1540871  40.8332520  33.1196327  62.7229500  40.2128067  33.5753441
  62.7301216  41.2701225  32.4922867  68.5383911  45.9848213   8.4733725
  68.1078720  45.4531364   7.8038998  69.0893555  46.5919456   7.9793401
  52.1710091  42.2204285  54.8945198  52.8142929  41.5692444  55.1744804
  51.3720970  41.9863892  55.3669548   3.5050318  60.1068115  43.1486168
   2.5588481  60.2323456  43.0764351   3.7380095  59.5922050  42.3758736
   9.3145332  19.9791603   6.6582794   9.8052530  20.2412853   7.4371996
   8.3961744  20.0493107   6.9189067  48.0226746  64.1619949   7.8181157
  48.8016167  63.9498520   7.3038402  47.3111496  64.1815567   7.1781344
  77.5574036  65.4800110   1.8004932  77.7578049  65.3258209   2.7236922
  78.0356598  66.2798462   1.5819298  35.9887428  27.1434612  84.0153885
  35.4006042  26.4210014  84.2353363  35.8314514  27.3056602  83.0852356
  48.3051491  43.5646896  58.3695259  47.6411705  42.9498177  58.6814499
  48.6621857  43.9563599  59.1666107  16.2024460   8.1757288  17.6006012
  16.9273643   7.7728539  18.0785313  15.6827974   7.4361310  17.2856541
  60.9426117  52.0112000  41.3259125  60.7300377  52.3273163  42.2040405
  60.6381760  52.7052841  40.7412758  20.5495892   2.0991035  69.4900742
  20.5040131   2.0026271  70.4413071  21.1152248   1.3820767  69.2034378
  51.5212173  29.0473080  33.0903740  51.0774078  28.4351826  32.5033760
  52.2368011  28.5380611  33.4709549  36.8297424  52.5643082  60.3794098
  37.2162056  52.6849251  59.5120430  36.0134621  52.0924072  60.2144012
  25.2319565  34.2376709  72.0049210  26.0899601  34.4548531  72.3694611
  25.0388222  33.3659477  72.3499298  12.1068859   5.9085078  17.7657032
  11.8612499   6.7994332  18.0149975  11.6701651   5.7657347  16.9259892
  24.7895088  54.3217812  46.7302895  25.5730476  53.8710022  47.0450821
  24.2564602  53.6300964  46.3382950  77.9436951  31.9153728  37.4012642
  77.7214737  32.6008644  38.0313034  78.3903351  32.3776169  36.6919899
  22.5016384  44.7294312  32.5251694  22.1675777  44.6206779  31.6347733
  22.1567898  45.5761757  32.8086090  27.2198009  34.4344788   3.0308983
  26.7211590  35.2412834   2.9018548  27.5363159  34.2061462   2.1568768
  76.0870514  -0.1818792  25.5227165  75.3128967   0.2952991  25.8214016
  76.7968750   0.1422504  26.0770893  76.7752533  39.5214691   0.6792323
  76.3129654  39.5766335   1.5155841  77.6856613  39.7235107   0.8950046
  73.1932831  16.7855911  82.8659515  73.6937027  16.9856567  83.6570206
  72.8949432  15.8849392  82.9926529  83.2687988  45.1193466  59.4961472
  82.5701447  44.8846779  60.1069221  83.1301880  46.0498848  59.3197556
  85.3452530  33.7866020  28.0235100  84.9959717  34.0611572  27.1756554
  86.2932281  33.7579155  27.8940983  32.9982567  16.5979347  20.0206032
  32.4842339  15.9472265  20.4987164  33.4987335  16.0873070  19.3841953
  52.5368881   9.1659460  84.3547440  53.2298775   9.0646133  85.0072250
  51.8415604   9.6360712  84.8148880   1.6155944  20.5713959   3.2921662
   2.3552277  20.5795479   2.6846235   0.9333849  21.0729008   2.8457174
  42.9760170  64.6060562  22.5295448  42.2515182  64.0374527  22.7903690
  43.4400978  64.7923279  23.3457336  22.2105656  14.0938120  12.3258781
  22.9712677  14.4372683  11.8572626  22.2718620  14.4816275  13.1988459
  18.3084164  38.0758324  33.6058846  17.4568806  38.4818230  33.7680206
  18.3257141  37.9248390  32.6608276   4.0565600  45.8152809  42.8278313
   4.3184714  46.1063881  41.9543915   3.2026122  45.4031448  42.6968842
  78.7826004  31.7232590  34.1206703  79.2554321  31.3348999  33.3845673
  79.0782547  32.6334114  34.1418419  61.2185249  42.3448830  68.3007965
  61.4722099  42.4108582  67.3801880  60.7315598  43.1506805  68.4733887
  86.0203171  43.3867188  74.9568329  85.5852966  42.5527687  74.7792892
  85.3127060  43.9743118  75.2218857  27.5280170  45.5081673  52.0750999
  27.8235893  44.6178932  51.8846245  26.6689110  45.5698013  51.6575241
   1.8108861  62.2662926  62.5901794   1.8503498  61.3161278  62.6991119
   0.8831769  62.4524612  62.4455109  65.1559219  49.8816719  75.5572357
  66.0591965  50.0941429  75.3223190  65.1040955  48.9296112  75.4728012
  43.4813614  23.3135242  16.9948063  42.7585793  22.7646580  17.2990551
  44.2595596  22.7669849  17.1040230  63.3161049  29.1625576   7.2299318
  62.9394951  28.6475468   7.9434853  63.4407730  30.0347862   7.6039734
  77.0147095  71.8490524  22.7376480  76.5624466  71.0672684  22.4206295
  76.8945465  71.8268509  23.6870155  59.1770134  20.7294064   2.6016004
  58.7837372  19.8981075   2.3360751  60.1089935  20.6256237   2.4095671
  48.6857605   8.9119816   4.7704482  48.2439346   8.1719189   4.3541203
  49.4338341   9.0949450   4.2019954  86.0602417   3.1942108  62.4087296
  85.7637177   4.0969539  62.2931442  85.4760056   2.6773205  61.8539963
  60.6689491  56.6141815  30.6659470  61.2475166  57.3513603  30.8610401
  61.2620544  55.8805084  30.5041409  10.9574928  16.6700058   9.0145178
  10.2111969  16.0977421   8.8362265  11.4289055  16.2345829   9.7247343
  77.3930435   7.5525751  11.2391071  78.1576157   7.2498178  10.7492065
  76.6724014   7.5066571  10.6107779  13.9530878  54.7890205  46.1362190
  14.6201763  54.1701431  46.4332237  13.1585169  54.5258522  46.6005821
  39.2810402  34.6079521  21.4113178  39.0429001  34.5069771  20.4897308
  39.4758720  33.7187157  21.7071743  46.7130013  62.6505013  58.6458549
  47.0938187  61.9159203  58.1646080  47.2553482  62.7296410  59.4306030
  27.7807007  55.7444534  43.8801155  28.1515903  56.5845909  43.6102142
  26.9463501  55.6902008  43.4141273  66.7872009  60.9945869  71.4655075
  66.1470566  60.2847519  71.4147644  67.6048203  60.6020966  71.1594162
   7.9340019  25.8346882   8.4418726   8.8655252  25.9756775   8.2727032
   7.5102758  26.6345005   8.1304398  81.5325317  15.3844481  58.6676903
  82.0413361  14.6301594  58.9650116  81.8197708  15.5266199  57.7657394
  58.8729591  21.4831352   5.3320007  58.0914268  21.1102486   5.7399158
  58.8530617  21.1558876   4.4326987  23.0154743   4.6262450  43.1201019
  22.8336906   5.3215275  42.4878273  23.3773365   5.0821471  43.8799973
  20.7192688  70.4363022  84.2802429  20.7267494  69.5277634  84.5814667
  21.4106350  70.8623276  84.7869415  55.3930130  70.0796967  77.3534317
  55.3748665  69.5634384  78.1592712  54.9846497  70.9116821  77.5927429
  56.6649895  60.5207024   8.9032545  57.2762947  61.1882210   8.5918779
  57.1413956  60.0645409   9.5969305  29.1892471  10.1734667  49.3419876
  29.6678066  10.9135733  49.7154236  29.4556446  10.1552477  48.4227867
   5.1109676  35.9193535   9.6702728   4.2562819  36.3348007   9.5556040
   4.9942656  35.3339615  10.4185562  68.6921997  40.4798546   4.5201364
  68.0774078  40.8572655   3.8909919  69.2176208  41.2229042   4.8168397
  66.0996628   9.9299564   5.8334813  67.0378876   9.8434143   5.6647487
  66.0298615  10.6860924   6.4162493  66.8462677  69.7583389   0.2692857
  67.7594147  69.9520950   0.4810803  66.8346405  68.8165665   0.0985273
  84.9444885  71.3480225  42.1747818  85.5567093  71.5276184  41.4612274
  85.4264603  71.5810776  42.9682655   8.3958349   5.2704072  83.4832687
   7.7812629   5.2492175  84.2168121   8.7450390   6.1616168  83.4890442
  24.8219662  56.7205086  36.4545860  25.7135544  56.9077492  36.1609116
  24.9300575  56.0708847  37.1492348  40.3123932  56.2454567  28.3590412
  40.9761734  55.9137383  28.9636822  39.4811745  55.9490585  28.7297840
  82.2766266  52.9436989  56.8441162  82.8903732  52.6460953  57.5156670
  82.4230804  52.3515434  56.1064606  65.9998169  69.5764999  45.0473251
  65.6993256  68.7157745  45.3390312  65.9264450  70.1315842  45.8236771
   3.9920361  61.8508034  37.9213181   4.5209785  61.5925713  37.1664886
   3.9233778  61.0552177  38.4491043   4.4749584  57.9956741  71.5932770
   5.2373800  57.7893677  72.1339951   4.2875786  58.9147415  71.7841492
  59.5455856  50.4411583   4.4021692  59.3956337  49.4967995   4.4461122
  58.7803955  50.7839432   3.9404230  75.2637634  11.0093937  28.5678139
  76.0840607  10.6753960  28.9308491  75.0765762  11.7948418  29.0818806
   5.2151475  53.1978340   4.2756953   5.8468418  52.8875237   4.9244642
   5.7278767  53.7538681   3.6890376  22.4627380  11.0552959   3.3021297
  22.0561485  10.2669497   3.6618881  22.7415524  11.5530529   4.0707211
  59.6721497  25.4514771  48.4797440  59.3092537  26.3008881  48.2286720
  58.9100876  24.8763885  48.5487556   9.4675140   5.8030787  11.5113907
   8.5428581   5.7355928  11.2732935   9.5350075   6.6374102  11.9756823
  12.6623707  25.2619553  10.5226765  12.1639900  25.9566536  10.9530735
  13.2319403  24.9151230  11.2093563   3.4443190  58.9198418  57.8398170
   3.2784026  59.8584404  57.7518387   4.3921771  58.8335953  57.7380409
  61.7854919  15.2821245  50.5821190  62.5077744  15.8913136  50.7351799
  61.6206741  14.8861942  51.4378700  46.4663124  59.4944000  26.4981117
  47.0538254  59.9668999  25.9083595  45.8468666  59.0535698  25.9165726
  77.9490585  53.2163048  88.9871979  77.2522659  52.5619011  89.0368576
  78.7421036  52.7090721  88.8139343  56.4750443  31.0959091  57.7308350
  55.7355804  30.5193157  57.5385704  56.3139954  31.4025097  58.6231880
  29.4701099  64.9139404  60.4941139  30.3477383  65.2868805  60.4109535
  28.9348621  65.4230423  59.8853798   7.4704947  30.6443615   5.6940494
   7.8862195  31.5062447   5.7178125   8.1354332  30.0680180   5.3173318
   6.5347772  14.7965584  84.9090118   7.4043179  15.0429420  84.5936966
   6.6152287  14.8027763  85.8628082   1.5569748  17.2247925  72.6828842
   0.8436536  16.7169323  73.0695114   1.3701178  17.2239819  71.7440948
  36.5565262   0.5003334  62.5330887  35.8670502  -0.1308803  62.3271179
  36.7338829   0.3660235  63.4640770  85.3974915  68.8805084  11.0556431
  84.7075272  68.6727142  11.6857271  86.0758133  68.2250671  11.2184124
  34.2764473  14.1942778   2.9282124  34.0612221  14.9297972   3.5017292
  35.2280731  14.2349377   2.8334401  53.8106995  63.2891808  11.0214415
  52.9575920  63.5693703  10.6898794  53.6730537  63.1627502  11.9602175
  44.8698006  39.4111824  38.5340996  44.6231346  38.6324463  39.0330582
  45.0737305  40.0677299  39.2001228  77.2037125  56.3216782   4.8794303
  78.0401001  56.0886955   5.2824264  77.1322403  57.2677994   5.0058508
   5.6357355  32.0950890   3.1354995   5.9355125  31.4227600   3.7473311
   6.3332329  32.7506180   3.1393814  65.6810303   3.9435022  59.7824974
  65.4730530   4.4974427  60.5349083  66.6319885   4.0071297  59.6938171
   1.5918270  41.0137825  38.9171486   2.2026980  40.3857193  38.5316544
   1.6860214  41.8002701  38.3797531  33.4870300  11.3805695  50.7837105
  32.5375862  11.4634428  50.8727150  33.6830368  11.7733183  49.9330864
  78.2970734  19.4133129  58.4510193  78.4458542  18.6095963  57.9528885
  77.5863647  19.1936436  59.0534134  20.2588806  12.1065207  66.9388275
  21.0307426  11.7648745  66.4874496  19.6703339  11.3549271  67.0091934
  33.4802361  32.1911926  84.6231995  32.5763741  32.4767189  84.7563858
  33.9273605  32.4241295  85.4368668  31.8174057  64.9908295  49.9990120
  32.3171806  64.7948151  49.2065239  32.4686165  64.9846191  50.7005196
  22.2883778  65.6834641  22.6790390  23.2431889  65.6514893  22.6194878
  22.0866890  65.2686539  23.5177803  45.1731758   8.0305548  54.4928741
  44.2326393   7.9830618  54.3215065  45.4796219   7.1286335  54.3987503
  50.8805733  45.7602463  17.8516197  50.8194160  45.8197823  18.8050060
  51.0674973  46.6549187  17.5672703  46.3969688  47.8211021  71.0322113
  45.9821053  47.4702377  71.8202591  46.8396988  47.0688171  70.6394196
  77.7520447   3.1144605  69.8139038  77.8895340   2.8004780  68.9201736
  78.6227417   3.0953641  70.2110748  30.7850952  14.7875032  12.5553579
  30.6312199  14.1871729  13.2848492  31.4057350  14.3255062  11.9918003
  11.3689213  53.7911034  10.8441973  11.5416288  53.5630264   9.9307508
  11.6663275  54.6973228  10.9251404  41.5719299  57.5653419  52.5111809
  42.4662857  57.3084564  52.7356110  41.1294060  56.7408943  52.3094482
  68.4274673  70.8166428  32.5679893  68.7421951  71.5626831  33.0784874
  69.1280289  70.6442566  31.9389191  55.9481964  12.9030390  50.7272835
  55.4635849  12.7425346  49.9175797  56.0532265  12.0361776  51.1193962
  75.8543243  64.3070145  34.3839264  76.1362991  65.2195435  34.3206711
  74.9127884  64.3581390  34.5486488  49.8383141  58.6740417  56.6474648
  49.6943779  58.4993210  57.5775108  50.4984055  59.3670883  56.6333122
  76.6283493  60.0709343  24.2215595  76.6039734  60.9185829  24.6655502
  75.7103195  59.8075562  24.1576252  71.6460495   2.5535293  69.5009537
  71.6820984   1.6902835  69.9129486  72.4075928   3.0171528  69.8492737
  27.1135349  18.4841900  86.3740921  27.1675282  18.7449207  87.2935104
  28.0164375  18.2817173  86.1291351  44.5864372  42.3637962   9.0694065
  44.3611488  43.1686020   9.5360584  45.3228416  42.6097145   8.5095234
  70.8235474  30.8641911  30.4372768  70.1204453  30.3560791  30.0326805
  70.8145294  31.6997070  29.9703064  35.0793266   1.1088370  -0.0793484
  34.3130798   1.6156586  -0.3481102  35.5582809   1.6925683   0.5089468
  82.2522888  31.0679016  83.3193359  83.2039337  31.1414356  83.3914032
  81.9183044  31.5044785  84.1029739  47.1346283  31.6279392  85.2056503
  47.0852814  31.3789539  84.2827225  48.0720253  31.6494236  85.3981476
  37.1168633  63.8122749  50.3508110  36.8399811  63.1807175  51.0146675
  36.4985008  63.6893120  49.6305733  64.6102905  33.3734894  46.5057373
  65.1011276  32.5688934  46.3386116  63.7859039  33.0756340  46.8903198
  78.9553833  35.6082115  72.3302689  78.3052216  36.1529922  72.7738113
  78.7228012  34.7120361  72.5731812  86.2643204  11.4724789  35.6049919
  86.8241348  12.1056919  36.0543022  86.1418762  10.7675095  36.2408066
  48.1721115  70.1538315  60.1937790  48.7749443  70.3336105  60.9152374
  48.7004280  69.6775818  59.5532341  55.4118118   7.4851012  32.7040901
  55.9051781   7.9499917  33.3798866  54.6028061   7.9879060  32.6095734
  42.7486610  37.8016968   4.8409328  42.9888229  37.4030418   5.6773715
  42.6515121  37.0614395   4.2419229  -0.0080622  37.2554817  39.0561981
  -0.7376767  37.1921082  38.4398537   0.7743723  37.1930771  38.5083542
  28.9289761  13.2688713   9.4320440  28.2723484  12.5907688   9.2731428
  29.5850163  13.1318483   8.7486200  73.9737396  45.3398361  66.3888931
  73.8882523  44.5919266  65.7976608  74.8723145  45.6441917  66.2617340
  74.8496170  69.3756714  18.4598465  74.5502853  70.2326736  18.7634487
  74.3334122  69.2071075  17.6715889  47.2375031  52.2726288  87.4453659
  47.5726662  53.1390228  87.6761398  46.3378029  52.2690315  87.7721100
  36.8842468  47.5620422  75.0918884  36.7816658  47.0644341  74.2806549
  36.6888657  48.4659157  74.8447647  71.5179520  61.8922462  21.6662045
  70.7930756  62.2317619  22.1910992  71.9305191  61.2337418  22.2251225
   9.2964354  52.3464432  24.2109890  10.1940622  52.1188927  24.4533119
   8.7855339  52.1827850  25.0037231  41.1965141  36.5230865  28.4719353
  41.8671722  35.8707275  28.2697582  40.6100883  36.5060425  27.7155972
  76.7976761  39.4935913  54.2500496  76.1519318  39.9781036  54.7643318
  76.3913574  38.6403694  54.0979042  34.3108711  48.9600906  49.5336800
  33.7689934  48.3794823  50.0679970  34.7257500  49.5483627  50.1645889
  60.2929153  68.6834869  40.2304268  59.5017700  68.5357513  40.7485924
  60.0518990  69.3787003  39.6181984  46.8348503  61.1998978   1.4679677
  46.5484161  60.3277740   1.7392356  47.7026482  61.0599060   1.0890706
   8.9693594  67.3458481  34.7803764   8.8388214  67.9793091  35.4860077
   8.0993471  66.9784851  34.6243172  15.8049078  19.2481174  70.2412872
  16.6576405  19.5413303  69.9201889  15.9943047  18.8413563  71.0868073
  63.1046562  24.1809845  23.5266361  62.3922844  23.6044807  23.2502384
  63.7176132  24.1737080  22.7914715  85.3053513  41.0413780  34.8474884
  86.1468430  40.5894394  34.7852364  85.1827469  41.4391022  33.9855080
  50.6697884  22.3586063  81.5200958  51.1924477  23.1523590  81.6341858
  50.0797844  22.5625668  80.7944794  83.3891449   4.9571295  56.4575119
  83.0310135   4.8023019  57.3315849  82.6198883   5.0228825  55.8916893
  60.6917419  15.8638115  37.0178680  60.7791405  15.1618805  37.6627579
  61.0081406  15.4789276  36.2005615  46.9555779  13.5602875   0.4441276
  46.2312355  13.8071642   1.0191140  47.1205788  12.6398268   0.6484752
  62.2596474   6.3602614  68.1705704  61.3617210   6.6549377  68.3226471
  62.1753426   5.6585026  67.5250778  29.2289848   1.0000101  70.8344345
  29.5015926   1.2394707  69.9486771  29.9406891   1.3079853  71.3955612
  83.1513290   6.0597339  21.4029121  82.7744827   6.8844175  21.0961208
  83.6559219   6.3012562  22.1796246  62.9022789  27.2855949  60.1218147
  62.1442108  26.7673416  59.8516617  63.3450699  27.5072842  59.3026581
  74.2081451  42.7740135  80.8607635  74.8197632  42.0977669  80.5694885
  74.2605667  43.4510269  80.1861267  63.3706207   2.3889506  89.2936554
  64.2585220   2.5788469  89.5966415  63.1633911   3.1062658  88.6947021
  21.1333218  67.3296814  43.7882957  20.7843742  66.4894943  44.0858574
  20.4158955  67.9486160  43.9241295  15.1544571  50.7784309  58.8560905
  15.7683992  51.4428825  58.5433426  15.1089706  50.9204597  59.8016014
   6.7901587  16.5770512  16.4101620   7.0869856  17.3371696  15.9098177
   6.5625300  15.9268675  15.7455750  62.7485733  27.5254154  77.6815720
  63.5820694  27.9165134  77.4197464  62.2061729  27.5679207  76.8940277
  15.6998053  67.8246460  88.8799438  16.0541840  68.0484314  89.7405090
  15.4976244  68.6691208  88.4771881   2.4741824  65.0690460  48.7908707
   2.6587911  65.9807053  49.0167770   1.9081519  64.7572174  49.4969902
  22.1462898  18.8793201   6.6147537  22.9553699  19.1901970   7.0209265
  21.4816723  19.5102081   6.8913345  66.9072952  26.2815113   5.6772838
  67.0649338  25.3418522   5.5855241  66.0739822  26.3400593   6.1446066
  16.1424980  38.9468842  26.1226006  15.4835949  39.0765228  26.8047085
  16.8804035  38.5399666  26.5766335  72.9082184  44.0335579  37.5606613
  72.6642990  43.6873932  36.7022324  72.2966995  43.6184425  38.1688957
  67.4480057  27.0679588  47.6115608  67.6141891  28.0023384  47.4868546
  67.1252441  26.7666531  46.7622871   1.8204187  15.4033184  54.2096901
   1.5345749  15.2545996  53.3083534   2.5759876  14.8260403  54.3196793
  47.0159416  54.9453964  10.8205509  47.1177292  55.3885727  11.6628494
  46.3087158  54.3166656  10.9646378  41.5481834  49.8811874   4.9533997
  41.9654961  50.6136436   5.4068141  42.2481537  49.2376823   4.8430591
  60.1078682  38.3637733  71.9961777  60.5101166  39.2201500  71.8511047
  59.2229881  38.4516869  71.6419373  80.4871521   2.7289872   8.8989048
  81.1007538   3.0652487   9.5520887  80.3720932   1.8073711   9.1304569
  73.3375854  17.3014717  45.6429100  74.2789917  17.1714973  45.5285034
  72.9786072  17.2447281  44.7573929  34.9665489  44.6981049  56.5423050
  34.8748169  44.9756470  57.4537811  34.1290588  44.2848969  56.3323135
  54.0224152  12.9943380  76.2004852  53.0930939  13.0812759  75.9882736
  54.0951538  13.3224859  77.0967331  75.4988861  22.5826378  23.3421688
  75.3275986  23.4825439  23.0645733  76.4450531  22.5516434  23.4837399
  32.2907372  67.9530029  11.3185482  32.9052467  68.6726837  11.4623156
  31.8030834  68.2073288  10.5351305  30.3742161  52.4785080  80.1401367
  29.6299267  52.9327011  80.5350723  30.4911823  51.6964302  80.6794891
  13.4126720   0.7239582  39.0774879  12.7556553   1.3625492  38.8004265
  13.8442335   1.1341391  39.8269806  61.8497238  58.4779549  79.8273773
  61.1156082  57.9939842  79.4491272  61.9436264  58.1194649  80.7099304
  50.8875465  45.4695129   8.0560865  51.4569016  46.2389717   8.0538177
  50.7489395  45.2768593   8.9833965  17.8225002  42.9913254  82.0405960
  17.5495625  42.1085510  81.7906952  18.6177311  42.8590622  82.5566788
  22.0770187  17.2768459   9.0007601  21.8439312  17.5675201   8.1190519
  21.8574257  16.3452377   9.0117044   3.8162968  45.4649086  13.5618563
   3.1866286  44.7978973  13.8354349   4.1038775  45.8722649  14.3789177
  24.9756908  46.3327675  19.2425632  24.9689884  46.2820129  18.2867336
  24.2179451  46.8761482  19.4588795  69.3604126  63.1810875  22.9943981
  68.8301697  62.6417122  22.4077492  68.9817200  64.0571976  22.9219608
  36.5780296  39.2095642  64.2784195  36.6891174  40.1598854  64.3063049
  36.5315285  39.0011330  63.3453484  38.4046440   7.3068671   2.7698808
  37.8391724   6.5491185   2.6205800  38.0616417   7.9809771   2.1832316
  20.0138893  59.6990623  21.8900185  19.7603474  60.6021881  22.0805798
  19.7583351  59.5660706  20.9771996  58.6630096  24.8176365  51.5661087
  58.3746262  24.1531696  50.9403687  57.9745255  24.8354588  52.2308655
  58.6335793  29.3024158  55.4117088  57.7184792  29.2186108  55.6796608
  59.1150322  29.4054871  56.2325706  22.7412720  62.9966087  84.4136276
  22.7968063  62.6773949  85.3143234  23.3489723  63.7355461  84.3835068
  75.0080872  19.1309090  63.8607368  74.0669708  19.1606922  64.0328903
  75.1314774  19.7043934  63.1043510  46.9377060  58.5059547  17.2457905
  46.1444283  58.4203606  16.7169991  46.7672920  57.9716454  18.0214844
  72.6210175   0.8972732  77.4816666  73.4055557   0.9878093  78.0225220
  72.6164703   1.6816580  76.9330750  76.9957047  28.5564003  48.5744438
  76.3756638  29.0831795  49.0787048  76.4452057  27.9701481  48.0553246
   1.4773272   2.1285250  77.6793213   2.3240988   2.5419450  77.8475266
   1.2710779   1.6659520  78.4915543  36.9389114  32.2485733  78.3842316
  36.7086220  31.3721447  78.0758896  36.7676201  32.2239571  79.3256607
  78.4200211  61.1225662  61.9601021  78.7535934  61.5122490  62.7682571
  78.8592377  61.6074028  61.2613487  40.4485435  45.0267677  84.8478088
  40.3358459  44.1419563  85.1951370  39.7038879  45.5173149  85.1957779
  75.2028198  38.8339615  64.8220215  75.7230377  38.0674515  65.0630035
  75.6338577  39.1798935  64.0405045  18.9733715  63.5602379  38.0186310
  19.7873688  63.0574989  38.0485382  19.2286224  64.4078827  37.6545219
   9.0856905   2.1762505   0.7965404   8.5500612   2.9001727   1.1209935
   9.7209311   2.0167212   1.4945747  22.2091408  47.7949867  43.2356606
  21.7379894  48.5384445  43.6118507  21.5225544  47.1719589  42.9976120
  66.9974060   1.3304090  88.9413376  67.1824493   1.1598581  89.8648605
  66.5788803   0.5282848  88.6288147  69.8660049  48.7297211  64.0555801
  69.4310303  48.5193901  63.2292709  69.2833252  48.3788338  64.7290726
  40.4225273  20.6632023  78.6442566  40.7648506  20.6149979  77.7516632
  40.3866463  21.6001625  78.8367462   9.6502295  69.9152222  59.8610497
  10.0013304  69.0263977  59.9154320  10.4014044  70.4547958  59.6144218
  59.4805984  35.7018318  26.4949150  59.9991951  35.5532455  25.7042103
  59.9236526  35.1899757  27.1716270  22.8319931  49.8451385  60.9275475
  22.1622829  49.1931496  60.7210617  22.4090080  50.4330521  61.5533829
  74.4558411  16.5153313  64.2649384  74.7727203  16.2431622  63.4036903
  74.6769638  17.4450874  64.3186722  61.0567207  32.9071159  87.2371216
  60.4097137  32.8611679  86.5331955  61.6288567  33.6334686  86.9895248
   2.1093290  59.4491920  61.5318718   2.8658600  58.9597092  61.8548241
   1.6900532  58.8573952  60.9071999  25.4034233   2.8726432  49.9921913
  24.8394699   2.1142914  49.8402367  24.9554024   3.3712113  50.6755180
  12.6449299  50.5120049  85.2174759  11.8750019  51.0802765  85.1948776
  12.4759588  49.9084091  85.9409027  67.4617615   8.8207855  47.1298676
  67.0806808   9.4151011  47.7762413  66.7691879   8.1844568  46.9519424
   7.8990679  60.4414215  74.8658905   8.2229156  61.1592674  75.4099960
   7.1344628  60.8052940  74.4195633  57.3687782  29.2652607  87.3013382
  56.5026970  29.6594734  87.1977463  57.1908722  28.3572750  87.5465775
  14.2539978  68.7919617  27.1806831  14.9427481  69.3770905  26.8652935
  14.2041607  68.1021347  26.5189495  16.8725853  62.1813889  39.5633545
  17.7093754  62.5654869  39.8250504  16.7895966  62.3980293  38.6346931
  75.8554840  26.2994747  86.8963165  76.4749146  27.0264282  86.8325119
  75.3442612  26.4887676  87.6831131  49.4418488   1.8314729  63.4595947
  49.0781136   1.7917702  64.3441010  48.9966660   1.1289399  62.9857903
   6.8592796   1.7190284  25.1029415   7.2317142   0.8782762  25.3687630
   6.0406513   1.7845458  25.5946617  81.7344055  22.3578873  31.5858269
  81.3884811  22.0596504  30.7446251  81.0261688  22.8782291  31.9651356
  76.5249176  32.6391716  83.8426590  77.0273514  32.7457924  83.0349350
  76.5548782  33.5006409  84.2588425  68.3309860  56.0255814  29.7945633
  68.6434937  56.8892288  29.5249557  69.0800705  55.6275024  30.2380085
  70.7607574  25.3584480  66.1102371  71.2392807  25.5882950  66.9067383
  71.4346237  25.0407791  65.5092239  68.1437378  51.1678314  42.4826202
  67.5553513  50.4138947  42.5227776  67.8408279  51.7456284  43.1830673
   7.9291482  69.9059982  47.3116302   8.4357243  70.5065689  46.7648888
   8.3572741  69.9418488  48.1669998  70.2456360  68.5916138  87.3747559
  69.3806915  68.4964447  86.9759445  70.4118347  67.7458344  87.7910004
  63.5935898  50.5067635  86.3571014  62.9758377  51.0058937  85.8227997
  63.1138458  50.3166962  87.1632996  55.8064690  26.1327305  50.6659584
  54.8938637  26.1166077  50.9542809  56.1645622  25.2942295  50.9573593
  80.5752182  67.4451141  37.0034752  81.5142288  67.5331116  37.1670418
  80.3390579  66.6098633  37.4069672  59.7738075  15.7589731  75.6745911
  60.1540489  16.4902496  75.1878815  58.8689346  15.7107162  75.3661957
  14.6460390   5.8271732  24.9349709  14.8700686   6.7575293  24.9130650
  15.4201269   5.4030704  25.3053169   2.2111778   6.8170877  19.5220928
   2.8488793   6.6292934  20.2107887   1.4168841   6.3611245  19.8003502
  60.8298836  68.3314743  75.0456467  60.0674591  68.2205734  75.6136627
  61.1747284  67.4458160  74.9319839  51.7725143  31.6765518  88.1749039
  52.3727875  30.9661045  88.4011078  52.2364807  32.4732323  88.4323273
  45.2811546  13.5840645  45.5422707  45.2357674  13.4269962  46.4854050
  46.0542068  14.1369410  45.4284668  58.4910355  69.5114899  48.1249733
  57.6607246  69.0469818  48.2301178  58.7997551  69.2564087  47.2555733
  79.1418533   5.9339948  28.7643490  78.7199326   6.5375566  28.1528492
  79.9506607   5.6732264  28.3238277  82.5182114  27.6506310  82.8677139
  83.2469864  27.9201870  83.4266968  82.6201172  26.7027569  82.7818069
  69.0004807  19.4446030  52.7275047  69.0479279  19.0314789  53.5896568
  68.0907288  19.7317829  52.6492653   0.3231699  32.4836121  15.9503202
   0.0370634  31.7035255  15.4750967   1.0280539  32.1728592  16.5184784
  65.0584335  34.5082283  60.8135033  65.1169968  33.5909729  60.5462227
  65.4250412  34.9964027  60.0762672  19.7042389   3.7312071  46.7558212
  19.3685646   4.0615368  47.5891495  20.6290646   3.5511138  46.9246254
  21.7363873  70.4427719  88.5037079  21.0547199  70.4650116  89.1753235
  21.6067162  69.6054077  88.0584717   1.1448983  37.0573311  57.8988113
   0.4069278  36.9290733  58.4947815   1.5936111  37.8324509  58.2365646
  76.3346558  31.0881653  72.2641678  76.8984375  30.3152084  72.2338791
  75.5455704  30.8278408  71.7889709  60.6902199  53.3602028   1.8459785
  60.6029015  53.2312584   2.7904255  61.4818115  53.8894958   1.7486826
  59.9782982   5.6877017  50.6523399  60.2371101   6.1505847  51.4491997
  59.7297173   6.3819780  50.0420761  39.5302696  67.0733948  62.3968124
  39.4813385  67.7512436  63.0708656  38.7468338  67.2087021  61.8637505
  86.6706924  24.3042717  51.8315010  86.3296509  23.5203133  52.2620010
  87.3547440  23.9780483  51.2467957  74.7608490  48.2744598  70.5361862
  74.3644257  47.5553551  70.0442810  74.6998596  49.0282669  69.9494247
  42.0839615  43.5827866  52.0138054  41.7161713  43.8731537  51.1791496
  42.8067093  43.0049248  51.7689705  34.0186768  65.4626541  13.1681271
  34.3423538  64.9363937  12.4370193  34.2771568  66.3584366  12.9513493
  65.8973465  69.0980377  19.9995537  66.6292343  68.5138855  20.1978951
  66.2294464  69.6722870  19.3094997  64.0112534  31.4318695  50.1355553
  63.1995277  31.6366501  50.5996704  63.7280769  31.1855412  49.2550049
  44.9205399  56.4103622   6.4117150  44.1183815  56.3007240   6.9223590
  45.6202774  56.4233360   7.0647330  54.9804497  23.5017948   7.4728136
  54.7661743  23.8040581   8.3553982  55.9125214  23.2875900   7.5127020
  12.6290646  11.1795483  26.0482750  12.6109409  10.2430363  25.8511734
  13.5317106  11.3502874  26.3171825   4.3503761  25.7315636  70.0127106
   4.9737349  25.5557175  70.7175064   3.9370837  26.5589504  70.2593918
  63.8738251  19.9162292  68.6403122  63.9136810  19.1793079  68.0307236
  63.2761497  20.5382195  68.2254105  51.5943108  17.6300011  26.8331070
  51.2893219  18.5366402  26.8680153  50.8181152  17.1253872  26.5899639
  29.9541969   8.2295008  89.0294647  30.4231262   8.1786480  88.1965485
  29.3092766   8.9247236  88.8991852  53.7456894  57.7386513  47.2961884
  53.3850937  57.0939980  46.6874008  53.0050316  58.3056450  47.5110855
  76.1313629  45.9071617  82.6715622  76.9911346  45.8896980  83.0919266
  76.3184662  45.7994881  81.7390213  46.7754784  32.1925659  18.9643250
  47.0728531  31.6407490  19.6877213  47.4139252  32.0390663  18.2678623
  56.1636200  41.7200966  15.6980133  55.2511215  41.5861397  15.9542112
  56.2009468  42.6333008  15.4135885   0.9632195   4.2549577   8.2323627
   0.8657780   3.8812709   7.3565226   0.8619529   3.5090551   8.8236380
  36.6967888   5.6325850  85.1062469  36.3378563   4.7486386  85.1839523
  36.0828934   6.1838760  85.5914688  78.2181931  10.6902962  87.5548553
  78.0257187   9.7533512  87.5911560  77.3670731  11.1141119  87.6653061
  67.5487289  40.7746544  45.6099663  67.8115616  40.9814606  44.7130928
  68.3329315  40.9396439  46.1334496  12.4143600  63.0430489  79.9144363
  12.1381636  62.7828217  80.7931976  13.0051889  62.3447342  79.6324539
  37.4207382  66.1338959  37.6406898  37.4439735  66.9569397  38.1288414
  36.8462448  66.3130493  36.8963165  34.2649269  61.3212891  32.3366165
  34.0557747  60.5971870  32.9266739  34.7173119  61.9580727  32.8898697
  71.5190735  46.2791176  65.9107285  72.2735214  45.7201309  66.0966568
  71.4555969  46.2859077  64.9556580  11.3243132  53.6977692  67.9192505
  11.8211126  54.2940178  68.4795227  10.8367968  53.1453094  68.5302658
  41.2847176   3.6907618  58.1507149  41.3137093   3.1444230  58.9361496
  41.1798553   3.0692172  57.4303551  77.8593369   7.2699208   3.6128283
  78.6317749   6.7230968   3.7562232  78.2037354   8.0734396   3.2229829
  55.3251343  30.0653400  27.3131390  55.5566483  29.6457481  28.1417389
  54.9465828  29.3617764  26.7859478  20.0241737   2.1841207  85.7571030
  20.2349453   2.7245638  86.5185013  20.8716469   1.8621291  85.4499435
  86.3910751  15.9761114  36.0678291  86.0009995  15.1124258  36.2024460
  86.2947006  16.1388302  35.1294975  13.0153961  44.7245216  35.1152649
  12.8996687  43.7861938  35.2648659  12.2114582  45.1214447  35.4504776
  39.2152863  27.9924850   1.6586955  40.1279373  27.7963848   1.4469273
  39.1751480  27.9433727   2.6137917  24.9035549  21.8739738  79.5923157
  25.2094784  22.7805462  79.5645370  23.9721413  21.9418259  79.8023071
  65.7870636  66.8010406   0.5199814  65.0711594  66.3027802   0.1257198
  66.5591736  66.2486954   0.3975102  30.2491417  41.7980766  15.6370230
  30.7688961  41.0635071  15.3106842  29.6627960  42.0170403  14.9128103
  32.2694740  36.0283051  68.6850357  31.5003357  35.4656639  68.5950470
  32.7054672  35.9757919  67.8345184  57.6049194  34.5758514  72.6078491
  56.7069893  34.7448578  72.8931274  58.1504784  35.0015068  73.2692261
  26.2637310  62.3483505  84.4559555  27.1351700  62.0127106  84.6661224
  25.6976624  61.5768509  84.4801636  44.2465057  23.5756016  70.9735870
  44.0426407  22.9319382  70.2950821  44.4555054  23.0509224  71.7464142
   1.3604819  25.9362869  84.9525375   0.8173491  26.6610909  85.2622070
   2.1709611  26.3526211  84.6592484  74.4346466  36.1807480  78.7258530
  74.6039581  35.9015808  79.6256485  75.2406616  36.6208763  78.4559479
  74.6882172  34.7010040  12.7619190  74.7673645  34.4580879  13.6843929
  74.4045563  33.8973656  12.3261051  25.3964748  49.2437935  75.2965622
  24.5171223  49.6218414  75.3035202  25.8116150  49.6172981  74.5191422
  64.2788391  18.8934593  88.4476929  64.3795471  18.3296051  87.6807785
  63.3949776  18.7095318  88.7657928  30.2980251  67.4934616  72.5237656
  30.1933403  67.3856430  71.5784302  29.8398933  68.3097229  72.7239151
  84.4421997   6.4502711  79.1337051  84.5150681   7.3434525  78.7973328
  84.0099411   6.5483656  79.9820938  62.8430939   3.3635583  20.8345299
  62.4165688   2.6309633  21.2790642  63.4922829   2.9522729  20.2638874
  53.5927010  44.3710785  53.1152077  54.2229004  44.1419830  52.4321289
  53.3585663  43.5337830  53.5156441  49.1030655  65.1584091  20.6808815
  49.7095985  65.8375626  20.3857460  48.5758018  64.9558945  19.9080887
  17.1958046  45.5843086  28.9997158  17.3703575  45.4743423  28.0650120
  17.9554749  45.1948509  29.4326763  64.3988342  24.5945015  19.0526371
  64.5843582  24.3375740  19.9558544  65.2035141  25.0182571  18.7540665
  29.3050919  12.0740509  43.9811516  28.8773746  11.6250305  43.2519951
  29.6621838  11.3685350  44.5205650  62.2166595  64.1422043   9.4108572
  61.8703957  64.9479752   9.7943468  62.3204575  63.5484085  10.1544065
  62.8689651   8.0964737  30.0462990  62.3679771   7.3379688  29.7464409
  62.2106285   8.6920624  30.4042091  58.1467705  11.7722759  85.6324463
  58.7079659  12.3266697  85.0902863  58.5979156  10.9284935  85.6594772
  15.2325068  34.6403656  70.8424606  15.9571857  35.2587051  70.7490463
  14.8264284  34.6146164  69.9760513  47.6109619   5.7872128  32.1961937
  46.7156982   5.8303275  31.8602257  47.8278427   4.8550296  32.1810303
  52.8185234  57.6644707  10.9244614  52.4886475  56.8306961  11.2594757
  53.7250595  57.7032547  11.2292862  33.3812752  28.9316502  81.3214645
  34.0155678  28.2439899  81.1189041  33.5808487  29.1835365  82.2230988
  18.1682262  49.4050484  37.4707413  17.6686554  49.2417068  38.2707291
  18.6349049  48.5852776  37.3082085  12.7016935  16.3185291  74.4668579
  13.6469355  16.3423805  74.3179245  12.5047207  17.1542721  74.8899078
  77.1637955  65.7479477  12.4058189  77.7051239  65.8142548  13.1924572
  76.3179016  65.4317169  12.7231359  21.5130234  51.7631569  58.6892586
  20.5573349  51.7428780  58.6394386  21.7026634  51.8326645  59.6249046
  76.3248291  12.1117554  12.1942425  77.0758057  11.5833263  11.9240236
  76.3147507  12.8455534  11.5796938  61.4316750  34.9768600  79.5153122
  60.7986107  35.0243111  80.2317047  62.2131042  34.5911980  79.9113770
  43.4245529  63.0220299  89.0311890  43.5588989  62.5391083  88.2157364
  43.0514412  62.3775253  89.6325455  28.9589863  48.7131348  41.0800247
  29.3982258  49.5635872  41.0858879  28.0297222  48.9228592  41.1734009
  66.3093872  17.6700325   4.2340956  67.1088943  17.7661190   4.7515750
  66.5051727  18.1100216   3.4068666  35.2688560  34.9157066  84.3357391
  35.7195702  34.0961800  84.1321106  34.9161339  34.7828484  85.2156067
   6.5077896  24.1939640  30.6368141   7.0436897  24.3616238  31.4120140
   6.3862886  25.0558987  30.2386475  72.0208969   7.0764995  79.2603607
  72.8493881   6.7015848  79.5591431  71.5612793   6.3445234  78.8490219
  44.1068344  60.2623596   3.2188287  44.6179733  60.3009148   4.0272126
  43.4216461  60.9202042   3.3370910  51.7346535   1.6096386  22.3990211
  51.8385086   2.4897032  22.7608662  51.1927185   1.7334758  21.6197891
  52.0492020  47.3249626  50.8962402  51.5753288  47.0641670  50.1065178
  52.9300880  47.5374336  50.5878029  83.2876434  12.1201124  85.0546799
  83.1873093  11.8098669  84.1547318  84.1185532  12.5953169  85.0529709
  20.5491123  51.8599586   8.3863907  20.0797291  51.0405731   8.5429735
  21.3376694  51.7908745   8.9245701  15.6453094  17.6749039  77.3848114
  15.6754913  18.3601837  78.0524292  15.1817970  16.9508095  77.8056183
  10.9500933  61.4446716   4.0340877  10.6707687  61.1298752   3.1743717
  11.0548763  60.6502113   4.5576172  60.8612556  58.3770218  86.8414993
  61.0665512  58.7945709  87.6780014  60.7311897  59.1063080  86.2353210
  80.0032654   1.9025654  14.0814228  79.4086685   1.3370080  14.5741997
  79.6200409   2.7764630  14.1567364  44.0690041  65.1191864  47.6667404
  43.9803505  65.0366440  48.6162453  44.7764931  65.7526016  47.5464058
  84.8718185   6.7308745  23.4003696  85.7557831   7.0669107  23.2523499
  84.9228363   6.2873740  24.2470913  85.7270203  37.3431740  19.9941463
  85.3896637  38.1762009  19.6647797  85.7091293  36.7605209  19.2349167
  15.2075644  66.5631332  13.0926723  15.8363428  65.8461380  13.1750937
  15.3752890  67.1175766  13.8547049  10.8359661  63.6152611  19.3472824
  10.6490850  64.4312057  19.8115444  11.6787548  63.7700386  18.9206905
   5.5568099  15.1174812  55.4328728   5.0714207  14.4841204  54.9042091
   4.9761963  15.3098497  56.1691551  82.5068512  29.5285511  57.0974236
  83.4001465  29.1924496  57.1701851  82.5546112  30.1877003  56.4049835
  14.5228710  66.4016953  33.2522697  15.2819557  65.8405075  33.4106598
  14.8149576  67.0149689  32.5778694  32.9938545   1.7625335  51.4665642
  33.4859505   0.9496442  51.3513069  32.7407532   1.7604588  52.3896904
  64.0125198  28.2913647  21.6525745  64.6268921  28.6466370  21.0102673
  63.9189606  28.9861431  22.3043098  86.6190720  52.5917358  86.5698700
  86.2360458  53.3671532  86.9800568  85.9269562  51.9318657  86.6120911
  52.3281517   9.3833275   0.7923743  52.5545540   8.5114851   0.4685451
  51.9950943   9.8455095   0.0231587  70.7587967  61.6343422  80.1504440
  71.0603333  62.3903160  79.6466522  71.5560913  61.2679749  80.5329742
  75.2062073   8.5226040  36.9964142  74.9943466   9.2787180  37.5438080
  75.8718109   8.8455925  36.3890610  15.9487638  18.3039989   9.1510792
  16.2383614  19.1200047   9.5591249  16.0235767  18.4666939   8.2107792
  79.5902863  53.1243439  80.1865616  79.7819214  52.6893387  79.3557281
  78.6431046  53.0341835  80.2912292   8.3446531  54.2028618  11.0269775
   9.1985550  54.2966690  11.4492159   7.9019618  55.0348549  11.1944408
  65.4801178  10.3959055  55.7452698  64.9348602  10.2642717  54.9696388
  65.6098022   9.5159760  56.0990143   1.3275554   1.5936269  33.2821579
   2.0552194   1.2296929  33.7864304   0.5906695   1.5967143  33.8930779
  52.7679482  21.4554882  43.7646523  53.5688820  20.9446182  43.8819084
  53.0575104  22.3670330  43.8030167  36.4719124  39.7539749  20.2432861
  37.3816032  39.4907494  20.1039715  36.4878807  40.7094383  20.1879215
  73.3808823  18.6373940  56.5826988  72.6128006  18.3678493  56.0790863
  74.0721588  18.0361519  56.3054314  74.9718628  30.9207172  19.7519455
  74.9572601  31.2369900  18.8486233  75.7814941  31.2772484  20.1174812
  25.2436428  63.0817146  17.5479374  24.9293785  62.9821243  18.4465752
  24.4615135  62.9719849  17.0071373   0.3684198  29.9651566  59.3258171
   0.3829099  30.7069530  59.9305992  -0.4175446  29.4748859  59.5669136
  76.7010193  29.1056576  61.8673058  76.8827438  29.1628780  62.8053513
  77.5651779  29.1029263  61.4556541  64.9075851  70.4760132  55.3617287
  64.7061920  70.6474533  54.4417953  65.5596542  69.7756805  55.3376732
  12.0376625  63.7886658  77.0927505  12.0240211  63.0038528  76.5449219
  11.8275080  63.4713631  77.9710388  36.7443657  65.5402069  45.4036140
  36.5818748  65.3926392  46.3353081  36.2458649  64.8528442  44.9617348
   3.1939776  39.4195786  87.7563400   3.0357842  40.0016479  87.0131073
   3.9259486  39.8217735  88.2239838  78.8289032   6.7839680  19.8857403
  78.6243515   6.1576495  20.5800858  79.6919098   7.1263270  20.1186142
  61.8392029  50.3944168  67.0441742  61.2907104  50.2456093  67.8143921
  61.5826836  49.7057877  66.4308014  62.4099274  48.4258308  83.1187973
  61.7114944  48.2559662  83.7509155  62.1170731  49.2018852  82.6410828
  58.5503273  62.0127106  71.4835205  59.0287514  62.8387489  71.4127808
  57.9242859  62.1584930  72.1927795  42.2031021  36.7092018  56.0869446
  41.8811989  37.3687630  56.7014236  43.1042290  36.9737434  55.9019623
  40.3226013   9.5485468  88.3716431  40.8944092   9.2161913  87.6796875
  40.3743820   8.8883905  89.0628357  22.8018780  27.1237049  23.4317093
  22.5248508  28.0084915  23.1937180  23.2896900  27.2367554  24.2474861
  26.1205463  58.8810043  76.8911209  26.5645180  58.6285324  77.7006760
  26.2896233  58.1562271  76.2891769  64.9768753  61.2275124  62.8399658
  65.7291412  61.2946815  62.2519112  65.3558044  60.9972572  63.6882744
  75.2256546  19.4188213   3.8006217  76.0368118  19.8588448   4.0548487
  75.5004349  18.7592411   3.1636930  31.0972176  38.1721077   9.9782104
  31.0480671  38.9643326  10.5131788  30.3544960  38.2416687   9.3784122
  72.9489136  20.1785374  27.2552547  72.1325912  20.5434875  26.9136848
  73.5803146  20.2987938  26.5459557  54.6628113  28.6368275  75.7033691
  53.8277283  28.8722210  76.1076660  55.1052208  29.4739208  75.5627365
  84.7703476  41.1332741  47.3721581  83.8580170  41.1526756  47.0831909
  84.7817307  41.6686668  48.1655426  13.1593962  45.5752831  24.0588970
  14.0768042  45.6296082  23.7912369  12.6654520  45.7223129  23.2522793
  37.0180969  65.6475830  72.6953659  36.8227768  64.7130280  72.7639084
  36.7721558  65.8786087  71.7996140  59.1171417  51.5098686  32.2870102
  59.9492760  51.0374985  32.2615013  59.3444633  52.3776245  32.6210060
  85.5305786  39.9179802  53.4766388  84.6422043  40.1465302  53.7501030
  85.8867798  39.4194870  54.2120705  55.9258461  65.2764816  74.5820770
  56.2110901  65.9175110  73.9309692  55.1232986  65.6479721  74.9483414
   8.2949324  43.9746895  57.7143021   7.6708465  44.1393700  57.0074577
   8.1812706  44.7142220  58.3112946  82.4340515  66.7849655  75.3095627
  82.0575485  66.9900131  74.4537430  82.8181458  65.9150772  75.2000580
  45.9832153   2.8028314   5.4011083  46.5619545   3.3599646   5.9215875
  46.2787132   1.9114089   5.5862575  82.1324844  27.4332085  27.1367111
  82.1580353  26.4923954  27.3112125  82.5587463  27.5305309  26.2852039
  74.2144394  56.8440094  33.5484619  73.2890701  56.9746857  33.7554550
  74.2737961  57.0022621  32.6063042  68.6899796  33.9402313  59.3903160
  68.7919388  33.5688515  60.2666245  68.7476044  33.1868286  58.8027000
  42.9307289  43.4139099  40.7415009  43.1311417  43.6234322  41.6537323
  41.9892082  43.2414360  40.7366409  23.2757378  33.2795563  36.1846275
  22.6134186  33.1292953  35.5100975  23.8126163  32.4871674  36.1738625
  29.0967655  13.5201025  83.9693146  28.6709347  14.0717134  84.6255417
  28.5476379  12.7375450  83.9214249  35.6246529  12.2173996  77.3395004
  35.8227425  13.0820789  76.9798889  35.3164177  11.7104692  76.5883408
  82.7656097  13.0850620  28.6470184  82.3339005  13.8056393  28.1880779
  82.0536194  12.6204758  29.0868645  54.8950615  52.2479477  66.2660751
  54.1442337  52.0376320  66.8212814  54.9273643  53.2045784  66.2592087
  11.1480188  37.7372551  75.9043808  11.0466356  37.2057190  76.6939545
  11.9811726  38.1922112  76.0272751  63.8675461  71.6487122  78.9074554
  64.2223129  70.7754440  78.7408066  63.5112305  71.9274673  78.0639114
  27.0531044  52.2520294  52.1778145  27.5638351  52.5519714  51.4258690
  27.6540756  52.3235092  52.9194069  81.4541016  59.3885117  77.0902557
  80.6934891  59.1209488  77.6061172  81.4082489  58.8511047  76.2994843
  64.7937622  34.7785912  55.4066277  64.1689377  34.2581329  54.9017029
  65.0918427  34.1891403  56.0993958   6.6072536  13.7834053  21.1830120
   7.0221782  12.9411831  20.9966488   5.6918640  13.5657377  21.3588371
  85.8082809  64.0601425  11.1674824  85.4080200  64.2142181  12.0232182
  86.4347687  64.7763596  11.0636444  42.4877052  32.4512634  21.5792980
  42.2631683  32.3920441  20.6506920  42.7817116  33.3544922  21.6974926
  49.1895485  18.2102261  23.7677422  49.8700256  17.5467815  23.6536179
  48.4410362  17.7276974  24.1186409  58.5516968  12.2312002  21.6033611
  57.6590652  12.5622215  21.7026787  58.8588753  12.0979052  22.5000801
   9.1555290  70.8623276  24.2764626  10.0285368  70.5757980  24.0081463
   8.7171288  70.0603638  24.5608883  63.9096909   1.6601759  57.5075531
  63.2126923   1.3230568  56.9447250  63.9680061   2.5895543  57.2859955
  56.4072609  56.6411018  70.3354645  56.4147835  57.5613327  70.0721207
  56.5540085  56.6613960  71.2811356  52.6156082  15.6262121  64.3590698
  53.3056602  15.3603249  64.9668198  52.7696342  16.5599594  64.2154617
  14.4895144  59.0895462  74.2540741  13.5663433  59.1112099  74.0020447
  14.4785480  59.1513138  75.2092133  37.2283096  41.0902443  60.2225990
  37.3860626  40.7026062  59.3617401  37.1831436  40.3418312  60.8176384
  54.6184120  40.4842606  80.2900696  54.9254074  41.3896484  80.2426071
  53.8528976  40.5206757  80.8635712  48.7699966  43.6495171  51.1410561
  49.4459534  43.1666260  51.6165886  49.1703300  44.4980850  50.9515877
  68.5277481  21.9211617   1.5306013  68.2674103  21.2167645   0.9370688
  67.7926559  22.0067749   2.1376843  47.0732269  10.7563133  48.5219574
  46.3766365  10.3903513  47.9769211  47.5944786   9.9979992  48.7855644
  77.6722412   9.5493116  42.0007095  78.1517944   9.9098186  41.2548561
  77.0427551  10.2318726  42.2332687   0.3807217  63.2829437  14.9711332
   0.1048558  62.3690643  15.0414867   1.3008271  63.2763748  15.2349405
   1.9833007  68.0278015  39.4447632   2.0686948  67.0747833  39.4710045
   2.5578058  68.3001404  38.7292137  33.0254173  55.5524025  16.9718914
  32.9184074  56.5022812  16.9218464  33.2413292  55.2882500  16.0775547
  36.6395836  46.1208076  88.3819046  35.7871170  46.4252510  88.0707016
  36.7744904  46.5881882  89.2062759  22.9794559  39.6829948  68.8106842
  22.5446892  40.3724365  68.3088074  23.9107857  39.8023300  68.6246262
  11.0212307  37.4391403  85.1251831  10.3258905  38.0864182  85.0078735
  11.0196905  37.2534752  86.0642090  48.7947388  24.2326012  87.1215820
  48.1410217  24.0427494  86.4486542  48.4989815  25.0519085  87.5184402
  57.2317734  48.0508766  22.1673489  57.9017220  48.6630478  22.4717331
  56.5115891  48.6097145  21.8753471  47.1960602  56.0416946  76.6301575
  46.5200844  55.7974815  75.9979782  47.6027260  55.2115746  76.8786469
  21.2767296  59.1675720  50.2330627  21.6647625  59.8348160  49.6669807
  20.6876030  59.6550598  50.8088379  63.2001648  68.1068420  31.3282585
  63.6287575  68.7225418  31.9227848  62.7011490  68.6611710  30.7283134
  65.2393723   3.5041807  35.4761047  65.3769836   2.6968064  34.9806862
  65.7520370   3.3849378  36.2755966  60.6142731  23.0118675  40.8702507
  61.1230431  22.2326050  41.0941582  59.7625084  22.6713829  40.5967598
  32.7116623  62.3764572  58.6278763  32.2554359  62.3356361  59.4683647
  33.2695198  61.5986633  58.6201363  85.0173035  26.8034401  73.4728317
  84.3154602  26.5179005  74.0577393  84.8286438  26.3676262  72.6417389
  23.3894424  56.7393341  34.1498718  23.7906342  56.5370941  34.9950790
  23.1262226  57.6567154  34.2230721   8.4942141   0.7068484  50.8485260
   7.9146776   0.2372834  50.2486267   7.9703584   1.4455584  51.1585503
  63.7444344  10.3826847  13.0399837  63.8236122  11.2200727  12.5830994
  64.4027252  10.4250956  13.7335863  64.7489166  43.5483627  14.3200169
  63.8476334  43.5511475  14.6423750  65.2150345  44.1437836  14.9069061
  15.3075886  55.9421463   6.7862029  14.7066984  56.3745842   7.3929672
  16.1789112  56.1971970   7.0894799  48.1564789  36.6915016   6.8055391
  47.8575935  36.1882973   7.5629587  49.1115379  36.6433144   6.8477130
  53.1407394   4.7329206  87.3361130  54.0407600   4.5117216  87.0968094
  53.1951752   5.6276617  87.6718292  23.0737915  56.2766228  41.9452095
  22.9925880  57.2239647  42.0555801  23.9829407  56.0856705  42.1758957
  77.4823074   4.8669872  25.6049843  76.6568756   5.1766610  25.2321606
  77.2764130   4.6806855  26.5210247  34.4776039  56.0391846  14.1722097
  33.6950302  56.1221619  13.6273003  34.7448006  56.9416351  14.3466291
  43.1793404  14.2932253  12.1078787  44.1097374  14.4552546  12.2639036
  43.0996170  14.2538118  11.1548195  56.7897415  34.3774643  47.0593948
  57.2414703  34.4251976  46.2168427  55.9212646  34.7408829  46.8864594
  66.0822601  43.6978645   1.7461962  65.7285767  43.8066177   0.8634093
  66.4798431  44.5441895   1.9508661  86.6901245  53.0719757  55.6157532
  85.9682693  53.4401627  55.1062546  87.1504745  52.5008812  55.0008049
  46.9226913  38.2662468   2.7934434  47.3557892  39.0957680   2.9948258
  46.0589676  38.5198326   2.4680088  15.7547703  49.3058128  84.0632553
  15.5008841  48.4824333  83.6463394  16.5671406  49.0996437  84.5256195
  10.1514597  43.0199776  60.8826256  10.1863613  42.5017967  60.0785713
  11.0400534  43.3601494  60.9871025  60.2884178  18.4986610  55.6209412
  60.0452194  19.4231339  55.6702995  60.1343956  18.1630020  56.5040283
  85.5015106  31.2831097  53.3574333  85.6286850  32.1762733  53.6772995
  85.4800949  31.3707485  52.4044952   5.8770308  13.0722284   2.1618824
   5.1738377  13.6460962   1.8578634   6.6040015  13.2468843   1.5641860
  79.9560852  15.6035986  44.7358932  80.5457382  15.2475557  45.4005508
  80.2059937  16.5246944  44.6626625  84.5867996  31.7038498  59.5543442
  84.8898621  30.8545036  59.2334137  83.6729584  31.7536640  59.2739067
  59.1025581  61.1441803  44.5630035  59.0874596  60.4350662  43.9202271
  58.3342476  60.9864845  45.1116905  71.5807571  19.1842003  16.3562317
  72.4714355  18.8350906  16.3240261  71.3408051  19.1433163  17.2819653
  84.6886673  61.3769073  14.8982859  85.1346588  61.2033920  15.7272682
  84.7643509  60.5574112  14.4094801  11.3952904  67.2816696  54.1507797
  10.8383265  67.7266846  53.5120430  11.3376513  67.8237076  54.9376144
  18.4316769  51.6604500   4.6501555  17.4884892  51.7623787   4.5227137
  18.8083115  51.8127213   3.7834427   4.5384908   8.9814854  32.6769295
   5.1607285   8.4291677  32.2036438   4.2743411   8.4534063  33.4303131
   9.5019350  30.5590096  71.1279297  10.1040020  30.2562504  70.4481659
   9.9203739  31.3412647  71.4873962  58.8073883  47.3243332  34.4240532
  58.4501953  47.8619576  33.7172241  58.6849518  46.4233398  34.1249657
  12.5772228  61.7105255  14.7820358  12.2452784  61.9890060  13.9285164
  13.4031210  61.2685013  14.5852194  65.8327560  43.6285057  30.8613701
  66.2001724  42.7576981  30.7099266  66.5944138  44.2072678  30.8951473
   8.0832987  60.5917969  36.6268692   7.8617220  61.1234512  35.8623581
   7.5889473  59.7810593  36.5062256  51.5652390  56.5729408  76.1384201
  50.8616829  56.8189468  75.5378189  51.1414223  56.0094795  76.7858200
  34.0342445  56.2294350  79.4897614  33.5887604  55.4199371  79.2397766
  34.5944023  56.4354744  78.7414246  52.8905258  60.7908707  12.2086535
  53.0010490  61.1474571  11.3272552  52.0622787  61.1606102  12.5144873
  59.3371658   6.9661317  87.7967758  59.5556374   7.8073411  88.1978607
  59.9072151   6.3356586  88.2369843  50.3369675  28.3572102   2.0520754
  50.7277031  28.2561951   2.9200337  50.3402100  29.3016605   1.8963946
   1.4851689   8.2233047  86.8912888   1.9836872   8.2407007  87.7082443
   1.3122851   9.1443996  86.6965408  62.9543724  31.1238098  65.7681427
  63.4763565  30.5534935  66.3324966  62.9282341  31.9607677  66.2318802
  83.2282867  59.6615601  67.6673050  82.3314667  59.9075279  67.4404907
  83.2853851  59.8083115  68.6114655  62.7583885  42.3740311  21.1127911
  62.5013580  42.0318375  21.9689865  62.0295410  42.9366302  20.8510761
  12.1216021  33.2707443   8.4442196  12.8289299  33.6940689   7.9576859
  12.4602699  32.3993340   8.6495886  66.1733322   1.3977383  34.2349205
  65.5490646   0.7515426  33.9048386  66.8268814   1.4761312  33.5399742
  12.2388659  32.1967468  80.9768753  12.8970575  32.8639259  81.1715240
  11.4468136  32.6940117  80.7728882  44.8619499   6.7865381  60.4078522
  45.8083076   6.8527150  60.5353737  44.5039864   6.7335691  61.2940140
  15.7219067  67.2891998  15.8243475  16.5354614  67.7792969  15.9433680
  15.0596075  67.8106918  16.2778130  55.4657974  31.2482853  80.3923721
  56.0903473  31.8564014  79.9969406  54.6381340  31.7289810  80.4041672
  68.0070724  46.3471794  11.5289774  68.9494781  46.2331505  11.6518736
  67.8413162  46.0307541  10.6409273  77.7527847  46.4611244   3.1688693
  78.5984802  46.8025589   2.8782706  77.9600449  45.9316711   3.9389050
  52.4538231  15.9400511  82.0701218  52.2356491  15.9949179  83.0005035
  51.7696915  15.3848515  81.6960220  36.8697281  45.8294830  83.3370361
  36.6737404  46.4975929  83.9938812  36.6982460  46.2596397  82.4993057
  70.0984421  55.9851532   9.7870779  70.8465576  55.3981056   9.6778812
  69.3340607  55.4114418   9.7340593  51.1500626  56.2274323  56.0783310
  50.6686096  56.9234848  56.5254822  52.0704689  56.4193039  56.2579613
  21.7629642  12.0125227  78.2537613  22.5541153  11.4937286  78.1082764
  21.5771999  11.9094076  79.1870880  28.4829292  29.8854160  13.1083965
  28.5482864  30.8378639  13.1777115  28.5665627  29.7071419  12.1716700
  58.6399078   2.0848923  68.7623138  59.1074066   2.8990691  68.9488449
  57.7194061   2.3429179  68.7140350  37.3004837   2.8563676   2.0229161
  37.3124886   3.4308305   2.7884748  37.2851486   1.9715197   2.3876638
  34.9524994   7.0226164   4.2424235  35.1930275   7.8517747   4.6557918
  34.1060829   7.1968718   3.8307853  34.1718483  14.7076035  22.4757347
  33.8392372  15.5694284  22.2250175  33.9644547  14.6325121  23.4071751
  61.1548042  35.8875313  57.3409805  60.3531532  36.4100266  57.3167992
  61.4909973  36.0056801  58.2293777   5.1379757  16.1448421  28.0557384
   5.1552215  15.1886673  28.0149345   4.6871781  16.4106808  27.2542744
  75.8071671  49.3695107   9.6966858  76.0101852  50.2821732   9.9017878
  75.7679749  49.3418694   8.7406883  63.9533463  46.9493561  42.0673256
  64.0969620  46.7971458  43.0013695  63.2210732  46.3759422  41.8410263
  64.3601837   5.9885874  18.1359081  64.0437927   6.6896811  18.7056427
  65.3108139   6.0999551  18.1243744  57.8372536  47.3114243  75.6345825
  57.8429108  46.4760399  75.1673203  57.5109940  47.9424820  74.9930573
  30.1969528  53.7417450  77.7751999  29.4632225  54.3051872  78.0209732
  30.4095840  53.2624397  78.5760040  69.6096344  68.5596619  51.7938042
  70.1976624  68.0137711  52.3157845  69.1789398  67.9463272  51.1983566
  18.8426723  17.0514240  67.8820190  17.9479752  17.0287590  67.5425644
  19.3399925  17.5247402  67.2150345   4.1630955  48.9141464  31.4215069
   3.4073968  49.4535446  31.6543198   3.9677086  48.5957603  30.5402088
  55.4460640  21.2482357   1.1392447  56.2945023  21.6900101   1.1043350
  54.9998207  21.6453991   1.8871499  52.7403946  51.2505531  52.1089783
  51.8841972  50.8900070  52.3395653  52.6715851  52.1824722  52.3163872
  65.3837357  56.3356438  71.1327744  64.7117844  55.8083801  71.5648727
  65.4307175  57.1373825  71.6535797   8.5391378  43.1393204  45.5737228
   8.4945183  44.0240822  45.9362717   7.8479877  42.6586761  46.0292702
   5.0964031  43.7314720   0.0353175   4.9438748  43.6692123   0.9782336
   6.0373015  43.5870857  -0.0651542  81.5901108  29.4478874  74.2988129
  82.3923569  29.5275135  73.7827835  80.9329147  29.1412563  73.6740723
  76.5602798  30.0356979  82.5655365  76.8557892  30.2303658  81.6761475
  76.6257553  30.8712330  83.0279465  44.7133102  58.0441780  56.5539932
  45.3187981  58.2135086  55.8322296  45.0543518  57.2536240  56.9722633
  50.2126045  44.8576660  13.3564653  50.7199364  44.3018951  13.9480438
  49.5728951  45.2891388  13.9228868  28.7010193  50.8409157  68.4476852
  28.8253040  50.7782936  69.3947144  29.5886078  50.8443565  68.0893478
  42.9786301  38.5385971  66.6507797  42.8243103  37.8395424  67.2861862
  42.3253822  38.3894424  65.9672165  61.3878632  31.8010864  21.4508667
  61.7418022  32.6214943  21.1075134  61.5872879  31.8272629  22.3866959
   9.6485443  30.4320107   1.9701331  10.5854931  30.6196671   2.0261946
   9.2336912  31.1303196   2.4765859  55.0042801  14.8501015  30.5366879
  54.0796661  14.7120256  30.3311348  55.0490646  14.7900066  31.4909496
  48.7840233   3.8696492  27.7820892  48.1070709   3.4708846  28.3288574
  48.3380127   4.5891819  27.3353481   5.0780315  44.5984383  49.1866646
   5.1921272  43.6550827  49.0713654   5.1330080  44.7324715  50.1328392
  12.2839212  41.2547836  80.0744934  11.7969646  41.8385849  79.4928741
  11.7806797  40.4405479  80.0727158  64.4320602   9.6509275  77.1291580
  63.9410400   8.9400587  76.7170944  64.8660507   9.2401981  77.8769455
  64.4392853   0.7602776  41.6777039  65.0155563   0.0846630  41.3203659
  63.9862061   1.1171986  40.9137917  29.8185787  66.7877197  27.8804970
  30.3962631  66.2932739  28.4619045  29.8672695  67.6876068  28.2030888
  52.2551231  20.7287998  62.9460335  53.0989609  21.1739826  63.0233727
  51.6351852  21.4260578  62.7321663  10.3992796  23.9884548  27.7443314
   9.5862188  23.5295773  27.9555073  11.0903559  23.4199562  28.0841198
  58.2182198  28.6044617   2.6117463  57.6134109  28.7845993   3.3314602
  59.0349121  29.0298767   2.8730292  33.2581215  11.5737047  24.4312611
  32.7916412  12.3984346  24.2954273  33.4882355  11.2806587  23.5495548
  39.8112679  27.3346329  74.5785141  39.6108932  27.9750404  75.2611313
  40.7559204  27.1971302  74.6489487   0.7842476  61.6429596  51.9294739
   0.2657181  61.0926666  51.3425026   1.6466872  61.6873093  51.5166016
  41.3975677  58.2509842  34.5653038  41.1582336  58.6403770  33.7242775
  41.8075752  57.4172134  34.3351860   2.3676476  22.2825127  17.6419659
   3.0410593  22.2432175  18.3210850   2.8566628  22.3833714  16.8253117
  86.5628433  47.0587311  53.8803520  86.9575424  46.6064606  54.6259346
  86.2822418  47.9029846  54.2335243  65.1654892  63.4040718  88.4330673
  64.5491562  63.5664902  89.1472015  65.2461014  62.4509010  88.3983917
  71.3690796  28.9611549  69.3461761  71.5588760  29.6445656  68.7033997
  71.0482330  29.4359322  70.1128998  45.9698830  37.7913589  14.6981287
  46.8511658  37.7359962  15.0676031  45.3925362  37.8305359  15.4606018
  56.7291946  34.2113953  16.3246021  57.1008568  33.8652802  17.1359596
  57.4845810  34.5361557  15.8345509  52.7497063  13.6700497  33.8476868
  53.6991615  13.7818699  33.8953056  52.4491272  14.4015932  33.3084984
  33.5949860  67.8222275  71.2995300  34.3579025  68.2991180  70.9727783
  33.0528755  68.4931107  71.7145691  27.3510628  57.1954536   2.9973803
  27.7204399  57.4278221   2.1454420  26.9919853  58.0161552   3.3346448
   2.2794945  22.4947472  43.3311348   2.1729062  23.0643539  42.5692787
   2.4518929  21.6291142  42.9607391  23.4620953  54.9896164   0.0925960
  23.2745247  55.7546234   0.6364818  22.6281567  54.7867928  -0.3312464
  71.0579681  20.6622124  13.9230633  70.4541092  19.9867821  13.6142244
  71.3905258  20.3241367  14.7545338   3.9158344  14.3255463  70.5198669
   3.7159340  14.1402855  71.4374466   3.1027646  14.6855803  70.1655731
  75.7508926  35.7163696  10.5631666  75.3778915  36.5961800  10.5080156
  75.2967606  35.3095131  11.3010445  60.2167168  12.6676855  80.0027008
  60.0019188  13.5019283  79.5854111  60.8526077  12.2618647  79.4134750
  56.4893837  16.2964973  19.8169994  57.3337708  16.1949291  19.3777695
  56.5473289  15.7248316  20.5825539  50.5195427  46.0927467  40.7962837
  50.2278099  46.0047607  41.7036896  49.8895912  46.6943283  40.3994293
  72.4079208  54.7258682  44.0169792  72.7502365  55.1936035  44.7787361
  71.8618011  54.0323982  44.3872337  24.0916824   0.3135090  50.3723450
  23.9191380  -0.6207849  50.4887733  24.5556660   0.5724216  51.1685333
  70.5563889  63.0948868  38.7095032  71.1921616  62.4825287  38.3393059
  70.3075104  63.6552429  37.9744568  44.5067711  41.8741722   4.0953889
  44.9578514  41.6688957   3.2764742  44.7184410  41.1426506   4.6753073
   3.0568302  20.5245934   1.1617113   3.5053260  21.0618382   0.5086784
   3.7512815  20.2406902   1.7561585  81.8125610  42.7690811   0.8287294
  81.0468674  43.3264580   0.6898594  82.3643951  43.2662659   1.4324814
  70.3827591  41.1528740  46.5359802  70.8786469  40.7796631  45.8072548
  71.0334396  41.6345711  47.0466728   6.5936294  33.9658699  41.8729019
   6.7970204  33.1713142  42.3664017   5.6586690  34.1073418  42.0214500
  41.5906944  20.9694538  66.2633438  42.5287514  21.1366444  66.1720963
  41.4033394  21.1519051  67.1841278  76.8482285  47.6384964  34.4446220
  77.7781906  47.5559616  34.2334480  76.7412643  47.1393127  35.2543182
  77.3407974  33.6205444  26.3420906  76.6109390  33.9214172  26.8833923
  78.0833282  34.1556702  26.6223049  24.4283562  63.2633133  50.9546394
  25.2085056  63.1343422  51.4940491  24.4248619  62.5163536  50.3560791
  12.9205914  63.5625420  21.5425758  12.3835411  63.8610268  22.2765484
  13.4208012  62.8266869  21.8954754  44.0327721  71.9997330   2.5549541
  43.7729568  71.4713364   3.3096230  44.3121529  71.3603592   1.8996804
  39.7125359  46.1291389  82.5215378  39.0267639  46.1721458  83.1879501
  40.4436951  45.6920700  82.9581223  40.0607529   1.3190506  16.4527702
  39.3434296   0.6949108  16.3426399  39.7666359   1.9007083  17.1537704
  41.5570412  47.0420074  10.4211998  42.3523865  47.2037125  10.9286537
  41.5608826  46.0977631  10.2642879   2.9855850  42.1034164  16.2954502
   3.0949786  41.1536827  16.3431320   3.6293776  42.3863640  15.6460619
  31.3366585  40.2396698   1.1738697  31.5561657  39.5811653   1.8329757
  30.7524853  39.7854004   0.5667337   9.8633013   1.8636867  54.0054207
   9.8760624   0.9428219  53.7445030   9.3063297   1.8844393  54.7836113
  36.8417358  51.2678337  12.6996670  37.7859421  51.1466064  12.7997446
  36.6896782  52.1796646  12.9479980  46.7276459  18.2223358  69.3835907
  46.7962646  18.5371399  70.2849350  47.5586357  18.4713364  68.9790039
   8.9230700  18.4207897  81.2062683   9.3933134  18.7188740  81.9848938
   8.0776768  18.1184578  81.5381393  20.9485054   6.1301641  20.6614723
  20.6927910   5.6689868  19.8626251  20.4122791   5.7344394  21.3485641
  40.0676498  18.4755516  71.7695770  39.3340797  18.0002003  71.3795090
  39.8942795  18.4531498  72.7106781  17.4979820  45.4874725   0.1209623
  18.2252026  45.5243187  -0.5003456  17.8274364  45.9321594   0.9019504
  79.0229034  36.5435562  87.5741119  79.7376175  36.3536301  86.9663696
  79.4149780  37.1159782  88.2335358  55.1878319  60.7231750  50.5309982
  54.8775635  61.1853714  51.3096771  56.0907669  61.0207596  50.4197197
  65.4028244  57.0101089  17.8278999  65.0991821  56.3261299  18.4247303
  65.1588516  57.8293991  18.2585659  59.1637650  36.3670425  50.8499069
  59.2163658  36.4169312  51.8043594  59.3945694  35.4611168  50.6443367
  58.7136955   6.4927368  43.3353348  57.7656670   6.4058251  43.4349365
  59.0712242   6.1852770  44.1683273  61.3393211  24.6644478  26.7067661
  61.6085777  24.1384277  27.4597855  61.4151115  24.0702686  25.9601479
  58.1623192   3.2825537  42.2980728  58.2796516   3.7933159  43.0990639
  58.3021011   2.3754413  42.5698090  71.4551849  45.1488075  70.9171982
  71.0137482  45.1200371  70.0683517  72.1622314  45.7829475  70.7980957
  71.2472229  47.2321205  73.3164597  71.0558090  46.9784622  72.4135513
  70.6900177  47.9942245  73.4744034  50.2558861  56.3542519  51.1284676
  50.1566353  55.4123573  51.2670822  50.0504341  56.4830360  50.2024879
  64.3693466  21.6823673  77.9009018  64.9020996  21.2379742  77.2414093
  63.5436287  21.8704567  77.4547577  78.7392197  15.3903532  21.4658203
  77.8916168  15.7202559  21.7640934  79.3501282  16.1059475  21.6417351
  65.8232727  56.4113541  51.3649635  66.1785431  57.0623207  51.9701538
  65.3077545  55.8253441  51.9191055  39.8636055  30.5907822   0.4487119
  40.3014107  30.7373371   1.2872093  39.3631897  29.7850189   0.5774118
  44.2643585  36.2514687  64.5513000  43.4022980  35.8684273  64.3889236
  44.4316635  36.0805626  65.4781418  67.3891602  19.8858490  43.7523384
  67.3721619  19.0072937  43.3727570  68.3068085  20.0289555  43.9840050
  25.3525639  12.3945684   7.8851666  24.6283627  12.0984583   8.4366055
  25.8768711  12.9538784   8.4583216  58.3176842  27.2450066  79.0519333
  57.9945183  27.5350189  78.1988831  57.8185120  27.7608318  79.6851578
   0.6592441  55.3266907  35.0743523  -0.1612525  55.5232430  34.6222649
   0.4049435  54.7433281  35.7893715  24.5990429  23.3479137  83.3656616
  24.0144386  23.8197727  82.7725220  24.1526756  23.3729534  84.2120438
  67.6430511  13.2408800   4.1308188  67.8806763  13.6452656   4.9652276
  67.0588989  13.8750420   3.7150767  46.3491592  31.1366596  64.5730972
  46.6678162  31.9498386  64.9647903  46.3708305  31.3003902  63.6302528
  51.4780197  35.2865562  40.2632713  51.2069702  35.3531189  39.3476639
  50.7418175  34.8586922  40.7005005   9.9271736  64.6584625  22.4178200
   9.4714031  65.4830093  22.2486153  10.1544943  64.6967163  23.3468475
   2.1352735  36.8169556  86.9496994   2.4038463  37.7254219  87.0867767
   2.9459908  36.3581314  86.7295837  69.5488358  14.3291254  80.8604355
  70.2977676  13.9186783  80.4281464  68.9562912  13.6027060  81.0539246
  71.5915375  65.7953873  20.2986240  71.8984070  65.0215759  19.8261013
  71.3455582  66.4140701  19.6108990  65.5356522   6.1178646  61.4784012
  65.9910431   6.3448524  62.2891541  65.9448013   6.6692228  60.8114433
  28.9001846  70.2922287  67.3451004  29.4779320  69.5664520  67.5810928
  29.4937935  70.9925537  67.0741577  55.4146805   5.5174456  51.4298134
  56.0615616   6.1563983  51.1306229  54.5731544   5.8825979  51.1564445
  36.7931519  68.4569702  39.4005318  36.3618927  67.9403610  40.0812416
  36.0783195  68.9151764  38.9586105  24.3501110  12.4374075  71.1962967
  23.4117584  12.2999754  71.3260651  24.4198799  12.7924709  70.3101349
  42.2513580  13.4772348  19.4737225  41.7595558  12.7157726  19.7811890
  43.0786629  13.1156321  19.1558495  50.4845963   3.8236611   9.1172791
  50.1991882   3.7871838  10.0302105  50.3216019   4.7286201   8.8513556
  34.3564453  57.3922691  73.8439407  35.2151909  57.0079079  73.6677170
  33.8491936  56.6783333  74.2302322   1.6095101  65.7316360  75.3495178
   1.6636218  65.4627228  76.2665710   0.7016072  66.0125961  75.2354813
  76.3421555   9.6956224   0.9524119  76.6528320  10.4244947   1.4894931
  75.8755112  10.1133680   0.2285591  55.0787811  68.0826797  27.3232059
  55.6995354  68.7260895  27.6651402  55.3622360  67.9321289  26.4214191
  76.5699081  32.0581741   4.5126200  77.3820648  32.2317505   4.9885349
  76.8274994  32.0597458   3.5907331  59.9991684  26.5382004  59.4585075
  59.2170601  27.0898342  59.4430618  60.1442337  26.3026104  58.5421638
   6.2488074  50.0597878  39.0698280   6.4651613  50.3524780  39.9551239
   6.2436013  50.8615990  38.5470428   1.9975632   4.9574566  45.6023750
   2.6602476   5.3693233  45.0478973   1.3643905   4.5896463  44.9859047
  61.3800964   9.3974876  18.9926586  60.6004143   9.9428587  18.8882523
  61.3525276   8.7953491  18.2490864  50.4191856  52.8672523  29.2963142
  49.8567886  52.1125908  29.4707317  50.4354362  53.3499413  30.1227417
  51.8868752  47.0851059   3.9627318  51.0006485  46.7795525   4.1562982
  51.7931671  47.5991440   3.1607251  50.1693382  28.1125889  11.4397593
  50.1737785  28.7928543  12.1131458  50.2801552  27.2948017  11.9247112
  46.7800026  40.1592636  74.1591568  46.4134331  39.9092331  73.3110199
  47.4483223  40.8113060  73.9483948   9.1903400   9.7728729   3.6823242
   9.1753759  10.0333548   4.6032786   8.5550423   9.0591974   3.6249185
  68.5112152  57.3083305  43.1387024  68.7421799  56.8742828  43.9599724
  69.2018433  57.0495453  42.5285454  17.1827183  59.2527428  71.4591751
  16.7488918  58.9923668  70.6466293  16.6754513  60.0017128  71.7721558
  27.4807758  55.9391594  38.5856705  28.3204861  56.2640533  38.9105721
  27.2280426  55.2606316  39.2117386   9.4399052  14.9658489  84.0715179
  10.2382689  15.1881924  84.5504913   9.7296200  14.8413448  83.1677551
  18.1482868   2.3109665  10.2716541  18.9822655   2.7565429  10.1227503
  18.3866711   1.3926390  10.3984613  23.9149895  18.7557793  83.5210342
  24.4836617  19.0923557  82.8285294  23.0786934  18.5912857  83.0853958
  13.1663628   9.9528294  32.9822960  12.7496710   9.2902098  33.5332375
  13.1320210   9.5858984  32.0988884  33.7163544  57.5379066  70.2020569
  33.5345192  58.1035271  70.9525452  34.3812485  58.0106430  69.7013855
  43.1139336  51.2345772  82.5715256  44.0014572  51.5919113  82.5423965
  42.9121475  51.1702614  83.5049973  38.3090439  24.7303429  20.2851009
  37.7077560  25.4665966  20.1727753  39.0942078  25.1190128  20.6706982
  78.7842102  43.6955070   1.1468304  77.9719391  43.3472137   0.7792342
  78.7323914  43.4895363   2.0801697  52.8390198  11.3885717  88.1270142
  53.2698097  12.2338066  88.2544098  53.3641472  10.9506531  87.4571686
  19.3591843  15.9384384  11.4607239  18.8140736  15.4475946  12.0756693
  19.8768368  16.5235558  12.0138111  24.0586205  54.9624367  15.7998972
  23.4332409  54.5843887  16.4181309  24.2747726  54.2423859  15.2074099
  30.0961742   4.9219031   4.3742547  30.0999126   4.3750186   3.5886750
  31.0154247   4.9704852   4.6366444   2.0614274  56.4004478  53.9698830
   1.7368580  56.1769257  54.8421936   3.0131614  56.4280014  54.0682449
  79.5414352  39.1529922  54.2654381  78.6680298  39.4980316  54.0800972
  79.4675369  38.2129822  54.1006584  86.0787048  12.6666422  50.8821449
  85.1968689  12.5922565  50.5173645  86.1392441  11.9474897  51.5109406
  74.0717087  47.6718864  10.8980455  74.8614426  48.1065254  10.5761251
  73.3539505  48.2372856  10.6127729  85.6242905  30.3333817  29.8454075
  85.2900925  30.5598488  30.7133102  84.8486252  30.0661469  29.3522987
  31.9175739   8.9897394  73.2969589  31.0221996   8.9559593  73.6336975
  31.8332520   9.3914223  72.4322205  54.3222084  41.3370857  19.3912144
  55.0993958  41.2895088  19.9479427  54.1757774  42.2744141  19.2639370
  83.8896942  68.8231125  31.2857971  83.3154907  68.2046356  30.8341255
  84.7035370  68.3382034  31.4227467  32.2904549  48.7390175  55.1643524
  31.9716702  48.0269012  54.6098289  33.2192726  48.5459213  55.2918053
   5.2677617  65.0194244  59.8049049   4.5914955  64.5225296  59.3444824
   4.7967491  65.7493134  60.2069511  34.3837242  40.9617462  56.7465134
  33.5491943  41.4006653  56.9112740  34.2442932  40.4804535  55.9309502
  74.3254318  32.9770317  62.9302483  74.5071106  33.7427483  62.3853569
  73.3732147  32.9729118  63.0277138  78.1613388  54.2015266  85.2429886
  79.0062180  54.0275459  85.6578751  78.1456909  55.1507034  85.1202927
  23.9268913   5.0581241  25.1374817  23.6980190   5.2072010  26.0548820
  23.3222084   4.3750186  24.8477268  68.9279709  52.7488976  27.5910015
  68.2821503  53.2321320  28.1064034  68.4241486  52.3685799  26.8714523
  11.2082882  35.8732986  77.8996735  10.7940550  35.0171356  77.7918472
  11.5562420  35.8604355  78.7912979   7.8881435  43.4258766   0.4632070
   7.4038296  43.8177032   1.1899412   8.3869352  42.7139664   0.8639832
  77.9088593  32.0075722  10.0786161  78.2592773  32.6007423  10.7431335
  76.9945068  31.8787231  10.3307934  76.1718597  64.8656845  57.6140823
  76.3511810  64.0450745  57.1550903  75.5201340  65.3072281  57.0695419
  77.8720322  57.5164680  63.6185150  77.8628922  57.9736252  62.7775917
  78.5837479  56.8814507  63.5381927  22.2287884  49.4113464   1.3106991
  23.1843891  49.4511566   1.3491026  22.0414581  48.5933533   0.8502361
  23.8063087  19.0041084  10.5890484  23.3316002  18.3126431  10.1277924
  23.1207848  19.5763969  10.9336872  65.1981354   2.3698249  82.8400574
  66.0565491   2.0728576  83.1419907  64.6619644   2.3976812  83.6325150
  48.8936043  31.3734455  61.4657784  49.2664223  32.2417412  61.3131218
  47.9729500  31.5402279  61.6677895  13.8179064  40.3845673   7.9434466
  13.8862658  41.2326088   8.3820639  13.4456663  39.8018761   8.6053686
  26.9465847  61.3996468  72.3554916  26.7813168  60.6595726  71.7713623
  27.7849960  61.1952972  72.7696609  16.6580677  50.7402344  11.2978144
  15.8652668  51.2062798  11.0322895  16.5982647  49.8939934  10.8544941
  20.6232700   3.0303526  43.8435097  21.3262520   3.5798268  43.4969177
  20.4833012   3.3535941  44.7335396  76.2491837  60.8362923  33.6266441
  77.0339584  61.2415657  33.2577019  76.2362442  61.1260719  34.5388336
  60.5567017  10.9404039  51.0981293  60.9936371  11.0249538  51.9455757
  61.2604637  10.7245731  50.4862747  23.6743240  65.0950394  60.1754723
  23.7025547  65.9657669  60.5720406  24.2150173  64.5526810  60.7496948
  78.9267273  15.5241890  13.1434631  79.8101044  15.3329592  13.4585934
  78.8285217  14.9808722  12.3615465  86.3304596   9.8307762  37.9078293
  85.9402313   8.9610357  37.9944801  86.3332138  10.1818552  38.7983170
  15.0081730  47.6759415  67.0356216  15.3126383  48.2104683  66.3022614
  14.8394365  48.3052406  67.7368622  75.3743057  33.9106979  20.1625347
  74.5397491  33.7479439  20.6021538  75.9904861  33.3164101  20.5907555
  16.3006001  39.7157745  85.6511459  16.5664577  39.8916893  84.7485962
  15.5797024  39.0911713  85.5710678  17.8187389  55.3752289  51.5818367
  18.1471577  55.3302841  52.4798088  18.5787277  55.1676483  51.0381851
   2.8599765  47.2158890  58.0902596   2.2452693  46.6001511  58.4892998
   3.5870979  46.6692734  57.7923737  85.4573441  25.3463840  29.5498371
  85.3117828  26.1363697  30.0703812  84.9145737  24.6792679  29.9700661
  72.5672836  31.4503822  75.7494812  72.0412292  31.2770729  76.5301666
  72.3175430  30.7607594  75.1344376  43.3224525   5.6518402  65.8944702
  44.2581062   5.4975381  65.7641907  43.1222343   6.3992801  65.3310165
  85.4161911  17.6359596  88.0552063  86.2094803  17.5444164  87.5274429
  85.1211853  16.7372723  88.2020645  41.5037346  27.0257912  18.5819397
  41.2276802  26.5223236  19.3478031  41.4032745  27.9399586  18.8473415
  46.9291458  49.1399231  74.6878204  47.4646988  48.3500061  74.6140518
  46.1828728  48.8740273  75.2250366  17.6059170   4.9418936  53.6075783
  17.9511166   5.8159571  53.7894630  17.5444965   4.9024615  52.6531677
  21.7564201  37.2125587   3.3674207  21.1527710  37.0326920   2.6466656
  21.3851528  37.9784851   3.8053105  22.2111568  63.9906883  33.6997452
  21.4558353  63.4552574  33.4567680  22.8611660  63.8100548  33.0207062
  34.9084244  49.5716743  46.7575989  34.7021408  49.5122566  47.6904182
  35.7538567  49.1312981  46.6707382  68.8774414  59.3818703  22.4424381
  68.0283890  59.7784805  22.2473927  68.7091446  58.8129387  23.1935863
  65.3281326  51.3437195  53.4034767  64.5183487  50.9100456  53.1343765
  65.1784897  51.5844841  54.3177338  27.6898384  65.8367310  86.8043365
  26.8469868  65.4758759  86.5293579  27.4640732  66.6331635  87.2849121
  22.8339272   2.6425431  13.2546892  22.8219795   3.5838184  13.4281540
  21.9128475   2.4082689  13.1408453  37.2137909  13.2504282   2.1715443
  36.7295685  12.8130198   1.4712341  37.9266014  12.6474657   2.3826535
  81.8447342  22.3050194  60.5196533  81.5313263  21.7602348  59.7976990
  81.5523376  21.8485737  61.3085709  79.6877594  61.1241684  65.0001907
  80.5058975  61.6176338  64.9421387  79.0047760  61.7944679  65.0217972
  75.6925278  68.6723862  73.2516251  76.4489059  68.4911575  73.8095551
  75.0970154  69.1718674  73.8102875  31.7191982  32.7734375  74.0266800
  31.9908371  33.6536026  74.2869720  31.3111553  32.4069023  74.8111496
  50.1288185  60.0990257  40.7576180  49.8401909  59.4053307  41.3506699
  50.2397003  59.6616669  39.9134254  67.6184311  18.5441456  39.9905968
  68.1131210  19.2538872  40.4002151  67.4400635  17.9329491  40.7053375
   2.2146306  39.5127029  27.6579571   1.3164991  39.6219139  27.9704704
   2.5934565  40.3904152  27.7063313  44.5561218  26.4576950  69.3162994
  45.2922516  26.4090290  69.9261932  44.0703239  27.2361183  69.5888596
  12.5653191   4.1585174  51.1242599  13.1211491   4.7870593  50.6635895
  13.1693516   3.6685350  51.6821976  78.6217422  39.9773636  21.7570782
  78.3475266  39.2372856  22.2986660  78.3650208  39.7318153  20.8682423
  72.9550400   1.8955312  73.6819763  73.7382965   1.3592147  73.8048706
  72.2421188   1.2624334  73.5973587  61.9306984  42.3588524  56.8138161
  61.8584137  43.0625877  56.1690178  61.0329170  42.0482330  56.9310036
  76.0966034  64.7712326  83.0501328  76.5706940  63.9918633  83.3400421
  76.6299667  65.1250916  82.3384094  45.8559380   8.1282063  84.7622681
  45.7671738   7.1885991  84.6026077  45.3687706   8.5395403  84.0483322
  49.2119751  65.8084488  72.0861435  49.2813759  64.9890976  72.5761185
  49.2408981  66.4914017  72.7561951   1.8012134  25.8726902  72.2830276
   1.0864298  25.9663658  72.9127426   2.4693410  26.4876099  72.5858612
  29.4576206  59.0878601  39.0592308  29.7136307  58.1713753  38.9555855
  29.5145664  59.2473755  40.0013275  10.6403351  57.1690788  10.1048174
  11.1928272  56.5446968  10.5750608   9.8192987  57.1802559  10.5967579
  48.9909058  57.9978638  54.2062912  49.1676331  57.9223785  55.1440048
  48.5971336  57.1584549  53.9684448   4.0242004  33.5926704  66.4976578
   4.8398809  33.8767204  66.9102249   4.0637431  32.6365967  66.5220337
  82.4749832   5.2076759  38.0469818  83.0459671   4.9040513  38.7526932
  82.3253555   6.1329327  38.2412605  84.5123367  12.2490759  24.0495491
  84.0651627  12.3005390  24.8943100  83.8422852  11.9345808  23.4426270
  66.0224838  56.6424980  26.3246269  65.6621170  56.6935272  25.4393215
  66.9461975  56.8709602  26.2207584  63.2844849  17.0962696  51.8380547
  64.2056198  16.9490471  51.6234055  63.2916069  17.3540611  52.7598610
  56.8284798  54.0477448   0.5797265  57.2385101  54.8424721   0.9210665
  55.9817352  54.0052795   1.0240836  70.9628372  60.7157631  40.8078461
  70.4378586  60.6169968  40.0135689  71.7942352  61.0782547  40.5019035
  70.8481827  67.6300735  75.1309738  71.5879440  67.0383148  75.2681427
  70.7090530  68.0413132  75.9840546  31.5135517  13.1593170  78.9874191
  31.1861210  12.7559929  79.7913818  31.5200672  12.4473038  78.3477173
  74.2246933  50.7006721  30.7824059  73.6963654  51.4290123  31.1089230
  73.7130280  49.9198723  30.9940300  83.3899384  65.6715469  37.4658356
  84.1733322  66.2153549  37.3833809  83.6304092  64.8412170  37.0547791
  77.2977905  28.7853699  24.5119362  77.6212311  28.4901505  25.3630905
  76.4186401  28.4123478  24.4472809  28.1685677  45.1716995  11.2269459
  27.2430859  45.4050980  11.2993402  28.2726631  44.8834686  10.3201284
  46.9743004  50.6199684  51.8938255  46.1578903  50.1722984  51.6717987
  47.4188538  50.7377090  51.0543365  79.8580322  29.5686722  61.0078125
  80.5738602  30.0601807  60.6050148  80.0286713  28.6576862  60.7686005
  61.1133919   1.1775221   2.8704646  61.5020790   0.9130726   3.7042625
  61.5799408   1.9786075   2.6320882  23.1974220   0.2841422  29.7051640
  23.5894852  -0.0846708  30.4966774  23.1893768   1.2287587  29.8596516
  37.1743660  30.0772305  83.0229645  37.2134361  30.9659271  83.3764038
  37.9396210  29.6380234  83.3940582  63.2016068  25.2643986  79.7953644
  62.5114784  24.6017723  79.7656784  62.8313179  26.0167294  79.3337173
  44.1777878  69.5592194  45.3851166  44.2132149  70.2934341  44.7720032
  43.6621895  69.8871155  46.1219177  12.3570442   4.1219516  19.8054295
  12.5800467   4.8705859  19.2522125  13.0144215   4.1339631  20.5010891
  46.8746872  47.8538208  25.9729118  46.2847061  47.5008469  26.6389198
  47.7286377  47.4773064  26.1856003  18.7503471  26.1275272  18.1478672
  18.1470394  26.2473125  17.4144478  19.2768173  25.3665104  17.9030952
  59.2501793  37.6536980  20.5754547  58.5625572  37.9029884  19.9579887
  59.7751694  38.4469109  20.6823559  11.9369164  50.7513809  39.6135864
  12.3005705  49.8670959  39.5685921  12.2461700  51.0951767  40.4516792
  48.4290810  39.0378876  56.8398628  48.0703850  38.3980713  56.2248802
  48.8509712  38.5089073  57.5169296  10.8081045  39.0105629  79.5353775
  11.4414158  38.6038513  78.9440002  10.3849382  38.2739487  79.9764709
  46.9024200  58.5327988  22.5669460  47.8115463  58.7383041  22.3490276
  46.8474541  57.5801735  22.4913368  61.8357391  61.8884621  53.3312950
  62.1625671  61.8835678  52.4316330  62.5495644  61.5139771  53.8474808
  77.1046371  27.7972660  43.9191284  77.9955444  27.7995167  44.2691422
  77.1391144  28.3952713  43.1725159  46.3466263  27.7112522   5.9259977
  46.1567574  28.3002949   6.6562099  46.8647156  28.2406254   5.3197150
  53.9106216  64.7356186  41.7197952  53.3510971  65.5003586  41.5843773
  54.7985840  65.0582809  41.5660210  84.2265015  59.6506233  24.0019913
  84.0706558  58.7353783  23.7690163  84.9074020  59.6141777  24.6737652
  64.6040344  12.1938105  69.2616196  65.0942688  12.3987885  70.0577850
  63.7810860  11.8199682  69.5766373  70.6866074  42.8585472  38.5328979
  70.0061340  42.4608765  39.0760841  70.2562408  43.6070633  38.1196899
  54.3472900  43.5191078  73.8722076  54.4160728  43.7766342  74.7915497
  54.5311127  42.5797234  73.8722229  46.9698563  42.4601784  26.9074497
  46.9939613  42.4875641  25.9509449  46.8865166  41.5302391  27.1184101
  76.1623840  71.5555420  63.1500092  75.5770569  70.9507141  62.6941414
  76.8393478  71.7645721  62.5063820  29.3234138  40.6030273  63.9425125
  30.0326920  40.4030190  64.5533752  28.5236893  40.4533386  64.4467621
  78.1282501  49.5188866  19.3961010  78.3376617  50.2002869  20.0349064
  78.5331345  49.8204155  18.5828476  53.6088371  32.3989983  30.8258686
  52.7375641  32.2914581  30.4443531  54.2044640  32.0416222  30.1672783
  60.7428932  53.9292412  86.8151321  60.1400642  53.2052574  86.9844742
  61.4195480  53.8394394  87.4861832  82.9719009  47.0043602  24.9783649
  83.6434937  46.5066719  24.5119877  82.5492630  46.3612633  25.5476093
   4.6316695  25.7833118  13.3894367   5.1210003  25.1803970  13.9491520
   4.5377898  25.3165035  12.5590706  12.3866625  51.8364983  58.9447250
  13.3112192  51.5897141  58.9218521  11.9451323  51.0762482  59.3232803
  84.4097900  24.8256989  78.6907272  84.4732971  24.0159664  78.1842346
  83.4775772  25.0427170  78.6795349  48.6615982  35.5489845  23.7362690
  48.6385002  34.8401947  24.3791695  48.0808678  35.2548370  23.0345116
  35.9038010  58.7169418  56.5975723  36.5711517  58.3652649  56.0083351
  35.0973473  58.2703629  56.3398285  58.5619392  36.4773941  75.0318451
  58.1321259  37.2839088  74.7471924  59.3898468  36.7690849  75.4135818
  77.7408829  13.2990398   0.5302367  78.2315292  13.7772055  -0.1382376
  76.8244324  13.5092649   0.3509195  23.3038635  64.2307587  10.5870962
  23.4266205  63.9217834  11.4847012  22.9447098  65.1126785  10.6843786
  84.7462311  52.6263504  77.6909561  84.5721664  53.5117035  77.3714523
  84.6068115  52.0648117  76.9284134  62.8572426  55.8336411  67.9239273
  63.7449646  56.1576195  68.0763092  62.8695831  54.9359894  68.2560349
   8.6546040  61.5172234  58.7401543   9.3692551  61.2733841  58.1518974
   7.9146810  61.6918983  58.1585770  22.0050831  60.2190971  45.2100677
  21.4012165  59.4769859  45.1810226  22.5060024  60.0889053  46.0152779
  59.6945915  60.1152954  21.5455112  58.7592239  60.0115318  21.3707047
  59.7372093  60.4056282  22.4566231  50.7082176  46.2754936  56.2770920
  50.7736778  45.4913216  55.7320976  51.0527916  46.9789543  55.7269630
  58.0064888   0.0095303  78.8550568  57.5566864   0.8391945  78.6951599
  57.7799759  -0.2157005  79.7573853  31.2280655  67.2011261  81.3186264
  31.7079811  67.8665466  81.8117065  31.7589951  66.4094009  81.4053574
  14.1190014  58.4945717  27.6269131  13.6367569  58.3173332  28.4345379
  14.4513912  59.3854294  27.7370205  16.4631443  30.8506985   8.2432461
  17.2019711  31.0083828   8.8310413  16.4865665  29.9084167   8.0765514
  20.6982117  33.6787872  13.4956713  20.8534412  34.4838219  13.9896927
  21.4611301  33.1319084  13.6830473  49.7024078  56.2055244   8.9159632
  49.5653305  56.2399979   9.8626699  50.1147957  55.3550987   8.7644758
  48.7483597  23.2204151  38.5219460  47.9131775  23.6691322  38.6536789
  48.5058899  22.3145638  38.3299141  51.3221436  62.2629929  27.9474163
  50.8985748  61.5700645  27.4407902  50.7151299  63.0014153  27.8974800
  21.3122101   8.8610191  39.2725487  21.6862030   8.0625134  39.6450424
  22.0244675   9.2422180  38.7591171   2.8047214  55.3198814   9.6033077
   1.9153751  55.3375740   9.9568367   2.9948857  54.3899345   9.4797373
  67.3090973  21.6881657  39.7140999  68.2101517  21.4205112  39.8949318
  66.7712936  21.0070496  40.1179276   3.0024924  42.9111099  69.2624435
   3.2082479  42.8189812  68.3321762   2.8939431  42.0125198  69.5738754
  43.2550926  56.2193794  59.7495537  43.3694382  55.3517380  60.1373100
  43.0159187  56.0452576  58.8392181  62.1587067  22.4456997  76.4524307
  61.2018738  22.4718781  76.4475250  62.3971939  22.2358665  75.5494766
  83.9030914  67.6197433  79.6447296  83.3892288  67.7740936  80.4374161
  83.3469925  67.0585938  79.1042709  24.6112595  68.5554199   3.9780269
  25.2435188  69.0300674   3.4384060  24.7907200  68.8488846   4.8712816
  83.2650146  43.8092079   2.7893510  83.4604416  44.6314888   2.3400168
  84.0974045  43.5476952   3.1830168   0.9098193  65.8867340  37.3166962
   1.7309525  66.1139832  36.8804245   1.1399412  65.1616135  37.8976212
  41.2389069  68.3882675   3.8652277  40.7935677  69.2062073   3.6441407
  41.1721001  68.3292084   4.8182650  64.9394836  36.2923164  79.5704651
  64.5001068  35.8446388  78.8474426  64.5074615  35.9585724  80.3567276
  52.7219849  43.5221291  30.7610531  51.8910446  43.5919456  31.2310543
  53.3488998  43.2338371  31.4244499  68.8250656  15.5792980  10.7670422
  69.1055222  15.9872866  11.5862627  69.1082764  14.6681995  10.8439770
  54.8581810  26.0345707  72.0317764  55.5343056  26.0044689  72.7086639
  54.6969795  26.9682236  71.8956146  33.7703476  36.7417831   3.8930414
  34.5317612  36.6282768   4.4618955  34.1066132  37.2205505   3.1354537
  84.4184113  56.8214149  14.8929195  83.4691086  56.7843552  15.0099115
  84.7675858  56.8723640  15.7827024  29.6149101   0.5053084  34.4661560
  29.1780033   1.1571816  35.0142479  29.1159534   0.5060169  33.6492882
  53.2642555   8.7508497  25.6387043  53.0877876   8.2446718  26.4317207
  52.8013954   9.5776472  25.7743454  70.1571884  23.3526497  22.6354790
  69.8098145  24.1197491  22.1803703  70.4929352  23.6968613  23.4631405
  85.6988525  61.7429008   9.4991856  86.6466522  61.6774406   9.3824635
  85.5772400  62.5252800  10.0370760  46.9999695  44.3323441  31.4687004
  46.7975235  44.8463097  32.2504196  47.8599358  44.6476974  31.1907883
  15.8509321  36.7772560  67.6741638  15.1620407  36.2692108  68.1025925
  15.8987179  37.5892448  68.1787567  29.8861847   1.5249770  61.1670036
  30.4465160   2.1980658  60.7807236  29.6208076   0.9800988  60.4261169
  22.8376770  26.3157520  18.7685070  22.5472240  25.5794353  19.3067513
  23.4373932  26.8033180  19.3331776  44.0011597  71.8026886  52.6990089
  43.7235451  71.0629730  52.1586609  44.8491783  71.5354156  53.0534935
  61.8450661  59.5115662   0.3062787  62.6167030  58.9552345   0.1999702
  62.1307030  60.2065163   0.8993120  11.3973799  50.6503792  17.1716557
  10.8582315  50.2671967  17.8635540  11.2184334  51.5894127  17.2209148
  28.4324837  62.7626381  31.7001820  28.1439476  63.0741577  30.8423157
  28.7439098  61.8719406  31.5392418  59.1700439  56.3088379  87.0652390
  59.5676041  55.4673576  86.8414383  59.9064331  56.9192085  87.1027756
  66.8854752  67.7278824  62.6069450  67.4787979  67.8570786  63.3468819
  66.0290680  67.5828400  63.0091553  22.3205738  45.3153267  57.3411255
  22.7225895  45.7345657  58.1019478  21.7905273  46.0042343  56.9402580
  52.1510582  33.4009018  18.4863834  52.6654930  33.9330826  17.8794460
  52.7905273  32.8167610  18.8939285  63.6995010  26.2240887  15.7590046
  63.2034492  25.8539600  16.4891891  64.2265091  26.9181862  16.1548882
  40.4261436  49.0116615  60.8816986  40.1363297  48.6723671  60.0348701
  39.7314453  49.6134415  61.1490631  39.9645500  56.0404396   9.3343468
  39.5506554  55.8281479   8.4977732  39.7753296  56.9694290   9.4662714
   8.9791517   9.2845030  28.5978260   9.8749704   8.9593649  28.5082436
   8.6299152   8.8181591  29.3572922  44.2910042   1.2314897  81.7323074
  44.7645416   1.5848308  82.4853973  43.5022240   1.7702929  81.6710587
  22.1186867  23.9220829  19.7878227  21.3347759  23.5555096  19.3787518
  21.8352337  24.1723709  20.6671658  76.2310486   1.3271142  76.1782227
  75.7001266   1.4326568  76.9676590  76.9652100   0.7787451  76.4548721
  64.5617218  66.6404800  79.5802994  64.7929916  66.2404099  80.4185638
  64.6346970  65.9271393  78.9462204  46.2890892   9.5575218  70.9826431
  46.4379768   9.3637829  71.9081268  46.9892693  10.1672955  70.7499313
   2.6475580  24.0418568  41.0573349   3.2847812  23.9142914  40.3545494
   1.8282681  23.6957188  40.7035217  68.8536072  15.5468426  33.9139252
  69.0350342  15.4818792  34.8515244  68.9935989  14.6604290  33.5809021
  73.3105469  68.7182007  31.6574917  73.8613434  68.5459213  30.8938313
  73.6412735  68.1232529  32.3304596   5.6293821  58.6536026   5.7030540
   6.4704285  59.0944824   5.5826468   5.4489737  58.2463608   4.8558002
  60.6153412   4.5875020  34.1383324  60.1647797   5.3928399  34.3926048
  60.7073441   4.6543770  33.1879158  63.0258636   6.5391140  15.2302923
  63.3887520   6.1030974  16.0012875  63.7880516   6.9035058  14.7802677
   5.8591795  70.2811127  24.5026741   6.6027932  69.6871719  24.6051502
   5.7930384  70.4213333  23.5581131  72.6289597  58.2777596  56.2971992
  72.7539291  57.5450134  56.9002724  72.0238724  58.8627243  56.7531776
  23.1573334   4.3551917  56.9821396  23.3248100   5.1953502  56.5551529
  23.9403687   4.1937079  57.5084534  57.2839699  45.7101479  79.8592682
  57.9282112  45.0076065  79.7719421  57.0123138  45.8990059  78.9610672
  35.2140045  23.1563320  75.6524124  35.1603355  22.2010899  75.6818237
  36.1341095  23.3501530  75.8315048  50.3244247  41.8944359  65.5281830
  51.1922874  41.5463448  65.3235474  50.3141479  42.7633781  65.1268539
   9.3104801  66.3532333  46.0655060   9.0648899  66.1647034  45.1597595
   8.4789495  66.3777466  46.5389900  48.6876907  13.6418247  25.9844379
  47.9961433  13.2245321  26.4981117  48.4041977  13.5423012  25.0756149
  77.7587509  28.6586800  86.0009842  78.5803757  29.0656586  86.2758102
  77.3148041  29.3361015  85.4908447  35.6212196  51.4256172  44.3640976
  34.9093094  51.8221626  43.8619385  35.1822166  50.9642334  45.0786819
  82.8352509  59.6680908  70.3353043  82.8525085  60.3210182  71.0350342
  81.9665756  59.2711983  70.3994293  47.8294754  20.4915428  37.8485832
  47.6838837  20.4285107  36.9046249  48.5087090  19.8419762  38.0300674
  40.1683502   2.7890644  19.1674900  39.9666061   2.9189982  20.0941238
  40.6290092   1.9505225  19.1379528  37.8597679  43.5743294  62.9959297
  38.6447639  43.0266609  62.9874878  37.4663277  43.4423027  62.1333694
   2.9518147  25.2314739   8.5575485   3.3798931  25.9415817   9.0358019
   2.3916278  25.6752071   7.9207411  63.7110519  58.9393158  57.2339821
  63.7773895  59.8628502  57.4766960  63.9338303  58.9196701  56.3032761
  67.4138107  10.0757532  37.8073883  68.1780396   9.7069530  38.2503014
  67.7746353  10.5325298  37.0475235   0.4871415  68.1524506  73.2174377
   1.2295938  67.9429398  72.6507797   0.0034975  67.3298340  73.2924728
  42.1030579  24.6771393   5.2792664  42.6694527  24.2460365   5.9192519
  42.7040558  25.1726151   4.7229071  30.2005997  41.7609024  24.8794250
  29.9869843  40.8278580  24.8740120  30.9982929  41.8209381  25.4050770
  62.4268799  33.6039658   6.0981250  61.5748634  33.9432907   6.3722782
  62.5399742  33.9328156   5.2063293  26.5695705  52.4021797  36.9654541
  25.8437538  52.8239403  36.5055199  26.1473274  51.7995033  37.5776024
  62.2562790  69.5756836  19.8593960  61.3358192  69.8115082  19.9750290
  62.6817741  69.8692780  20.6649933   9.3960981  63.4467888  60.5415916
  10.0232620  63.9657135  60.0379868   9.0976706  62.7729111  59.9308014
  13.6098814  69.1844788  44.2635269  12.9083719  68.7798157  43.7532654
  14.1326866  69.6593628  43.6174698  83.8591461  26.3818722  22.4288979
  83.2512283  25.7689610  22.0153713  83.8484344  27.1509609  21.8591423
  81.0558701  41.4366837  53.2780685  81.2946320  41.3037605  52.3607063
  80.4208374  40.7447472  53.4629593  53.5537682  24.2791462  61.0797310
  53.8546143  24.5073471  61.9593048  54.2219467  23.6805782  60.7458344
  39.6484108  25.0878410  77.8970718  39.6465225  24.9719925  76.9469070
  38.7482719  25.3339729  78.1101379  77.0546494  55.9735069  66.0547104
  77.1773987  56.2462120  65.1454315  77.1421967  55.0205688  66.0328674
  60.3362617  20.9019737  68.3769913  61.1216660  21.4183502  68.1961060
  60.1093712  20.5080090  67.5346527  77.1883469  62.0278397  59.5709076
  77.3363800  62.2021942  60.5003815  76.2504425  62.1729736  59.4463997
  76.6388245  35.1633224  75.8336639  76.0545349  34.4051514  75.8374252
  76.8725815  35.2809982  74.9129333  43.2801247  50.2677307  23.8998718
  42.3870468  50.0654411  23.6210766  43.1829109  50.6007042  24.7920094
  52.1163597  69.1270447  87.9368591  52.2295609  70.0391006  88.2043915
  51.7081337  68.7046661  88.6926270  79.8901596  19.6361790  32.4871292
  80.6864243  19.7778625  31.9751492  79.6342468  20.5111256  32.7790298
   2.6268473  25.2103596  34.8831749   2.6233916  25.4554234  33.9578857
   2.2797401  24.3184052  34.8960114  64.9776688  40.1571007   7.5709605
  65.9338379  40.1223869   7.5987239  64.7626877  40.0956306   6.6402416
  84.2684402  35.0930634  69.9067230  83.8270950  35.8249702  69.4757233
  85.1640320  35.4013100  70.0450134  48.9731560  64.4672623  65.6287537
  48.9285698  65.2127151  66.2275391  48.2225533  63.9232521  65.8672485
  11.0426493  38.1647224  62.1069756  11.0163660  38.4108887  61.1823425
  10.6500664  38.9084663  62.5640907  50.8043327  29.3519440  55.6946678
  51.7124176  29.6133633  55.8472214  50.2984962  30.1532784  55.8296814
  19.4036064  43.7559013  17.6724777  19.0087357  44.1700554  16.9051514
  20.3466301  43.8347168  17.5285091  15.3700361  69.5608749  75.2767334
  14.9034939  70.2716217  75.7165070  16.0460014  69.2960281  75.9005585
  14.1433678  27.0794029  80.9368057  15.0448580  27.3991737  80.9727707
  13.7923670  27.4433994  80.1240692  11.0852404  70.0882416  38.6848068
  11.9676828  70.0356522  39.0519066  10.9348516  71.0247269  38.5559502
  77.5243301  27.2658749   3.9895217  77.1039658  26.8382282   3.2434366
  77.0153122  28.0650196   4.1255417  81.4454880  14.9849529  27.2217884
  80.6809616  15.5433912  27.0807934  82.1854248  15.5919199  27.2396240
  85.0068283  38.9389038  83.2915649  85.2710419  39.8589096  83.2953720
  85.8115692  38.4594116  83.0948334  44.6720238  11.9487028  79.5447922
  43.7382965  11.8773069  79.7429962  44.7800941  11.4680786  78.7240906
  49.4338455  67.4366226  10.3594685  49.8974113  68.2695999  10.2729692
  50.0480461  66.7845459  10.0221386  22.5142117  50.0364304  69.7872696
  23.0779400  49.4208679  69.3187332  21.7686214  49.5085487  70.0730438
  55.7701340  47.2393608  59.6135864  54.9107018  47.0006371  59.2662926
  55.6999741  47.0824318  60.5552216  28.1177235  57.1645699  59.6834221
  28.3180599  57.7257614  60.4325294  28.2929611  57.7136269  58.9191856
  26.2920609  67.2263718  77.9904404  25.9118404  67.5661392  77.1803665
  25.9485531  66.3357315  78.0611191   5.2683477   6.3017817  64.5565262
   4.5136509   6.1267319  63.9943733   5.0915246   7.1637492  64.9333267
  51.4427681  66.7075272  20.3521519  52.2725906  67.1190186  20.1106949
  50.8114357  67.4269867  20.3580189  71.8002930  -0.0887822  26.1934509
  72.5989304   0.3995251  26.3933659  71.1143112   0.5778912  26.1586723
  27.6384182  71.7492752  40.4358788  27.0193043  71.0751343  40.1557770
  28.4050255  71.2607498  40.7356949  16.3983154  24.7110081   6.1994672
  16.2956104  23.8753014   5.7441912  15.6692142  24.7373791   6.8191028
  79.4641876  16.9864292   5.1803236  79.9309311  17.6431427   5.6971488
  80.1544037  16.5092010   4.7197919  50.6222343  61.7475052  13.3493938
  50.2371368  60.8751984  13.4331732  49.9029350  62.2981796  13.0402069
  77.8691711  46.9758492  53.9984474  77.5391617  46.1500969  53.6442451
  78.6205368  46.7230949  54.5349121  47.1855049  51.5392876  23.3061600
  46.5141373  50.8818741  23.4886532  46.6931648  52.3365097  23.1105423
  64.0257568  54.1927834  85.6614990  63.2292175  53.6836739  85.5112915
  63.7611160  55.1007347  85.5137711  40.4689064  35.2034225  13.5613842
  40.6140976  35.8798256  12.8998470  40.8387032  34.4087906  13.1766176
  56.7043228  20.1792870  14.1258612  56.7480125  20.8934669  14.7616835
  56.5143738  19.4020863  14.6513224  24.9840736  63.3908920  24.0935345
  25.4322166  63.7189331  23.3139248  25.4064693  63.8461075  24.8219528
   4.4080758  17.0789070  14.3370867   4.9463639  16.5122776  13.7844496
   4.0205889  16.4867649  14.9816437  85.7812653  65.0516663   8.2663507
  85.9532776  65.9404144   7.9552870  86.6408844  64.7165527   8.5212822
  71.6523743  34.4621010  57.4548378  71.1205673  33.6673279  57.4966393
  71.6856308  34.6793098  56.5232010  13.3337154   2.1041183   4.0409298
  13.7245903   2.3194752   4.8877292  13.8453531   1.3601228   3.7232361
  77.4160614  19.1027012  86.4577179  78.1622162  19.3932648  86.9821777
  77.0535812  19.9085999  86.0897980  18.7144146  13.0144491  83.0206909
  18.8689022  13.5070925  82.2146683  19.5019665  12.4815674  83.1303711
  42.6674538  48.2051125  78.2267838  42.4560051  47.4330444  78.7516022
  42.7688866  48.9094505  78.8669815  60.4614716   2.1623998  72.4090424
  60.5936546   1.6154602  73.1833878  59.9427872   1.6178427  71.8168793
  68.7849426  60.6862907  54.9323349  68.9955826  60.1411247  55.6903915
  67.8295822  60.7453575  54.9378471  42.9154892   4.6762681  68.6600800
  43.1696434   5.0787296  67.8296204  42.9792824   5.3857198  69.2994919
  65.3220520  51.7739143  60.9297714  66.1842117  52.1342812  61.1372566
  65.4781723  50.8383446  60.8010368  65.5097046   5.7204709  24.2553082
  65.3200684   6.2538972  23.4834766  66.1064987   5.0429416  23.9374580
  10.5845528   3.4996626  31.6577358  11.2601976   4.1776142  31.6468830
  11.0548258   2.6896634  31.4603100  60.3472137   5.3926997   0.3785901
  59.5971184   5.7671885   0.8404824  60.7254257   4.7710385   1.0004634
  25.9368401   7.0060759  51.1064835  26.5552063   7.0282135  51.8367996
  25.0783825   7.1129632  51.5161858  45.4848557  52.4404449   3.8530848
  44.7231598  52.1861153   4.3740158  45.2203598  52.2789955   2.9474301
  13.8942680  63.9100342  70.7305908  14.0977011  64.4844818  69.9924469
  14.1758375  64.4021759  71.5017853  42.5345192   1.2885113  27.7970486
  42.8178825   1.6373159  26.9519024  43.1635895   0.5940642  27.9926224
  23.3241348  67.5754395  47.7725906  23.4995937  68.2645569  47.1318398
  22.3841209  67.4115677  47.6967430  65.1713333  14.1349630  24.8432961
  65.7145920  14.5168524  25.5326920  65.5190582  13.2508411  24.7264843
  28.6558762  49.0796661  54.0750046  28.4037094  48.6040154  54.8664589
  28.9825401  48.4025764  53.4824944   5.3670845  64.0521011  65.3822937
   4.9857745  63.4095917  64.7839508   5.0105491  64.8914337  65.0913696
  58.8788719   1.3847233  22.3393173  59.0016174   2.0471644  23.0192719
  58.3579903   1.8247169  21.6675148  36.3897896  20.3188629  12.4790182
  37.1166687  19.9719429  11.9617901  35.6690178  20.4006443  11.8544903
  75.2619705  47.5101814  32.0958557  75.8104630  47.6554298  32.8667603
  74.6535492  48.2491264  32.0921173  82.5760040   6.3288436  47.2634392
  82.4720078   6.0744176  48.1803284  81.6885605   6.3032484  46.9056358
  33.5283318  46.9028969  32.3123093  32.9114571  46.7843132  33.0345535
  33.6606712  46.0215111  31.9631977  77.1922455  18.0383205  11.8605261
  76.2656555  18.0850925  12.0960674  77.5927505  17.5276604  12.5641260
  10.0145607  49.0104256  51.2685699   9.1414318  49.4011955  51.2342834
  10.5816450  49.6534691  50.8429680  84.2220993   3.9044888   9.2884264
  84.2490234   3.5834346  10.1897764  84.2298660   4.8578753   9.3734312
  41.3152771  43.1080322   2.5328450  41.3325043  42.4116898   1.8763071
  40.5073471  43.5882416   2.3515148  52.8588333  47.1763992  77.3140717
  53.3228149  47.2349052  76.4788895  53.4986115  47.4663963  77.9643173
  79.4785690  24.2942181  56.5641823  79.9380417  25.0728512  56.2497940
  79.8991699  23.5665951  56.1060448  64.6714478  59.8238220  24.6921959
  64.3381042  60.1191826  25.5394707  65.6178970  59.9554863  24.7480755
  67.0157776   7.1323485  36.7296600  67.5003281   7.0098886  35.9132996
  67.2655182   8.0070772  37.0275078  85.0243301  68.5006943  27.7910519
  85.1665878  69.3428726  28.2231750  84.8028336  68.7290955  26.8882790
  36.8384590  61.5391388  44.5168724  36.1850815  62.2203636  44.3579178
  37.6568642  61.9107399  44.1877060  21.2424698  47.4846611  34.9450150
  21.3112717  47.5952148  33.9967117  22.1355476  47.6093483  35.2661057
  49.6102295  30.6861153  12.6298685  48.8589172  31.1884899  12.3146200
  50.2094803  31.3454723  12.9796906  67.1200180  60.9563980  78.0515366
  66.2939377  61.4347382  78.1223145  67.5461044  61.0876122  78.8985672
  53.9662209  24.4741344   9.7289257  53.6182556  23.9241524  10.4308319
  53.1971626  24.7236576   9.2165604  59.7279510  42.0632210  48.3983955
  59.5040436  42.9383621  48.0818100  60.6797256  42.0810127  48.4985924
  46.0798950  49.9542580  81.3598175  45.8529434  50.5710945  82.0556870
  45.3874245  50.0631409  80.7080002  50.3021011  33.4312057  76.0067444
  49.3655472  33.3150177  76.1667175  50.4784660  32.9070663  75.2254562
  39.2509537  22.5038929  11.0605745  39.5062637  22.8512306  10.2059364
  39.0698891  23.2803249  11.5902920   6.2657194  62.0235481  27.2857513
   6.5754132  62.5915489  26.5802765   6.0570984  62.6232834  28.0020103
  74.5415726  62.9340668  46.0919952  74.6717148  63.8573418  46.3084602
  73.7303238  62.6950073  46.5402794  10.4888134  55.5132141  65.9901428
  10.7724257  55.0077477  66.7519150  10.3749924  54.8610306  65.2988129
  37.8518486  69.3104553  73.0096436  38.6624413  69.4486694  73.4996109
  37.1655426  69.3113632  73.6768875  21.6519718  26.8729649   8.7454500
  22.5863743  26.8424740   8.5400400  21.3194523  26.0167656   8.4760332
  56.5616837  18.5198021  41.1270638  56.7933578  18.0514870  41.9290848
  57.2746353  19.1459045  41.0008583  65.3985291  27.8797035  16.9547310
  65.2968216  28.3113022  17.8030300  65.8340607  28.5312748  16.4051838
  52.3357086  22.1222610  26.9395790  51.6518669  22.7678318  27.1179924
  52.7722626  21.9967155  27.7821293  51.2385368  45.5204277  20.7717190
  51.5786438  44.6584320  21.0115623  52.0011292  46.0977287  20.8092823
  68.9165573  10.6532497  16.4730797  68.8218460  11.4747114  16.9552231
  69.2424469  10.9168234  15.6125240  19.3499794  46.8080521  36.8174210
  19.6391640  46.4039230  37.6355171  20.1529503  46.9196777  36.3084908
  69.0923233   0.3818941  49.4942131  68.1390686   0.3742176  49.4077263
  69.4094620  -0.0194455  48.6851501  22.8367233  69.3891068  50.0419235
  22.8581047  68.4321899  50.0508499  21.9136162  69.6068573  49.9127350
  18.8659668  50.7365646  58.3815498  18.1360397  50.1423645  58.5558014
  19.1813850  50.4807434  57.5147781   9.2842512  22.5446625  88.1540833
   8.8040552  23.3182449  87.8587646  10.1638660  22.6566925  87.7935791
  85.2585220  51.6976967  32.7044601  85.8884506  51.3881340  33.3553047
  85.4966888  51.2344856  31.9013767  86.3977051  23.0577927   8.8077469
  86.2126236  23.4674721   7.9626784  85.7250366  23.4039745   9.3941870
  75.1645355  61.7966652  80.0066147  74.6944962  61.3643036  79.2936249
  74.4749451  62.1538467  80.5661850  23.8206959  47.1371613  27.4069691
  24.3579254  47.0984688  28.1982479  24.4532490  47.1624832  26.6890087
  24.7548409  43.3528252  67.0967255  24.6794682  43.1642189  66.1613159
  25.5039768  43.9450760  67.1620331  26.0654907  50.9248123  12.0553274
  25.5116558  50.9800301  11.2765789  26.8858013  50.5459328  11.7394648
  35.8719063  62.2258873  29.8797588  35.1808090  62.2814255  30.5397091
  36.3098717  61.3942757  30.0609875  37.1086426   3.2075243  26.3071747
  36.5064735   2.9598789  27.0088100  37.9782829   3.1307797  26.6996956
   5.7515883  64.4066010  86.2344284   5.4651814  63.6511650  86.7477646
   5.0654325  64.5237503  85.5773849   9.7923069  62.7303276  28.6042328
   9.7749233  61.8720169  28.1808739   9.2711325  62.6160088  29.3989277
  12.7505789  27.7052078  17.7470284  12.7874022  28.6326828  17.9808350
  11.8494787  27.5674038  17.4550362  11.6703730  63.5832329  16.4371433
  12.1765156  64.2344513  16.9229088  12.3300123  63.0430603  16.0020313
  56.0430374  70.8422165  87.9779587  56.8769417  70.3725510  87.9939270
  55.7440376  70.7686539  87.0716400  32.1705132  69.8801193  72.5445175
  31.7767105  69.1844940  73.0710678  31.6396198  70.6537170  72.7340698
  28.3095112  11.7194633  14.2012835  27.5643425  12.2860422  14.0014229
  28.8101387  11.6857119  13.3861361  41.8893204  41.2082901  57.6495819
  41.3363686  41.4499550  56.9065666  42.7435570  41.0196953  57.2610741
   3.6754918   2.8295009  20.7816925   3.9694366   3.7288635  20.6368618
   4.3939767   2.4169583  21.2610874   5.9053369  19.0535183  88.1246338
   6.7744040  19.3490810  87.8533401   5.4213619  19.8607788  88.2987976
  50.5281677  17.2679901  11.6579561  50.6154289  16.6817474  12.4095793
  49.5840111  17.3370533  11.5164156   2.7416618  37.5420532  46.6737213
   3.1235948  37.4452896  47.5460739   2.5826604  36.6446915  46.3809891
  41.6099510  34.1795540  31.4345779  41.4648170  35.0103683  31.8872547
  42.0347176  34.4255524  30.6128178  16.0159111   2.7651515  63.5633316
  16.0995331   2.4310222  64.4564133  15.0793610   2.9316351  63.4566040
   3.5948312   4.9998665   7.5559187   2.7188931   4.9073787   7.9306321
   3.7284496   5.9453864   7.4898138  66.7444000  61.7094498  84.4935608
  67.5711517  61.6567650  84.9730759  66.3021088  62.4741898  84.8620453
  60.1481857  28.7124882  38.1429596  59.3987007  28.7454319  37.5484695
  59.8044891  29.0265274  38.9793129  74.6215286  47.1672440  77.5282898
  75.0464478  48.0047607  77.7133331  74.1879120  47.2997627  76.6852875
  26.2985249   5.6684399  71.8130417  25.3438683   5.7179422  71.8621521
  26.5188065   4.8478770  72.2539291  31.1231174  68.8466644  75.7761230
  31.5629005  68.2397385  75.1807556  30.3657093  68.3586349  76.0992203
  56.3818893  67.0409470  62.2690353  56.4732971  67.4122314  63.1465416
  56.9805031  67.5555496  61.7276764  55.1434174  17.6516247  66.5204468
  54.2734566  17.4678688  66.8748932  55.0935020  18.5597057  66.2219009
  71.9030304  71.1040115  83.8194427  71.8306351  70.8175659  82.9089737
  71.9166489  70.2917633  84.3257065   3.2380681   4.0155473  11.6925755
   3.8959861   3.4590955  12.1093931   2.6334057   3.4010570  11.2766228
  10.3724194  59.3222923  77.5103455   9.5724258  59.0345535  77.0705185
  10.5898466  58.6048317  78.1054993  62.6621704   2.2872460  15.8648148
  62.1820183   1.9793655  16.6335125  63.4929848   2.6092660  16.2144985
  11.2479944  53.2679825  71.8947830  11.3223543  52.4929810  71.3379440
  10.5086823  53.7546806  71.5304031  15.3708811  46.7484741   5.0015278
  14.8116150  46.5725594   5.7581701  14.7894516  47.1655273   4.3657317
  70.9531555  27.7036285  82.2999573  71.3737869  27.5521126  83.1463242
  71.2462845  26.9748764  81.7529373  26.0161457  18.9727249  12.2412376
  25.8228321  19.3233929  13.1106596  25.1646862  18.9281864  11.8061886
  59.9916267  16.3806305   7.9011531  59.3390808  16.6427746   8.5505352
  60.8212395  16.3885822   8.3785524  38.4844437  63.6226349  54.5882874
  38.5280266  64.2212524  53.8426399  38.7163887  62.7685509  54.2236328
  34.2608147  10.2993708  85.1767197  33.9596901   9.5607443  84.6475754
  34.5294685  10.9586277  84.5368423  35.5955925  70.6463852   7.0798411
  35.3607330  70.7176819   8.0050383  34.7906380  70.3574371   6.6499753
  46.8486481  26.2627163  62.4063301  46.8927383  27.2188015  62.4201965
  47.2743568  26.0151997  61.5855141  40.3530350  16.9393101  11.9853745
  40.5092697  17.6420269  12.6162567  40.7766762  17.2404842  11.1815996
  47.7486458  37.2688484  42.0622025  47.9579926  37.8758507  42.7720985
  46.8786736  36.9350586  42.2812119  35.1119232   7.1873102  54.2651825
  35.0140114   7.2431045  55.2157249  35.6582413   7.9391785  54.0361366
  75.8531647  53.4660454  16.0105572  75.5513916  54.3179092  15.6951303
  76.6498260  53.2933502  15.5088234  85.8385544  37.6712379  48.2888603
  85.8501587  37.8576469  47.3500557  85.8668060  36.7160339  48.3437500
  54.8443375  12.3253527  81.0580750  54.1987228  11.8139601  81.5458145
  55.6678276  11.8538504  81.1837082  67.7023468  36.9595451  49.8920784
  68.6407089  36.8271637  50.0269127  67.6280289  37.8684921  49.6013489
  72.5354462  60.3120880  48.3546371  71.7583542  60.7903824  48.0655174
  72.8859177  59.9190102  47.5553284  58.7568359  66.5953293   9.8341160
  57.9515266  66.7264938   9.3336105  58.4577179  66.3326950  10.7046242
  39.3379478  64.4348831  66.6596451  38.4000511  64.4905853  66.4766693
  39.7486954  64.3975525  65.7958603  56.9949722  18.7222595  22.0217056
  56.6145477  17.9571991  21.5902081  57.8017502  18.8945465  21.5362606
  40.1857300  69.2255478  74.3257599  40.8479042  68.9986572  74.9786530
  40.6692734  69.6987915  73.6486588  76.6987305  34.5372696  34.2039375
  77.4613571  34.7234879  33.6562500  76.4473724  33.6440849  33.9688416
  13.8690796  21.6031227  19.1589088  14.6785975  21.9042664  18.7463245
  13.7078571  22.2350903  19.8595200  59.2229958  50.2890091  23.3359413
  59.8479576  50.3939705  24.0533237  58.7957535  51.1425133  23.2636814
  40.6272087  24.2101078  85.7357559  40.8052444  25.0692482  85.3531189
  41.4707375  23.9248657  86.0869370  77.9539719  11.7324524  53.3139801
  78.6827240  11.1890678  53.6137886  77.1791229  11.3336945  53.7100067
  28.4921913  54.4697952  59.3534203  28.6597958  54.3528175  58.4182968
  28.1211395  55.3494759  59.4220428  60.8712769  16.5631199  72.0075989
  60.0176544  16.3123150  71.6545334  61.5022507  16.0771217  71.4766541
   4.3367844  13.4313641  87.6433640   4.2759180  12.8749180  86.8669052
   3.7857983  12.9959927  88.2938232  12.4648075  19.0800495  84.4277115
  12.2053089  18.4566898  83.7492447  13.0695295  19.6764832  83.9863358
  82.1655045  38.1250496   9.4911394  81.5287399  37.4371796   9.6850691
  81.6976776  38.9412270   9.6678476  71.2566376  50.6843948  65.9583359
  70.9417725  50.1351204  65.2404327  71.7647324  50.0895805  66.5099411
  40.3719482  21.0172691  26.9899788  40.1569633  21.3963146  26.1377239
  40.6344299  21.7658272  27.5256977  57.8937378  70.2128296  64.1897049
  58.8505859  70.1879349  64.1822128  57.6728096  70.6895523  64.9898071
  58.1218987  14.5529957   2.1037815  58.5054054  13.9036255   2.6932485
  57.9723511  15.3197880   2.6568623  50.7221336  37.6270943  67.5068207
  50.4639168  38.5350304  67.6655960  51.2652893  37.3972244  68.2607269
   0.7594627  34.0508194  26.1445332   1.2012697  34.8298569  26.4823723
   1.1572235  33.9030418  25.2865238  53.4594688  39.8243256   2.5691848
  52.9877663  39.0843735   2.9515460  54.1107864  39.4220352   1.9945731
  39.7544975  47.9549217  27.3293896  39.7763367  46.9980240  27.3397198
  39.0259590  48.1716042  26.7475719  14.7450266   8.6009684  71.4180069
  13.9170542   8.4163427  71.8614120  14.5459747   9.3327551  70.8339767
  23.9143353   2.2797818  39.8805847  24.1772041   3.1903920  39.7467194
  22.9652710   2.3193448  39.9986649  77.6908875  20.1543789  21.9667130
  78.4800644  20.6826191  22.0866852  77.7739182  19.7971287  21.0825691
  52.7044868  23.8874245  21.8636265  53.0656509  23.4551735  22.6375446
  52.1734543  24.6023483  22.2145119  16.8356895   5.6629639  21.3618469
  15.9199715   5.9401531  21.3911552  17.2326679   6.2182784  20.6908283
  48.6325226  55.7296181   4.7682085  48.2697029  54.9976196   5.2669816
  48.0072021  56.4423103   4.8996320  23.5555611  59.5590706  76.2364044
  24.4150333  59.6477966  76.6483078  23.6325417  58.7788544  75.6872482
  27.9057617   4.8620801  30.2527370  27.8324509   5.7991824  30.0719128
  28.8123932   4.6462326  30.0344276  26.0868874  29.6128025  21.8613205
  26.0111542  28.6586418  21.8527164  25.2021656  29.9250088  21.6715145
  51.0891342  19.9842415  36.1143417  50.3702202  19.3585396  36.2031822
  50.9124031  20.4365902  35.2894936  74.6565781  54.0172234   3.7487376
  74.4122009  54.8539963   4.1441135  74.2816315  54.0495911   2.8686247
  52.9653778  30.8410759  15.8957806  53.0110931  31.6504574  16.4047451
  52.6592827  30.1828022  16.5196495  51.8771210  33.5499420  46.1400375
  51.5530586  32.9388084  46.8016510  51.0866051  33.8945465  45.7246284
  60.8861389   0.2698237  62.0306854  60.5459099   1.0867631  61.6658783
  61.5917625   0.5445380  62.6162262   5.0360608  41.2142372   7.8314290
   5.2092042  40.3829155   8.2732000   4.1426463  41.1273041   7.4990363
  34.7803078  52.0705528  85.3521042  34.0442047  52.6556664  85.5310593
  35.5458298  52.5407715  85.6824036  84.5845718  62.4659538   2.6622920
  84.9770432  61.6029549   2.7942829  84.1379471  62.3994102   1.8182952
  38.5532150  59.7371597  57.6907272  38.3300819  58.8666954  57.3609772
  39.2996979  59.5892334  58.2713394  23.8760262   3.3451066  54.3883247
  24.4315834   4.1016307  54.2005463  23.5240784   3.5172889  55.2616615
  51.9442406  55.0982056  14.3438816  51.5836296  54.2163582  14.4362774
  52.3342781  55.1071014  13.4697971  19.7416821  12.7007866  21.7064991
  20.2855339  13.4794798  21.5877800  19.5154381  12.4287806  20.8170853
  75.8386917  25.1636162  28.2164497  76.5970230  25.4617157  27.7141628
  75.3264999  25.9574070  28.3707047  23.1730175  23.7276020  85.5597610
  22.3815670  24.2444286  85.7105179  23.4961319  23.5228691  86.4372101
  45.6180573  35.8142815  60.8684082  45.6002083  34.8572578  60.8636818
  45.0047150  36.0686836  60.1789742  19.7108402  28.5332584  30.4613838
  19.0478134  28.2581387  29.8281879  20.0870972  29.3283901  30.0839901
  41.5933037  52.4681358  16.0182247  41.0669708  52.7434082  16.7688465
  42.3050308  53.1069069  15.9776058  84.8401642   1.0339917  74.5149078
  85.3865585   0.6805601  75.2168884  85.2065506   0.6587050  73.7141876
  59.6455116  29.9140835   7.8257565  58.8686104  29.4391994   8.1209526
  60.1042213  30.1480045   8.6326647  79.5420227  62.8252754  57.8139153
  78.7407990  62.4310951  58.1587372  79.3577347  63.7643661  57.7943649
  17.1899166   3.8270462  48.1033974  17.1998367   3.5527818  47.1863861
  17.8102837   3.2400885  48.5356674  54.9936409  51.1744728  24.3501453
  55.3358612  50.6348343  25.0628223  54.4391823  51.8222122  24.7851677
   6.4708905  21.6292534  51.9358025   6.5527902  21.8168259  51.0007439
   5.5367155  21.4665909  52.0665359  31.6037922  18.6194191  81.7934113
  30.9341545  18.0162945  81.4708328  31.1870594  19.0690594  82.5285187
  46.0420303  39.0391731  60.8153381  45.8894806  38.1316299  60.5520363
  46.0288811  39.5320358  59.9948845  19.0407619  63.1634750  73.0139618
  19.8194218  63.6153984  73.3390503  18.4274254  63.1845245  73.7485428
  59.8884544  34.5469856   7.1507139  59.5293388  33.9185905   6.5243063
  59.7118492  35.4026070   6.7596178  71.9308548  23.4780064  77.7648239
  72.1706848  23.0340252  78.5782089  72.4809036  24.2612095  77.7482834
  15.5451956  66.4587631  56.0740776  14.8427401  65.9984055  56.5332718
  15.1081972  66.8925934  55.3412361  32.9229317  36.1988792   6.9368825
  32.8472061  36.5916061   7.8065147  33.8407936  35.9350624   6.8723183
  57.6762962  15.2055130  60.2204285  57.9161110  16.1315613  60.2544022
  58.4692993  14.7426586  60.4908676   6.8735933  28.9224873  18.5345078
   6.9761262  29.2491684  17.6406403   6.1048121  28.3535957  18.4948921
  73.9565430  15.8043270  23.1342106  74.3962173  16.5798626  22.7856922
  73.0850906  16.1137867  23.3812695  73.0091629  16.8335648  32.9826279
  72.1968307  16.8657246  32.4773445  73.1069794  17.7179966  33.3353920
  13.8613539  56.8484726  82.3683853  14.3522100  56.1637268  82.8227158
  13.2729511  57.2035637  83.0346603  22.9543819  63.0064011  20.7804241
  23.8084221  63.3946648  20.9704132  23.1578999  62.1368713  20.4358482
   4.3396420  33.7803230  27.1120987   4.8028831  33.5787773  27.9251289
   3.4847059  33.3619576  27.2135220  73.7907410  50.2515564  76.4802246
  73.3790512  50.8342018  75.8420486  74.2714081  49.6163597  75.9494553
  20.4177971  55.9182014  28.3885632  20.4706230  56.2447624  27.4903431
  19.8589878  56.5502625  28.8407345  59.6181679  15.0187607  78.7440567
  59.7391357  14.7907820  77.8223114  59.8427963  15.9479723  78.7924347
   7.6649508  31.9300385  63.9028244   7.0567279  32.6195259  64.1690979
   8.5306206  32.2794914  64.1143188  63.5122795  28.8281250  40.9213142
  64.4376755  29.0686646  40.8764076  63.0774574  29.4362297  40.3235092
  49.0960312  67.6243362  69.7566833  49.3602257  66.9764481  70.4098816
  49.8508377  68.2078552  69.6791840  11.9844627  42.2166367  35.3461304
  11.1700935  42.7132301  35.4262962  11.7018661  41.3226852  35.1531944
  86.4634552   9.0538960  64.7157440  87.1114273   9.7532263  64.8011780
  85.7750320   9.2878819  65.3382874  43.9338417  41.0353394  11.4520493
  43.9631500  41.7569885  10.8238802  44.5029793  41.3177338  12.1679888
  11.3040133  19.5645618   9.4418430  11.6436033  19.2715797   8.5962229
  11.9428930  19.2464905  10.0797262  39.4741287  13.7986479  79.5421295
  40.2314301  13.5767708  79.0003738  38.8530159  14.1984310  78.9333344
  85.7036133  37.3593826  33.7394333  85.6413574  37.6405525  34.6522827
  86.1346436  38.0882797  33.2931671  64.7320175  23.1169281  13.8114452
  65.5528946  23.6045513  13.7435150  64.5331879  23.1119137  14.7477541
  61.7119255  62.7890625  50.6480331  61.7406921  63.7087402  50.3842201
  61.4157448  62.3245049  49.8652840  31.6995430  59.6115417  68.4979324
  32.2025299  58.9113846  68.0819778  31.3370667  60.1126213  67.7673416
  51.5061951  17.1591778  42.5042763  51.7982941  17.0780144  41.5963554
  52.3047943  17.3486996  42.9967728  64.0973206  13.4291821  72.0569077
  63.8605194  13.4644690  72.9836884  64.8280106  12.8119764  72.0197372
  85.0971985  33.1719170  10.2310839  84.2864075  32.7087326  10.0205917
  85.6002579  33.1563110   9.4168825  75.0188675  66.4878769  42.9749527
  74.1358948  66.1498718  42.8254585  75.1875153  66.3158722  43.9013443
  53.9798126  56.5871162  60.6192017  53.7111282  55.9166527  59.9910927
  54.3791733  57.2717705  60.0825500  60.2729454  53.8486099  84.2209473
  60.5582733  53.9067802  85.1327820  59.8408394  54.6857147  84.0513306
  50.6830711  34.1144371  20.8038845  51.1662560  34.8883629  21.0933800
  51.1244011  33.8438416  19.9987526  53.7616158   2.8692379  64.0930557
  53.4170074   3.2824209  64.8847351  54.6042900   2.5030124  64.3614120
  79.6722107  20.9260578  44.9754906  80.2906342  20.6301517  45.6434937
  80.1725006  21.5445194  44.4430923  27.7180367  27.4453545  51.0415955
  27.0593948  26.7530575  50.9854813  28.0670853  27.5164490  50.1531487
  43.5774345   2.1891816  54.2171402  43.7262115   1.4003347  53.6957779
  44.1898918   2.1118338  54.9486771  10.1839304  39.6306992  30.1255722
  10.1998034  39.2176247  30.9889069  11.0976038  39.6245384  29.8402729
  65.0486679  38.6138611  85.5638809  64.4263382  38.8919830  86.2358780
  64.9474182  37.6629295  85.5225143   2.4948034  56.3582115  70.3664398
   2.9336929  57.1817131  70.5796432   2.5368619  55.8479996  71.1752319
  11.1766653  68.7844009  69.1615448  11.6202230  67.9439697  69.0468140
  10.9136543  69.0391235  68.2771378  43.0186501  70.5239258  23.6619606
  43.6170845  69.8475342  23.9791412  42.3161964  70.5461044  24.3118038
  67.5522003  40.2685165  82.8091049  67.4283295  39.3500900  83.0486374
  66.6644821  40.6196861  82.7393646   6.9614353  23.4618950  83.4263992
   7.9058237  23.6128540  83.3867416   6.8760633  22.5292358  83.6241150
  50.4769440   6.6087732  20.7970943  50.8395424   7.4219508  21.1485138
  51.1361847   5.9451408  21.0001240   1.2601410  43.2714958  88.8416748
   1.8009531  43.2155533  88.0538788   0.3603748  43.2702599  88.5151062
  77.5599060  71.5819168  84.5280304  77.3934250  72.1157455  83.7511520
  76.9924545  70.8186264  84.4202499  28.2600727  70.7789688  75.9388275
  28.8992767  71.4808197  76.0615387  28.7841454  70.0195465  75.6841507
  22.8003254  31.9156609   0.1172712  22.3768787  32.3978004   0.8275298
  23.7362938  31.9851551   0.3053248   0.3955911  23.6217613  61.9678001
   0.7869307  22.7493362  61.9235077   1.0197121  24.1875801  61.5133209
  52.6831856  42.0772820   9.3145018  52.8696327  42.8977966   9.7708139
  51.7345505  41.9726448   9.3878345  30.1112423  37.6282158  72.2901077
  30.9549255  37.6734276  71.8402328  29.6289806  38.3914070  71.9720001
  10.3285465  47.5484505  36.9098625   9.6684074  48.2272911  37.0499535
  10.8357038  47.8587265  36.1596909   1.9907863  45.1193542  21.8024273
   1.8183477  45.7068367  21.0666542   1.1240246  44.8244438  22.0816841
  73.6776505  49.6117973  72.8055420  74.2928696  49.0824471  73.3130112
  73.7356644  49.2605247  71.9170227  21.0836124  33.2855988   8.2819653
  20.8469353  33.1122780   7.3708253  21.5033188  34.1456184   8.2609663
  25.7291203  53.2497368  13.9371119  26.3843880  53.9427261  13.8557196
  25.5259647  53.0049706  13.0343113  55.2246056  37.8399239   1.5883298
  55.7065735  37.0587769   1.8598949  55.8411179  38.3222923   1.0374551
   6.3450017  65.9265213  41.2291718   5.7401204  65.2538834  40.9162712
   6.4864821  66.4929810  40.4706612   4.9234419  10.0163450  28.4270020
   4.9846644  10.7135487  29.0799866   4.0274982   9.6895189  28.5088654
  44.3370209   6.6859331  63.1458092  45.0712509   7.2806005  63.2991333
  43.6055069   7.0813603  63.6198959  68.4949341  27.7955151  68.6685944
  69.3426208  28.2331295  68.5901566  67.9990845  28.0955696  67.9067993
  76.2226791  62.4259987   9.6591721  76.8722687  63.1290398   9.6596575
  75.6455383  62.6326485  10.3943167  57.3712387   1.9971344  50.0281639
  56.4999084   1.8968419  49.6448135  57.3431282   1.4714917  50.8276291
  74.8604355   7.8477960  45.3878250  75.7324600   7.7993383  45.7795601
  74.2601395   7.7390862  46.1254272  13.5081577  49.4745598  74.7356567
  14.2591429  49.8946075  74.3163605  12.9468155  50.2014961  75.0052719
  19.3239479   9.4293318  80.9820862  18.4647179   9.8082228  81.1675568
  19.3273487   8.5989218  81.4581528  77.1482239  35.8566322  31.0210648
  77.9693985  35.7695198  31.5051346  76.6253586  36.4645386  31.5438404
  75.6076584  30.0953999  52.1735725  74.7551117  30.2689400  52.5726738
  75.5386353  29.2005730  51.8407822  29.7404995  44.6765556  16.4264793
  29.7455273  43.7200813  16.4634171  30.3013592  44.8904037  15.6808662
   7.4703870  21.5574512  13.1967468   6.6372914  21.2912827  13.5857687
   7.3616462  21.3907223  12.2604733  30.9641151  60.5702248  20.6173706
  30.5288010  59.8091469  20.2333221  30.5212479  60.7017326  21.4557056
  12.9493103   5.0690103  31.2173958  13.7771540   4.7200241  31.5477219
  13.0171738   4.9865632  30.2661705  73.8332520  66.0468063  38.8281784
  73.4597549  65.4475632  39.4744225  73.1926804  66.0617676  38.1170692
  64.8674469   6.3816166  72.6484833  65.4601059   6.8520203  72.0622101
  64.1232224   6.1430831  72.0958023   8.9077053  70.6062317  80.1080170
   9.7542439  70.5773544  80.5538559   8.6046619  71.5062943  80.2274857
   1.4408230  34.9143143   6.7375250   0.6658071  34.5490150   7.1643028
   2.0498929  34.1784172   6.6765018  76.8711014  65.1030121  71.1407394
  76.4655685  65.9152298  70.8373108  77.7385635  65.1026840  70.7360916
  39.5644913   4.8303189  63.0502281  40.3038216   5.4195352  62.9004021
  39.1455269   5.1682005  63.8417702  37.8578606   0.3873273  88.3248215
  36.9009743   0.3688415  88.3409348  38.0748100   1.2487954  87.9683990
   9.9677258  64.5562820  81.6282578  10.2065935  64.9109726  80.7718887
   9.8333960  65.3281403  82.1781921  37.3390083  56.0830612  88.0955505
  37.3838387  56.6647339  87.3366852  38.2519875  55.9535561  88.3523254
  41.2514648  25.1240730  20.7476978  40.9022713  24.7664108  21.5640144
  41.7588921  24.4060364  20.3693104  57.9973564  29.5872593  22.4434223
  58.6541138  29.2754459  21.8207855  58.4107971  29.4822445  23.3003178
  61.0045547  29.1638870  13.0784988  61.7748260  29.3553829  12.5434818
  61.0294380  28.2151794  13.2032690  45.3733406  10.3938141  63.8677254
  44.4359093  10.4731531  64.0442505  45.7950897  10.7074327  64.6677246
  66.6084824  44.5332565  55.5915604  66.5778275  44.6987038  54.6492653
  66.3566055  45.3666420  55.9893799  17.4281044   1.6047883  12.9506302
  17.6477051   0.6925398  12.7613945  16.7503910   1.8254977  12.3117065
  85.3951263  57.0875320  62.9739456  85.5631332  57.5233612  63.8094444
  85.3741608  56.1552811  63.1900597  37.3441658  53.6122475  21.8685627
  37.5576096  52.6860847  21.7549934  36.4747314  53.6103210  22.2689514
  17.9110508  64.6438904  50.6081581  18.6303272  65.1638489  50.9666519
  18.3102608  63.8020477  50.3886909  16.1034679  60.4897385  78.8033295
  16.5196342  61.1755295  79.3255615  15.6477718  59.9439545  79.4441757
   3.4852366  65.9536285  81.4900436   4.4207745  65.8035583  81.3541107
   3.2092731  66.4555817  80.7231522  73.3829803  63.0211563  73.7956543
  74.0931625  62.9724426  74.4355774  72.6005478  63.1948853  74.3189545
  31.1956654  58.3294106  52.1612015  30.3092899  58.4780960  51.8318672
  31.7381630  58.9534073  51.6789665  18.8365059  65.7844849  27.9779797
  18.4424801  64.9784927  27.6442814  19.3360271  65.5068207  28.7458420
  57.8171539   6.4971895   1.2256628  57.3495750   7.3323250   1.2133923
  57.1397781   5.8410125   1.0618780  61.3484612  50.2525902  31.9506836
  61.2974892  49.3084679  31.8014565  61.7272530  50.6024361  31.1442356
  55.7248764  60.6732712  14.3008347  56.4391441  60.2702713  13.8072300
  55.9142342  60.4589233  15.2143068  76.2150116  21.5445423  85.7613754
  75.3515625  21.9547005  85.7118454  76.7846832  22.1237087  85.2551422
  31.5059452  24.6987152  18.0843563  32.1823730  24.3962364  18.6903133
  31.7608566  25.5959396  17.8693256  58.3320847  17.8799210  29.0353909
  58.3810081  18.5755119  29.6911259  57.4093933  17.8540955  28.7820015
  68.4586487  10.6545858  45.2569923  69.3762665  10.5372705  45.0111504
  68.2925186   9.9642267  45.8988953  75.1986313   1.7922769  69.6216965
  75.9240341   2.1367214  70.1426315  74.6375427   2.5510056  69.4612503
  24.9201698   3.2601829  75.0398483  24.0783863   3.3147998  74.5874634
  25.4349174   3.9803905  74.6757507  83.6822052  42.5370102  24.6763229
  83.2455902  41.9721603  24.0387154  84.3247070  43.0262833  24.1624813
  48.2706375  11.4192247   3.6090944  48.2733650  10.8895512   4.4063840
  49.0274849  11.1082754   3.1123810  72.6999435  32.7687950  82.8872757
  71.7924042  32.5055313  82.7346573  73.1228027  31.9822025  83.2317886
  37.5320091  53.9891129  76.9563599  37.0611916  53.3170853  76.4634628
  38.4331818  53.6690140  76.9971161  57.2043533  29.1045856  80.9339523
  57.3078346  28.9041710  81.8641968  56.4609680  29.7066269  80.8999023
  78.9980240  68.3448944  43.4063339  78.2360153  67.9338760  43.8145409
  79.5937805  67.6179886  43.2248993  73.5625153  30.6450348  36.4454308
  73.3226471  29.7372036  36.2595901  74.3703918  30.5798702  36.9546547
  18.5352821   9.1022110  73.5286026  17.6345425   9.0062189  73.8379288
  19.0585575   9.1571083  74.3282242  54.7195206  25.4320164   1.0436809
  54.4010925  24.9779758   0.2634990  54.3304672  26.3048344   0.9883732
  78.0620575  28.2670135  40.1502037  78.9834595  28.0610771  40.3078156
  77.8703079  27.8715363  39.2998772  62.9991493  69.7413406  13.4636908
  62.4149551  69.0868149  13.8464975  63.8687515  69.3443832  13.5131512
  45.4929390  58.2799225  33.4990196  46.2518463  58.2159348  32.9191971
  45.7286682  57.7511635  34.2613068  86.6079330  65.1858978  61.9237595
  86.2321548  64.3846283  62.2884254  87.3147125  65.4151764  62.5271835
  78.7000046  50.2050743  89.0101089  77.8837357  50.4926529  89.4190521
  78.4637527  49.4052010  88.5404053  14.7165709  10.3849030  78.3254471
  14.8795099   9.4643831  78.5311813  13.9061584  10.5942898  78.7897949
  59.8453751  41.7322273  26.3919544  59.3502579  41.4783554  27.1708260
  59.2280693  41.6209412  25.6689186  55.0351753  49.4056244  26.8161182
  54.8444710  49.0065384  27.6649952  55.1949425  48.6635094  26.2330437
  58.3406601   7.1864305   8.5399408  58.3131409   7.6452546   7.7003255
  57.5303802   6.6772914   8.5613241  26.1465282  14.9082346  38.3611221
  26.5390625  14.9188709  39.2340698  26.6887188  14.2972755  37.8621330
  58.9990349   8.3525448  74.6835861  59.2075577   9.2825775  74.5953217
  58.1248894   8.2659378  74.3033218  14.6544266  62.9593544   7.9732227
  15.4859934  62.7256775   7.5607638  14.4090128  63.7892036   7.5641303
  28.2371807  43.0398216  86.5116425  29.0754395  42.9020309  86.0705490
  28.0908165  43.9842567  86.4582138  54.1581345  25.3709984  40.3409958
  53.6553001  24.6021881  40.6099205  53.7249489  26.1049538  40.7767563
  74.4071350  62.3326035  58.5853729  74.0592270  63.0692978  58.0829048
  74.4390640  61.6093674  57.9591560  36.9186440  14.7172899  72.6965332
  36.1319542  15.2017498  72.4462357  36.9847565  14.0163641  72.0480270
  62.3551292  32.7428131  52.0076752  61.6959686  33.3435860  52.3552513
  62.9006195  32.5228119  52.7628403  77.6522141  13.6419525  43.0042915
  77.1845551  13.5564232  42.1735039  77.3618088  14.4830217  43.3571320
  46.9732628  53.4348907  42.9976730  47.5752220  53.8813515  43.5931129
  46.1338463  53.4396820  43.4576607  11.7142229  66.0280762  69.1423187
  11.1004076  65.6957932  69.7973404  12.4020882  65.3637924  69.0999222
  72.5053864  70.0227127  76.8408051  72.4916229  70.9614563  77.0273590
  71.7336578  69.6779099  77.2900085   4.8896675  18.6301651  79.0652542
   4.9683876  19.5331287  79.3729782   5.7205229  18.2212620  79.3075562
  53.8704643  55.4755287  70.9095688  54.5815735  56.0150909  70.5639877
  54.1974373  55.1590652  71.7516861  55.2771530  18.5887280  16.0230331
  55.0708923  19.4003315  16.4867001  55.1642189  17.9020653  16.6802788
  31.0056381   9.8168259  44.2543793  31.0875912  10.1888399  43.3762436
  31.9081116   9.6687069  44.5369301   7.5028243   4.2611103   4.5549846
   7.1612849   4.8718324   5.2081318   6.7858410   3.6448710   4.4052668
  74.7407074  55.1366806  52.7198219  74.3155594  55.9705544  52.9201431
  74.9012070  55.1701241  51.7767677  21.8862915  64.7644043  63.4963188
  21.2048340  64.4903030  64.1100922  21.8714924  65.7207642  63.5334625
  68.3419266  12.0086432  88.9371719  67.7916183  11.6462364  89.6314774
  67.7214050  12.3356085  88.2858047  41.1643639  36.7790375  11.3736134
  41.6933937  37.5712433  11.2799854  41.5785408  36.1440010  10.7893047
   7.3331289  40.6864662  15.9355297   7.8357959  40.3654633  15.1868563
   6.9830513  41.5288315  15.6455288  58.0776749   6.2988849  17.8097477
  57.9785309   6.5141959  18.7371311  58.2324486   5.3543487  17.7983742
  47.2582245  44.1590004  55.3655853  47.3853149  43.7488480  56.2210693
  48.1448250  44.2998428  55.0334091   5.9464869  16.9924889  71.8052444
   6.1909518  16.6657372  72.6710968   5.5330954  16.2441368  71.3747711
  60.2153358  65.6445236  78.0751495  60.2836723  65.6658554  79.0296707
  59.7075920  66.4252014  77.8538666  39.5187073  68.0676117  39.9421692
  38.6620712  68.3645172  39.6351509  39.7119331  68.6292038  40.6928482
  80.4367371  23.6266327  10.2037449  79.7439041  23.8882847  10.8101759
  80.1574020  23.9740334   9.3566799   8.3011484  57.2396965  20.6138649
   8.3218822  56.4983902  21.2190666   8.5906382  56.8744774  19.7777767
  23.6657658  35.9821739  56.4754639  23.9816456  35.2296600  55.9752884
  22.7121162  35.9274521  56.4138908   6.3793755   8.2099848  79.4775162
   6.1629748   8.1998463  78.5451508   5.8959408   8.9583511  79.8274765
  75.1462784  23.7944717  87.9835129  75.6096420  24.5568371  87.6366272
  75.8103027  23.3160191  88.4798889  11.9803419  13.4667931  27.6789265
  12.6290712  12.8119078  27.4210396  11.1437988  13.1017666  27.3905106
  84.0731430  51.4801483  18.8585033  83.2000427  51.8648148  18.7813416
  83.9651337  50.7647018  19.4851627  58.1500969  11.5723009   3.6620963
  57.3083916  11.6625948   4.1088781  58.3749390  10.6470013   3.7595508
  79.1542435  34.6695518  32.5874138  79.4072952  34.2388420  31.7709064
  79.9365005  35.1510124  32.8566628   9.3873911   3.6223657  41.5195541
   9.5521698   4.2478099  42.2251740   8.4426651   3.4712234  41.5492325
  71.7198105  19.3360519  61.6049957  71.5376358  20.2598476  61.7771835
  71.8888855  18.9601936  62.4689255  55.3025551  60.5768127  38.9073982
  54.7008476  61.3151054  39.0028152  54.7428627  59.8429413  38.6535988
  57.8786469  35.6642342  19.3006153  57.6484642  35.9672432  18.4223022
  58.8037376  35.4266930  19.2372494  75.7381134  47.7624512  29.2865562
  75.5391617  47.5418701  30.1964970  76.5756760  47.3325920  29.1135273
  84.6741180  14.9765205  23.0729923  85.5711136  14.9435701  22.7405014
  84.4560165  14.0643883  23.2645054   2.1434839  58.3795052  73.7438965
   1.7026957  57.5299606  73.7585220   2.7554727  58.3444862  74.4790726
  63.3646965  41.6311646  23.7076931  64.1410828  42.1829796  23.6130066
  62.9074326  41.9895859  24.4684010  67.5036163  68.3006897  79.2441330
  67.9503784  68.8544464  79.8844376  66.6347198  68.1550064  79.6183319
  18.0243511  69.5794678  76.8445892  18.8811188  69.2018509  77.0435562
  17.7386341  69.9727936  77.6691437  47.3742027  17.9729671  46.9814110
  46.8825951  18.0239544  47.8011398  47.2530937  18.8314342  46.5757065
  54.8145370  23.3501511  49.0625572  54.2280312  22.6943951  48.6854248
  55.2631721  22.8903923  49.7721901  28.2552738  26.7529259  44.3126526
  28.8292446  26.5900784  45.0611649  28.6509705  26.2579556  43.5952530
  25.5157070  67.5713577  21.0930843  26.0649357  68.0677567  20.4863167
  24.7176762  67.3869705  20.5977230   9.9125643  37.4100876  25.1854763
   9.0713339  37.0340347  25.4446049  10.0794487  38.0936127  25.8344555
  62.0483093  17.7590904  87.4605865  61.1677361  17.5909348  87.7960587
  62.0980568  17.2490616  86.6521149  32.5081024   3.9804714  70.4112701
  33.2845497   3.4789648  70.1625671  32.4678421   3.9025838  71.3644485
  21.2220268  15.8124590  16.1563168  21.7230701  15.3996162  16.8597012
  20.3095474  15.6069736  16.3597584  47.2633820  46.6182442   9.8176174
  47.0854645  45.7179947  10.0898781  48.1479912  46.7949028  10.1377621
  27.6783886  45.4736176  17.7405434  27.4405956  44.7970123  18.3744946
  28.6248074  45.3790245  17.6329479  82.3140945  39.8793678  87.1401978
  82.2405930  39.4804688  86.2731857  82.1916275  39.1516380  87.7498169
   8.2588196  48.2622948  88.0150223   7.4903393  48.7478485  87.7151794
   8.1149111  47.3691788  87.7021790  16.4865265  39.7716217   6.4816823
  16.4789200  40.6085510   6.0172191  15.6445265  39.7421608   6.9359946
  32.1378860  67.3744202   5.9948945  32.7549210  67.9170532   5.5039239
  32.6168671  66.5639877   6.1681027  29.1891861  67.8495331  63.1051559
  29.1313000  68.8041306  63.0649796  30.0582790  67.6474838  62.7586212
  84.6395721  54.2134361  34.0849953  84.9144669  54.8954048  33.4721489
  84.8521423  53.3925400  33.6409531   6.8555484  17.6293831   9.4249554
   6.3109531  17.5965538   8.6384630   7.7464643  17.4863338   9.1055222
  70.6675720  63.3583412  88.4180069  71.3651733  63.4244194  89.0700836
  69.8602982  63.3392563  88.9319916  44.0210457   6.1586866  18.4955425
  43.1554260   5.7576199  18.5735359  43.8439522   7.0950656  18.4057426
  39.9428596  69.7280655  56.4581833  39.6065483  69.4647293  57.3147926
  39.4025078  69.2478561  55.8307686  77.3762589  13.8381462  24.3293362
  77.7990570  12.9999714  24.1424160  76.4401321  13.6384563  24.3338566
  81.9613876  19.5897846  74.0841827  82.3364410  20.1713524  73.4228592
  81.0150604  19.6977272  73.9890900  43.1403999  62.8920670  57.6969452
  43.1848679  61.9593277  57.9073067  42.8560028  63.3078651  58.5108643
  69.4541321  47.1163368   2.8776104  69.2149887  47.9124641   3.3521874
  69.9003525  47.4310455   2.0914330  24.8692780  60.1067543   3.9412596
  24.8258667  60.0802574   2.9854119  25.8059368  60.1131210   4.1383929
  20.7528706  41.2692490  85.7066345  20.5040531  41.5613708  86.5835495
  20.7418995  40.3136253  85.7604218  70.3300323  54.3032990  77.7719421
  69.4110947  54.5712395  77.7718658  70.7760086  54.9773560  78.2847595
  40.0572510  48.7032509  81.1602631  39.2281380  49.1367760  81.3624039
  40.1251335  48.0020752  81.8083191  79.6749268  56.2278862  47.0758667
  80.2290344  55.6684189  47.6200943  79.7053909  57.0837517  47.5034218
  73.1024246  37.8256073  15.7254848  73.2189331  37.7965240  16.6751232
  72.2723846  38.2855148  15.5999861  32.2521095  52.1445122  37.4750366
  33.1593628  51.8414040  37.4396553  31.9391708  52.0694313  36.5735588
  40.3139801  38.9776955  88.6177063  40.7347374  38.3709335  89.2268372
  39.5749283  39.3363152  89.1090622  56.2917175   6.9201612   4.5640569
  56.2751732   6.3791909   3.7745574  55.3823242   6.9364505   4.8623385
  83.8039780  70.3261642  51.8739929  83.5436401  70.9602509  51.2058716
  84.7129059  70.5492935  52.0747337  -0.2065248  37.5052452  78.6968994
   0.4886626  37.3348351  79.3324356   0.0343380  36.9820290  77.9324036
  35.5383682  57.4080429  82.9031219  36.2774315  57.2032547  82.3303375
  35.6564293  58.3315277  83.1255417  43.2534294   7.2782049  72.7012634
  42.3030891   7.2199173  72.6028290  43.3805695   7.7957602  73.4963760
  76.3363495  63.7700844  31.5915375  76.6967926  63.9569511  32.4583664
  75.6078873  63.1721077  31.7588692   8.9580631  16.0678387  68.1664200
   8.1707811  16.5589447  67.9314041   9.4734583  16.6790848  68.6927109
  64.2875366  58.5974541  30.3516216  64.7871780  58.0518532  30.9589958
  63.6093521  59.0002518  30.8938904  15.4169073  51.2904167  61.4213219
  15.8956003  50.9887161  62.1933746  14.5002375  51.3006210  61.6967201
  64.5339050  49.1032181  57.7140388  64.1385574  49.3061790  58.5618248
  63.8765373  49.3726578  57.0725594  81.3478165  24.0373077  45.2466774
  80.5165558  24.4572945  45.4676895  81.1591415  23.5351944  44.4538879
   6.7117839  11.0651436   7.5023880   6.6269917  11.3158932   8.4222612
   7.5089645  11.5048580   7.2067771  83.9912109   0.7203715  63.6474419
  84.3857422   0.9270349  62.8001709  84.7359848   0.5373035  64.2201843
  31.7808952  39.4938965   4.4760218  31.5229321  38.6104202   4.7389998
  32.7134552  39.4206772   4.2730341  69.7043533  54.1594772  34.2757950
  69.8216019  54.7486839  35.0209923  70.0677185  54.6393623  33.5315437
  52.0965004  47.3473244  62.8921585  51.7156448  46.5318451  62.5663109
  51.4457550  47.6868858  63.5065346  10.8961258  45.8098106  51.6574173
  10.9817924  46.5138054  52.3002930  11.2408972  45.0357170  52.1025505
  74.3623581  29.4360924  64.8424683  74.6338348  30.2153473  65.3275375
  73.9933167  29.7774925  64.0279160  21.6139088  67.1449661  67.4826355
  22.1765251  67.7928314  67.0584183  22.0614967  66.3105621  67.3423691
  39.7024574  22.2342167  24.7031441  38.9209518  22.7705860  24.8365250
  40.4330139  22.8294621  24.8710823  17.2171745  70.2610474  16.9612808
  17.0681782  71.1244202  17.3467884  16.8073597  69.6509552  17.5745335
  70.2458115   4.4201846   5.7814727  70.7349319   4.9497681   5.1517644
  69.9953003   3.6366587   5.2920208  46.7074547  68.4301758  19.2507896
  45.9009666  68.9454803  19.2344513  46.4561348  67.5804596  18.8887653
  12.6369429   7.9802284   0.3501972  12.1155376   7.6443720  -0.3788904
  12.1124620   8.6954193   0.7102720  36.1241035  26.6371460  19.7479820
  36.2745895  26.8576031  18.8287525  35.9196625  27.4742813  20.1646862
  80.0351639  30.3998566  71.8774414  80.2927475  29.6109772  71.4004135
  79.1599579  30.6039543  71.5479202  23.9813347  60.5554504   7.8809056
  24.1297207  60.7771454   8.8001795  24.8019943  60.1534958   7.5959821
  37.8010902  10.9321842  26.9939423  38.1783333  10.1668081  27.4276657
  38.5581779  11.4301519  26.6855984   0.6153172  33.7055626  11.9062252
  -0.0784712  33.0568352  11.7877169   0.4011115  34.4015388  11.2849646
  16.7858257  46.7692528  33.1725769  16.5016937  47.6055107  33.5415916
  17.5822887  46.5519562  33.6569939  69.4587936  32.8147850  87.1412430
  69.2814789  32.7171021  88.0767899  69.4484024  33.7603683  86.9929504
  49.2558899  56.6465492  34.4809303  49.8842583  56.3543930  35.1412544
  49.7858505  57.1173592  33.8377266  67.8780594  18.2755260  18.1192360
  67.1545563  18.7660027  18.5093689  68.1390991  18.7969494  17.3601532
  33.3701706  69.0301971  86.7307739  33.6792145  69.8640289  86.3765869
  32.4163704  69.1106567  86.7352524  22.1700897  43.4267311   4.1126504
  22.6045170  42.8678741   4.7569990  22.0146923  44.2499733   4.5756340
  26.6270447   2.4695539  72.4998016  26.1207333   2.5465641  71.6911316
  27.2153091   1.7305725  72.3446198  82.7333527  34.6536713  84.9661255
  82.0330505  34.4779549  84.3376846  82.3782043  35.3358917  85.5359344
  39.3979568   7.1156287  86.5446167  40.2756844   7.4969420  86.5240326
  39.4344444   6.4684167  87.2489014  59.9191437  56.5406189  68.6061707
  60.8155937  56.2513351  68.4360886  59.3942642  56.0991898  67.9384308
  83.6320038  34.6283684  26.1999474  83.3339844  33.7688675  26.4977341
  82.8479538  35.1767387  26.2281628  27.4199276   6.7612319  22.8402061
  27.9542885   6.0224013  23.1314430  28.0149708   7.5106726  22.8624630
  66.7574997  29.5727901  66.4737625  67.2323456  30.3536415  66.1891174
  66.4830933  29.1495171  65.6602631  25.5325546  57.3899803  84.7076569
  26.3955345  57.5862617  85.0723038  25.7159920  57.0186577  83.8446960
  41.4116554  45.7340355  80.2099228  42.2878304  46.0471573  80.4346619
  40.8461800  46.0936050  80.8934250  78.1910934  35.6993828  77.9794388
  77.6965866  35.3686905  77.2295380  78.0360947  36.6439133  77.9708481
  50.9036865  42.4553833  41.5850487  51.0672455  43.3862457  41.7366104
  50.2998695  42.2015419  42.2830467   9.6241236  46.5078316  47.7294884
   9.7106972  46.2807388  46.8036575   8.7775431  46.1431274  47.9874115
  49.2433128  68.5172424  19.7017231  49.0014458  67.9478455  18.9713001
  48.5055962  69.1208344  19.7893505  67.9641800  68.3193970  70.2840881
  68.7459030  67.7732925  70.3672409  67.2360382  67.6981201  70.2920303
  22.6191082  11.9641304  19.1329670  22.5901012  11.4148607  18.3495808
  23.5509739  12.1316586  19.2736530   4.4042144  42.4539948  14.0898943
   4.7233934  41.8925171  13.3834238   4.7195082  43.3285255  13.8618145
   5.8257227  16.0114784  32.6251907   5.4068050  16.3971367  33.3946114
   6.5172248  16.6312904  32.3930511   3.5573614  14.5317822   6.3436146
   3.7831280  14.8452139   5.4678168   2.8361440  13.9190016   6.2001662
  74.0097504  62.0503464  40.5041885  74.7190399  62.1304932  41.1419258
  73.7174301  62.9498215  40.3567734  76.6628647  36.6819115  53.7949333
  77.4267120  36.7833557  54.3628082  76.9773788  36.1513481  53.0629387
  84.7041931  44.6440887  28.3385735  85.3525772  44.3550110  27.6964893
  83.9030533  44.1800346  28.0955582  13.4463434  18.1822376  68.8677902
  13.6480074  18.0582428  67.9403305  14.2422380  18.5650902  69.2368546
  24.1309357  60.0531349  84.9555969  24.4773312  59.2198639  85.2748184
  23.2415867  60.0932846  85.3072815  77.0566864  62.2363968  77.8855286
  76.4104004  62.1737633  78.5888214  77.7894974  62.7130737  78.2754135
  64.7050171  35.5451775  67.4238739  65.0849609  34.7555885  67.8091278
  65.3639832  36.2238922  67.5699539  21.3418465  31.7820587  20.5193176
  20.4418316  31.5017719  20.3530521  21.2527752  32.6407051  20.9328690
  60.2236748  19.7091255  66.1395569  60.7889862  18.9438381  66.0347137
  60.4371567  20.2686939  65.3928680  48.9791946  42.0282173  43.5678864
  48.0567322  41.8091927  43.4362717  49.0078545  42.4334068  44.4346237
  57.7416306  44.1854057  42.7012062  57.0742416  43.5505028  42.4409714
  57.8150215  44.7764816  41.9518890  68.4012146  45.8810196  29.2025089
  68.9680710  45.8032494  28.4351368  68.4253922  46.8117371  29.4247990
  71.7196274  69.6561737  10.8747663  71.8387756  70.0556412  11.7364283
  72.0014572  68.7487411  10.9904108   9.3711815  51.3081589  77.5222702
   8.8025293  52.0781364  77.5233917   8.8254080  50.6068153  77.8779144
   8.2803202  44.3739777  32.5887032   9.1738329  44.4845047  32.2636642
   7.7537227  44.9608383  32.0460052  17.4954643  13.1145306  23.3423576
  17.9963017  12.7473412  22.6139603  17.3461151  14.0269327  23.0944653
  12.9736824   1.5404892  20.2600288  12.9361582   1.2488714  19.3491058
  12.6240749   2.4313545  20.2409134  52.0305634  33.9985237  84.2900543
  51.3031693  34.0551109  83.6704330  51.7735291  34.5696030  85.0139542
  63.3689728  62.1391716  18.6366768  62.6842537  62.1046715  19.3046608
  63.2268639  62.9742393  18.1909237  21.3820992  34.0421524   1.0639980
  21.9561577  34.0868568   1.8286477  20.9188137  34.8797646   1.0630146
  47.8694916   4.0813494  71.6257401  47.5170631   3.7002623  70.8215027
  48.3876266   4.8295698  71.3292084  54.1123390  62.9336739  13.7290955
  53.8225174  63.1430130  14.6170225  54.5101967  62.0664139  13.8052235
   7.1434922  45.3785362  47.2869072   6.4727125  44.9994240  47.8548508
   6.6821861  45.5796928  46.4726791  72.8190689  49.7952652   0.3746763
  73.1203308  49.4588737  -0.4693108  71.9543686  50.1625404   0.1912764
   7.3313217  21.4434395  74.5416718   6.3751321  21.4719868  74.5751190
   7.5875072  21.0284061  75.3652878  22.1054440  61.4670258   1.7423511
  21.8427372  61.7383308   0.8627998  21.6563072  60.6330032   1.8798944
  50.0959206   6.1408024  38.1827469  50.5285301   6.6183109  37.4748840
  50.7879715   5.6019444  38.5660629  60.4044418  70.2444382   2.3176515
  60.4075661  71.2016373   2.3182900  59.4832230  70.0080032   2.2095599
   2.4688437  52.4586716  23.7579136   2.5550804  53.2465363  24.2946320
   3.2114840  51.9118195  24.0141754  18.9780922  47.9257698  13.6105089
  19.8947563  47.7347717  13.4118128  19.0154991  48.6033096  14.2856169
  33.9477386  62.2112122  78.6328201  33.1794090  62.7160225  78.8994064
  34.2569962  61.8011894  79.4405823  44.9830742  13.1888494  29.2716980
  45.2450218  14.0228939  28.8818455  44.4103432  13.4335957  29.9985466
  46.5809746  45.6462669  33.8605347  45.9927483  46.1045494  34.4607010
  47.2572708  45.2734299  34.4260826  60.6681938  63.9025421  84.7231216
  61.2215233  63.1482010  84.9256821  60.5125656  64.3198166  85.5704117
  20.9402885   4.0644517  65.3128204  21.2853222   4.7467327  65.8887329
  19.9924393   4.1973443  65.3251648  65.0298386  40.0906906  77.0895309
  65.7143173  40.5400391  76.5937347  64.3340683  40.7416191  77.1813278
  60.2749977  68.4263840   5.2402344  60.2636414  68.2415237   6.1793456
  60.2382698  69.3812027   5.1836166  16.1023788  55.1522408  20.4838371
  16.5859718  54.3385620  20.6263027  16.1059742  55.5855713  21.3373260
  27.4573498   6.3283787  77.0676498  26.5757999   6.0659132  76.8026733
  27.5315189   7.2394667  76.7836609   5.1451817  59.4819336  55.3781052
   4.5357981  59.9119606  54.7781372   5.1432047  58.5646019  55.1047363
  52.2295914  45.7504425  38.4530296  51.7930679  46.2846832  39.1165543
  52.5095253  46.3778381  37.7865181  72.6138306  54.0756798  36.6636887
  71.9859695  54.7420349  36.3844109  72.2490616  53.7292404  37.4780350
  78.0429153  16.7217121  24.6732330  77.4787674  17.4443092  24.3978729
  77.5723190  15.9336081  24.4018307  53.2043648   3.5514116   6.4776006
  52.4437675   4.0997167   6.2850199  52.8461609   2.8052881   6.9584570
  33.7389069  33.2265625   6.9328680  33.1649666  33.6661911   6.3055348
  33.4672813  33.5668564   7.7853060  41.6884689  36.8253937  32.5244713
  42.2396584  37.3050537  31.9061260  42.2894783  36.5482826  33.2160110
  60.9261475  29.8297768   2.8218081  60.6047478  30.6812630   2.5253179
  60.8221893  29.8525238   3.7730742  81.5716171  61.8737907  78.5136490
  81.0797424  61.7026634  79.3167648  81.6390610  61.0193787  78.0874329
  62.3183899  42.0394402  29.2122135  62.5961113  41.8158684  28.3238907
  62.8654099  41.4949379  29.7783566   7.1219749  35.1207314  77.5372925
   7.4941921  34.9423828  76.6736450   6.1843319  34.9596367  77.4319077
  14.2152815   2.8079362  78.3521957  14.0291929   3.6960545  78.6569061
  15.1695576   2.7394524  78.3821945  41.8337784  47.8950081   0.0974518
  40.9809875  47.7819977  -0.3223149  41.6275864  48.2076874   0.9783305
  45.1999397  70.3875504  71.4198914  44.9480972  69.7661743  70.7367401
  46.1559639  70.4130096  71.3798904  15.8286180   6.2647662  28.0194054
  16.1043091   6.5868826  28.8775826  15.6883593   7.0565395  27.5001221
  46.2874603  17.3120289  43.0814819  47.1771088  17.0450840  43.3127785
  46.2403336  17.1919937  42.1330070  67.6471863  68.7718735  86.5840912
  67.6234512  69.1174774  85.6917801  67.4888763  67.8334198  86.4817581
  48.0629120   0.4988308  19.1280174  48.5439186   0.3649721  18.3113499
  47.2960815   1.0118326  18.8730030  78.5978317  26.7063065  51.3624916
  77.7585449  26.6790752  50.9030495  79.0946121  25.9740868  50.9973984
  79.9890137  38.5827675  34.7915916  80.3972397  39.4305916  34.9670258
  79.4869080  38.3902664  35.5834656  53.4293213   5.3642888  40.0530701
  54.3602524   5.1530275  40.1235275  53.3958130   6.0965366  39.4375038
  72.2297211  24.9216728  46.5755997  72.1174011  25.4205933  47.3847313
  71.5218201  24.2775669  46.5911560  86.0673828  38.4188194  27.8040504
  85.8673477  37.9676628  26.9838848  85.6531448  37.8821793  28.4798107
  84.4145737  37.2232475   3.6655540  84.9660873  36.6281891   4.1734643
  84.5141296  36.9282150   2.7604151  75.3225479  34.9405899  81.7105408
  75.7458725  35.7989502  81.6948929  75.6040573  34.5497437  82.5377197
  79.2522583  45.6547928  88.5537033  79.5352097  45.3006134  87.7106552
  79.0237656  44.8837700  89.0728836  58.0790062  29.0575562  35.9899216
  57.5177193  28.4707069  35.4831734  57.4692001  29.6363239  36.4475212
  34.3828354  59.5290489  77.3093109  34.1453667  60.4134254  77.5880890
  34.6862755  59.0992279  78.1089401   9.5403748  23.1047382  78.8267822
   9.3863373  24.0411377  78.9519196  10.0407515  23.0510273  78.0125504
  61.4314957   7.5908403  12.3498316  61.7755508   8.1817513  11.6799955
  62.1330872   7.5291643  12.9980555  38.0087433  36.3430557  75.9698563
  38.0313225  35.6005211  75.3662262  37.5499802  36.0106583  76.7413940
  15.3830109   7.8407106   2.8686178  15.2785254   7.8794236   1.9179255
  15.9437571   7.0793056   3.0171354  81.2496338  56.3937492  35.7633362
  80.8593292  55.5542336  36.0064583  81.2405167  56.3938828  34.8061790
  77.5210419   9.4897556  35.5145226  77.9185562  10.2499275  35.9392052
  77.4147339   9.7542477  34.6007538   6.6184673  37.9491501  76.9017029
   6.9960804  37.0701332  76.9328461   7.1467695  38.4139290  76.2527695
  67.5770721  15.9121580  14.9976025  67.1659088  15.1618652  14.5683718
  67.3898392  15.7880163  15.9280682  21.4071350  45.9818726   5.0316782
  21.9197044  46.7853355   5.1208477  21.0902290  45.8005028   5.9164991
  84.2666245   2.3179228   3.6194239  83.3758087   2.5311170   3.8973112
  84.1706848   1.5206029   3.0985518  39.2068558  10.2410240  69.2912140
  39.2937241  10.6602039  68.4350739  40.0420990   9.7928152  69.4242935
  85.5286560  47.0477371   8.3832617  85.4451370  46.5067101   9.1684675
  84.9611816  47.8004341   8.5495548  28.1062183  43.0997849  57.5785065
  27.6971989  42.2959595  57.2578812  28.9840240  42.8304558  57.8489685
  38.0575256  40.2056007  86.3268433  37.1491356  40.0653648  86.0596619
  38.5053673  39.3939552  86.0883102  20.5134621   8.5871477  75.6744843
  19.9880486   7.8033690  75.8352966  20.7207737   8.9198542  76.5477295
  62.1032867  11.1608248  43.2109528  62.5691490  10.9568186  42.4000359
  61.4212570  11.7781982  42.9465332  69.6445084  46.3717575  43.9789429
  69.8330460  45.4752541  44.2563782  68.7561188  46.3310966  43.6249046
  58.3555756   4.8517218  21.9348755  59.2030792   5.0881014  22.3118362
  57.7127533   5.2192979  22.5414200  52.2129097  11.3461876  16.9870434
  51.4032593  10.8404493  16.9168396  52.3883476  11.6426144  16.0939674
  55.4576950  64.4613037  31.1316338  55.4928970  65.1073608  30.4262199
  54.5231590  64.3426437  31.3013210  47.9619331  10.8099632  69.1480560
  47.9850883  11.0668516  68.2262650  47.7397537  11.6151323  69.6155777
  81.2294998  33.3653526  58.6821938  80.9439316  32.4962769  58.4004364
  81.9488831  33.5847282  58.0900841  62.7044525  46.2739487  52.5855103
  62.8810883  47.1572838  52.2618637  61.9997635  45.9498177  52.0246315
  80.7215881  21.5074444  53.9625549  79.7900696  21.5431709  53.7452545
  80.9177551  20.5725117  54.0229683   0.3591481  53.3001785  66.3460541
   1.1092505  53.2083549  66.9335480   0.7435072  53.3315315  65.4699707
  49.7263794  50.9307098   1.5895120  48.9924049  51.3462982   2.0420597
  50.3684120  51.6321678   1.4800328  68.2984848  21.7435341  18.6699753
  69.0896835  21.2089767  18.7369194  67.5839996  21.1406555  18.8755970
  23.3092403  59.4847412  28.5227852  24.1713982  59.1008568  28.6826305
  23.0455856  59.1353607  27.6715202  79.2498474  70.8578415  35.0707703
  78.8205566  70.4892807  35.8428459  79.0202408  70.2589264  34.3602638
  41.8047981  50.2743149  13.0464144  42.4912376  50.2731209  12.3793077
  41.7752113  49.3708611  13.3612547   5.2896886  45.1974678  16.7906017
   4.3669429  45.4370384  16.7047062   5.7644486  45.9250526  16.3887882
  51.0055084   7.3846226   3.5198843  51.3483963   7.0430722   2.6940491
  51.6063957   7.0497427   4.1854835   3.9336107  27.9616547  56.4801483
   3.5344329  28.7752628  56.7882576   4.5927253  27.7525978  57.1420364
  81.7600632  67.4014130  72.8372269  81.0221786  67.5199356  72.2391357
  82.2778854  66.6996994  72.4426346   3.4183311   6.9607015  41.3102493
   2.9802008   7.7213387  40.9285393   3.9285927   6.5914898  40.5894547
  14.3294325  59.6665115  14.1887445  14.8178558  59.3526840  14.9497871
  14.9274349  59.5409851  13.4519482  68.8505478  49.0335312  50.7008553
  68.4629745  48.1707420  50.8478813  68.6292038  49.5326576  51.4870567
  78.8767166   1.4509073  79.3475647  78.5084076   2.3331225  79.3952789
  79.1841049   1.2713082  80.2360916  60.3713646  68.3109741   8.0076599
  60.0621529  67.5165024   8.4429007  59.8270340  69.0099564   8.3700981
  64.4141769  51.9913712  27.6609077  63.6257629  52.5220604  27.5468826
  65.0541534  52.3823280  27.0660801  56.2052994  57.7229843  77.0880661
  56.9572945  57.1358032  77.1652527  56.5559425  58.5895462  77.2938766
  55.4722252  15.4020891  45.8326759  56.2872238  15.3495054  45.3334389
  55.5909805  14.7809095  46.5511932  53.6225548   5.8109374  78.2771072
  54.5499954   5.8698940  78.0477448  53.3683434   6.7111530  78.4801331
  74.9347763  26.4907265  12.1284094  74.5373764  25.8943520  12.7629519
  74.2018204  26.7927608  11.5919495  21.6341591  66.8908005  72.0596313
  22.0837765  66.0534058  72.1729431  22.3396893  67.5337372  71.9882507
  16.7451992  27.0510197  23.3154736  15.8249025  27.2545166  23.4824352
  16.8255615  27.0702610  22.3618469  56.2778206  35.6330147   7.6957235
  56.3997650  35.4077072   6.7734447  56.5780487  36.5394516   7.7625637
   5.1337161  33.4147758  62.7507439   5.7168250  33.5276222  62.0000916
   5.2422385  34.2172699  63.2610970  57.8997269  27.0448265  71.1705170
  57.4517555  27.1280766  72.0123215  58.2806396  26.1668510  71.1877060
  24.3690796  36.6159477   8.3593750  23.7160072  36.5248375   7.6655235
  24.7190514  37.4994202   8.2443819  36.4856529  44.6594887  40.4983902
  36.3463097  44.6322441  39.5517769  35.9275322  43.9622688  40.8428001
   6.9841104  20.9092865  23.3105087   7.7323761  20.3936157  23.0098209
   7.0602469  20.9079742  24.2646751  10.3659382  70.2760010  12.4823408
  10.6510773  70.0417480  11.5991354  10.8191071  71.0979309  12.6702194
  56.0283852  20.2010098  80.6109543  55.0751686  20.2483826  80.5376816
  56.2528191  20.8729782  81.2546310  47.4169235  60.0695305  32.2295952
  47.5987663  61.0063934  32.1557236  47.4509697  59.7471962  31.3289433
  46.9223862  42.7323303  15.6528816  47.5923042  43.4134140  15.7126007
  47.4047890  41.9121208  15.7566719  44.0661926  17.7508373  35.7233009
  44.0548935  17.4111805  34.8284607  44.8434601  18.3084011  35.7580528
  48.1521835  44.0103073  21.9338455  48.1883469  44.7385254  22.5540257
  48.9550323  43.5156708  22.0981674  77.4532394   0.2963648  31.9393330
  77.5654144   0.8615853  32.7036438  78.1109314  -0.3901565  32.0505409
  52.3762665  33.3299561  43.1386070  51.6961403  33.2409134  43.8062363
  52.0545006  34.0209084  42.5595741  19.0309753  24.0629787  53.5903587
  18.3661499  24.6428509  53.2188911  19.5598965  23.7930889  52.8396034
  78.2791443  65.2847977  46.4493408  78.5305328  64.5493088  47.0079918
  78.6510544  65.0732498  45.5930901  21.1528187  49.5397377  19.2276382
  20.7670441  50.3719254  19.5012665  20.6494350  48.8759117  19.6989918
   1.1568873  14.9276285  51.7032890   1.7762878  14.6170673  51.0428886
   0.5564026  14.1934891  51.8324738  84.2937546  65.4556503  15.9729652
  83.3400192  65.5336456  15.9961843  84.6090240  66.3583984  16.0163994
  73.4517441  60.1597900  24.4247513  73.0281143  60.8634186  24.9163666
  73.0906143  59.3557472  24.7980213   9.2452126  14.4376688  17.9991455
   9.8262825  15.1978769  18.0251141   9.1998949  14.1396971  18.9076557
  58.8979912  34.2311707  63.1884460  58.5881767  33.4308548  62.7644844
  59.5959435  33.9373131  63.7738838   9.4404888   7.9926834  72.9752350
   9.0712881   8.8281527  73.2614441   8.6993284   7.3870468  72.9860458
  85.3058319  41.6866493  82.9724426  85.9589691  42.1108856  82.4159622
  85.0048523  42.3799896  83.5597458  85.6821060  58.6548538  81.6251907
  86.4944534  58.7332573  81.1250076  85.1198807  59.3479118  81.2790680
  62.4341507  49.4746933  56.1097488  61.6081429  49.9257202  56.2844467
  62.2604141  48.5608253  56.3353348  75.4807892  60.7019920  17.8123875
  75.3468552  60.8860397  18.7421303  74.6603622  60.2997055  17.5272503
  74.8968277  68.7413025  58.7588348  75.7431946  68.7383804  58.3117485
  74.7286987  67.8205643  58.9593582  80.0060654  53.3114548  16.4118786
  79.9789047  54.2678566  16.3837585  80.6437378  53.0700989  15.7400532
  51.4343529  22.7604275  59.5454254  52.1310616  23.2536716  59.9784813
  50.8643188  23.4310837  59.1692390   6.2433271  12.4360771  76.9955826
   7.0928183  12.4470320  76.5545807   5.6957912  11.8745975  76.4467850
  28.9337654  14.5856371  79.8274002  28.1768837  14.9243689  79.3492584
  29.4345856  15.3655090  80.0665894  71.8587036  35.1647949  84.2073517
  72.5306244  35.3374443  84.8668594  71.8634567  34.2132034  84.1039963
  63.9568443   6.1545906  27.7926903  63.3489952   6.6146321  27.2138042
  64.4685440   6.8507676  28.2046814  46.5675354  53.9235764  13.6911917
  47.4912262  53.8169212  13.9184580  46.2910881  54.7036705  14.1720886
   4.7794590  47.4724541  68.7865906   3.8293622  47.5506287  68.7003555
   4.9770212  46.5911522  68.4695663  35.1781807  11.3144121   6.8232064
  35.9476318  11.6870966   7.2536554  35.3187218  11.4848146   5.8918400
  82.6536026   7.8016586  44.0389671  82.2429504   8.6417217  44.2436485
  83.4618454   7.7988992  44.5517693  57.3860359  60.4037971  65.7345734
  57.7787819  60.4974327  66.6024551  56.7449608  61.1128120  65.6840286
  30.0554695   3.2574177  58.2457924  29.7164745   2.5300784  57.7239761
  30.9004955   3.4649379  57.8469200  25.2649632   4.5539804  52.3721848
  24.5105095   4.9549665  51.9406281  25.8967285   5.2674613  52.4619026
  43.8990860   6.5651007  70.2288284  44.5975113   7.2046056  70.0892868
  43.6855850   6.6426668  71.1586838   9.4727249   1.1231831  38.7359695
   9.9220581   1.0696062  37.8924904  10.1081667   1.5371522  39.3199883
  17.4342918   4.4505267   8.6225386  17.9762764   3.9073100   9.1947260
  16.7055264   3.8824027   8.3728046  68.6343079   7.4759369  76.5520706
  69.3834381   6.9484968  76.2748642  68.9691925   8.0062056  77.2751846
  72.1044464  15.2314758  51.4316940  72.7456284  15.9374695  51.5134888
  72.0717545  14.8355417  52.3025551  57.6183472  37.6565971  22.7727852
  58.2181129  37.8626213  23.4897671  58.1818161  37.5846024  22.0023613
   2.0430899  62.9175148  31.6596470   1.1996374  62.8373375  32.1050606
   1.8164039  63.1228600  30.7526302  71.0670547  35.9860992  89.0516968
  71.9286346  36.1344719  88.6619492  71.1916656  35.2324219  89.6284790
  40.9141884  50.0132256  54.5822296  41.6988907  50.3334084  55.0271454
  40.7983589  49.1222725  54.9124031  15.0938902  13.8132505  16.6618385
  15.0588894  13.8447485  15.7057981  15.5393305  12.9890757  16.8581810
  56.3852272  43.7076378  32.2409210  55.6568451  43.0880814  32.1980438
  56.6951637  43.7757950  31.3378582  10.2416792  33.7466736  20.4724045
  10.0251017  34.6260643  20.7822399  10.6182947  33.8849220  19.6033344
  71.8802185  30.4785366  48.3970375  71.6939621  29.9344158  47.6318779
  71.1738205  30.2781658  49.0111084  78.0779419  54.2958755  30.6346931
  78.0932617  53.6400681  31.3317680  79.0006256  54.4592552  30.4392357
  55.4337273  35.6281853  56.6380043  55.8297501  34.7746925  56.4620819
  54.6294403  35.4251595  57.1156387  38.1793327   0.4455083   4.1692910
  38.9975052   0.9272692   4.2906795  38.4370346  -0.3511454   3.7054322
  20.3146210  21.0315723   6.9654589  20.2164268  21.6793518   6.2676268
  19.4175930  20.8210106   7.2247572  66.3102493  15.7777491  22.8728180
  65.7636032  16.5612507  22.8133850  65.9107895  15.2594280  23.5713940
  81.9103241  41.1313286   2.9497130  82.8162842  40.9396248   3.1920464
  81.9819794  41.7758484   2.2456594  31.7225170  28.3481388   4.6092739
  32.4458809  27.7298355   4.7125902  32.1407738  29.2091064   4.6143765
  32.7016602  42.4808159  83.0250626  33.6553268  42.5552368  82.9902573
  32.5317993  41.5418015  82.9500122  80.4803009  27.5249481  79.2294464
  80.3172226  28.0856972  79.9878616  81.4158783  27.6255703  79.0539322
  14.8724556   5.6690907  69.2197342  14.9068985   4.8381934  68.7457581
  15.1038771   5.4410009  70.1200943  31.4976559  58.4853592  31.9849167
  32.0131683  58.8706017  31.2763500  30.6872501  58.1993866  31.5633831
  49.0991859  68.5500488  25.7717190  48.5204773  68.5553589  26.5341473
  48.5373917  68.8131790  25.0427628  44.8980675  51.4262733  19.9711800
  44.2183304  51.7806587  20.5444164  45.7177086  51.7568703  20.3387737
  10.6560287  59.3074074   5.6957989  10.8802290  58.4438438   5.3490672
  11.0011435  59.3040123   6.5886126  29.2268047   1.1590281  57.0464859
  29.8132133   0.9234731  56.3275452  28.3476753   1.0283163  56.6911278
  85.6075211  70.1195450  64.6118393  86.4679413  69.8839798  64.2648239
  85.6276016  69.8248520  65.5223312  40.1911697  56.3834381  88.7905884
  40.0247726  55.6044846  89.3214111  40.9546394  56.7923965  89.1981354
  38.2476692  20.0002499  73.6711121  37.6896248  19.3951702  74.1596756
  37.6472740  20.4573498  73.0821991  75.4239197  25.2283154   8.5062122
  74.8470154  24.4690933   8.4225788  76.1748428  24.9048576   9.0039310
   4.2797832  67.7035751  73.0580902   5.0353436  68.0741577  72.6019897
   3.5396101  68.2364731  72.7675781  49.8350677   9.8099375  17.9234543
  49.0496979   9.9188519  18.4597054  50.2004471   8.9700871  18.2016277
  85.9104080  65.4762955  88.6195526  86.2226334  65.3612442  89.5170517
  86.3770981  66.2488327  88.3007812  69.5874405  23.3380489  15.2106171
  68.7456589  22.8833580  15.1807919  69.4530334  24.1256657  14.6835241
  71.2664413  60.7812080  72.4521255  71.4040451  60.7278595  71.5063705
  71.6237564  61.6343842  72.6984024   0.6885568  57.9802628  84.2269745
   1.3543736  58.6679306  84.2212982  -0.0210990  58.3295326  83.6878738
  77.6143265  37.6312027   6.6959023  77.9924469  38.4607162   6.4040694
  77.4932632  37.1269569   5.8913460  81.1324310  63.8162231  69.5212250
  81.3488617  63.6248665  70.4337921  80.3929291  64.4218292  69.5723724
  22.4662075   3.3654840  62.9775696  21.8218079   3.2617810  63.6777306
  23.1167488   2.6843143  63.1479683  59.2371292  19.5666924  88.3479156
  60.0041695  20.1153717  88.1841049  58.4949493  20.1033230  88.0696640
  21.0844822  18.9348564  68.9327621  20.1653385  18.7168827  69.0873413
  21.2255707  18.7353764  68.0072708  54.6689758  31.5376301   4.8588977
  54.0475693  31.9004955   5.4900999  54.4553261  30.6053352   4.8213067
  40.9814644  70.5009537  46.7167740  40.0416718  70.6789322  46.6801567
  41.2733307  70.5669098  45.8075447  40.5955887  53.7415428  70.7355576
  41.1978455  53.2837677  70.1490707  40.1676483  53.0437241  71.2316895
  28.0989780   6.6087604  66.7016220  28.8786488   7.0187449  67.0761337
  28.3123055   6.4892488  65.7761841  49.7974129  38.4129105  16.9858303
  48.9240952  38.0317268  16.8950062  50.3947029  37.6748314  16.8645172
  48.0491219  25.7936172  35.3269806  47.9377632  26.0203037  36.2502594
  47.5312653  24.9968758  35.2118263   2.3398960  35.0106354  84.1632233
   1.6286520  35.1184425  84.7946854   3.0696993  35.5037651  84.5379868
  57.2338295   1.0269608  73.3782959  57.7753944   1.5028687  72.7486572
  57.4828339   1.3876996  74.2292404  14.1369267   3.2939899   8.4356041
  14.7765236   3.9875352   8.2739172  13.5887661   3.2860186   7.6509457
  63.5907440  64.1162186  58.2477226  63.5112381  63.8088722  59.1507454
  63.4543190  65.0619888  58.3037262   9.6161366  39.6088676  27.4356747
   9.5968542  39.1780472  28.2902241  10.0940180  40.4239311  27.5890903
  67.7682953  61.3006516  62.3993912  68.5593948  61.6704102  62.0073776
  68.0906448  60.7341461  63.1003876   0.8484069  21.1456146  71.0496140
   1.3706652  21.9056568  71.3061600   1.4664075  20.4147758  71.0630722
  69.5276566  15.0726624  74.7943115  68.6821442  14.6794577  74.5781326
  70.1039581  14.3262348  74.9585037  45.7465706  50.9340248  62.7268333
  46.4729996  50.7849007  62.1216125  46.1682968  51.1404381  63.5609627
  18.6501808  49.8563499  68.0423889  19.0786514  49.4618797  67.2827606
  18.0434303  50.4960632  67.6697540  29.4296131   1.7961462  21.3108902
  30.2579842   2.1553342  21.6287251  29.2079105   1.1110874  21.9415836
  30.7244587  37.2918854   5.5760207  31.4871292  36.8764420   5.9784789
  30.0624466  36.6011047   5.5478387  68.4261703  23.9166012  72.6859970
  69.2541809  23.4484177  72.7929688  68.0733414  23.9849777  73.5731659
   0.4398805  32.8880577  39.2270775   0.9330481  32.4889832  39.9438477
   0.7792392  32.4651489  38.4382706   1.0256416  65.1079712  19.1209736
   1.4003233  65.5930023  18.3857212   0.3465079  64.5611725  18.7259884
   9.2689743  40.8341331  13.6308308   8.9393444  41.6454391  13.2443609
   9.3671141  40.2378235  12.8885260  49.7915611  57.5765686  59.1911888
  49.8155937  56.6723022  59.5041695  48.9116974  57.8827858  59.4109612
  81.6672745  21.5165997  87.4591599  82.5975113  21.3278084  87.3356857
  81.6246872  22.4696026  87.5379257  74.9416199  57.1890411  27.3591709
  75.5110550  56.6229172  26.8381367  75.5286102  57.8550911  27.7170124
  41.3585014  61.3012390  79.0609512  42.2114220  61.7348595  79.0879822
  40.7316895  61.9920769  79.2756195  24.7251034  37.0796242  22.6340122
  24.2271500  36.8946152  21.8377419  24.0683765  37.3777351  23.2633553
  60.3451843  66.8569031  59.9111862  59.9781265  66.0808334  59.4878387
  61.2909584  66.7699585  59.7920914  30.2608452  32.8904877   5.9500098
  29.8042603  33.6634178   6.2821817  31.0050583  33.2431564   5.4621525
  74.3501282  26.8403797  68.9263840  74.2842560  27.4135132  68.1625671
  73.4844666  26.4385109  68.9996414   7.9949598   9.5215054  36.5076981
   7.7782202  10.3665657  36.9015617   8.6490459   9.7290039  35.8403549
  35.6503754  71.2678833  37.0113525  36.3033638  70.6339111  36.7148399
  36.1600876  71.9500885  37.4484100  60.1701012  25.7259502  40.0336266
  60.6689377  25.7612934  39.2174492  60.2747879  24.8249969  40.3394928
   8.5470896  65.9325714  54.6934433   8.3256931  66.0242920  53.7667236
   9.3519583  66.4398422  54.7987556  42.4784126  41.2974739  31.9193401
  43.3769379  41.3941650  32.2348213  42.4364586  40.4008255  31.5869331
  60.8811302  34.3957901  65.1412735  61.7890358  34.1803894  64.9278717
  60.9196548  35.2922325  65.4746552  22.5336056  52.8182449  77.7112579
  22.0395050  53.3679810  78.3194351  23.2938557  52.5273552  78.2148819
  47.5153618  54.1745605  36.2095070  48.4449921  54.1516953  36.4364395
  47.0659943  53.9155350  37.0139999  36.6062546  48.8738213  27.0662384
  36.5729179  47.9172020  27.0669308  35.6924782  49.1453819  27.1528530
  47.2155762  57.7893829  88.6919403  46.8202324  58.0375252  89.5276184
  48.1559944  57.7673378  88.8690414  11.2173367  42.2286987   0.6755297
  10.4120588  41.7675819   0.9103287  11.2253380  42.2245331  -0.2816278
  80.1967621  69.2432175  64.6876144  80.6934433  69.5296021  63.9211159
  80.3294754  69.9381409  65.3323593  85.6719208  61.3675652  17.4682617
  85.5437469  62.2895393  17.6913605  86.4756241  61.1200104  17.9254360
  34.3785400  67.5570068  51.1133614  33.5208855  67.6994705  51.5138245
  34.1893997  67.4173431  50.1854858  32.7758522  31.7805252  12.6600924
  33.0958786  31.7111549  13.5595379  32.1562729  32.5098228  12.6818981
  64.3320541  34.8815117  12.9845161  64.1778107  35.8258362  13.0108566
  63.5543289  34.5003395  13.3920546  46.0762444  28.1120338  78.0780258
  46.5769463  27.8143253  77.3184891  45.7273941  28.9640064  77.8159561
  31.6010303  49.2764473  21.1948662  30.9790974  48.6983337  20.7530308
  32.2106133  48.6824799  21.6328602  71.2773819  25.8109303   5.0122585
  71.0458374  26.4837894   4.3720427  72.1801758  26.0139351   5.2571974
  32.9931335  18.2115479  12.8506947  33.7355804  17.7875271  12.4203300
  33.0732307  19.1349812  12.6117668  22.7682667  47.5395584  66.3294754
  21.9314632  47.3699646  66.7621689  22.6946678  47.0970917  65.4838715
   2.5284424  23.9028091  21.6747532   1.9304075  24.2619381  21.0193062
   2.8749793  23.1065712  21.2720757  77.7711182  40.8920708  59.4286537
  77.5028992  40.1190224  58.9319839  77.5289993  40.6917496  60.3327980
  19.3614273  18.1375370   9.6062946  20.3047447  18.0655632   9.4606819
  19.1653347  17.4547844  10.2478771  63.6866417  16.8827362  39.8959160
  62.8515282  17.2682476  39.6309662  63.7948418  17.1497688  40.8087234
  48.1558342  59.6571007  15.0393124  48.9439583  59.2974358  14.6322136
  48.1696739  59.3136749  15.9326754  27.4037800  26.1904297  85.3423615
  26.9667721  27.0385094  85.4199219  28.0935230  26.2148647  86.0056000
  24.1685677  47.7984543  55.8168488  24.3870564  46.9506149  56.2037086
  24.1061230  48.3936386  56.5639038  77.5384827  59.8782310  51.0361824
  76.9288101  60.4895630  50.6228905  77.5408325  60.1299057  51.9597015
  70.1550674  39.9206505  89.3922577  69.9091568  39.7479019  88.4834595
  69.6465836  40.6944275  89.6350327  57.8518486  13.0589952  27.1878452
  56.9182434  13.2215843  27.0530205  58.1479034  13.7940941  27.7246990
  63.2403183  71.6687622  37.4936180  63.0140800  70.8495941  37.9340820
  63.7258377  72.1677551  38.1505127   8.1767502  10.5862617  17.2181988
   7.7115264  11.3971310  17.0125542   9.0274210  10.8753281  17.5483971
  40.3118095  61.8552780  75.4960480  40.5132484  61.1804008  74.8478241
  39.9749374  61.3706322  76.2496109  19.4392281  44.0375137  63.1188393
  20.3039951  44.4315567  63.0042152  19.5534630  43.1263885  62.8485985
  24.8774376  61.4763527  66.9062500  25.3289223  60.8456306  66.3453674
  24.9118328  62.2988281  66.4178009  46.1751938  51.2520485  68.8843231
  45.6290207  52.0290108  68.7649307  45.5521393  50.5443115  69.0490799
   6.6224551  55.0716400  38.4249916   7.3868709  54.5679550  38.7046432
   6.0416961  55.0678673  39.1858711  60.3127632  42.5935936  12.4580727
  61.0366859  42.6638374  11.8357916  60.3343048  41.6818123  12.7486277
  76.3168182  22.3168564  29.0023155  75.8947067  23.1613827  28.8447437
  77.1368484  22.3635521  28.5107880  30.4392242  30.7965679   7.8814855
  30.4577732  31.4103203   7.1471863  29.5549088  30.4305611   7.8654432
  57.4825363  39.2790375  62.0793266  57.5286865  39.0120926  61.1612625
  57.8020287  38.5192490  62.5660286  82.2726517  28.3793201  30.5338745
  82.8408966  28.6659737  29.8189201  82.4679565  28.9820099  31.2514076
  49.2208900   7.0366712  41.0541611  49.1432838   6.5757933  40.2188148
  48.9894524   6.3809052  41.7119141  34.8306046  39.0816193   6.8435121
  35.7575836  39.0234070   6.6120963  34.3960114  39.3358192   6.0294213
  70.3521042  22.0517712  73.0221481  69.7444077  21.3184929  72.9260330
  70.6582413  21.9920940  73.9271088   7.4190621   8.1698256  67.2158585
   6.8071413   8.2096024  66.4808731   7.0923791   8.8225565  67.8350906
  11.2988634  42.1745453  84.2788544  12.0128908  41.6646271  83.8962631
  11.3277044  43.0118637  83.8159332  55.4377556   2.7493377  66.7206497
  56.0625801   3.4582512  66.8731842  54.7535667   2.8880627  67.3755341
  74.3179703  47.0834923  43.3440018  75.2116318  47.3565331  43.5514870
  74.2873840  47.0708923  42.3873749   7.1938739  45.8330765  10.1701117
   6.4887657  45.1861649  10.1936922   6.8604717  46.5695457  10.6826458
  51.4817085  64.0538483  64.4162445  50.6622505  64.4083710  64.7612610
  51.4469185  64.2398911  63.4779472  68.1021423  21.2427654  32.1983261
  67.9351196  20.7725277  33.0151558  68.3524857  20.5600777  31.5758305
  77.1067657  18.6589603  48.9888573  76.9858170  19.1362762  48.1680183
  77.2376328  19.3423023  49.6462364  60.6072311   7.6402216  60.1426086
  61.4029655   7.4877663  60.6523094  60.5141563   6.8549504  59.6032410
  71.7293091  36.3026009   9.9365692  72.3885956  36.1482124   9.2600060
  71.6760178  37.2557907  10.0059872  31.1811218  49.0760727  82.7701263
  30.2565384  49.1314316  83.0116043  31.1726341  48.8491516  81.8402557
  85.7781754  44.6692085  46.7782440  86.5184402  44.0650330  46.7215233
  85.7444229  45.0880547  45.9182091  45.4182892  34.0876884  31.8665638
  45.3827400  34.5534401  31.0310764  44.8905144  34.6211357  32.4608040
  55.4378815  61.3089828  22.9546776  54.4946823  61.4411240  22.8590565
  55.8308716  61.9521332  22.3646374  57.6914864  26.8531189  39.4050941
  58.6212769  26.6527576  39.2974777  57.2503014  26.0113754  39.2908401
  69.5998840  30.5142212  42.3134003  69.4519730  29.9489002  41.5552673
  68.9067307  31.1722221  42.2603798  61.5715790  57.2066269  54.6413841
  61.1045876  57.3841286  55.4578667  62.4744492  57.0413437  54.9129295
  86.6187286  36.4634933  76.1861420  86.3549576  35.6018066  76.5088654
  86.4292450  36.4363060  75.2482758  34.7934761  14.0400734   9.2268162
  34.5548096  14.7480497   8.6284513  35.5677185  13.6414404   8.8294888
  80.5666504  40.9679260   9.3096132  80.7746277  41.0230675   8.3769093
  80.1874313  41.8209305   9.5212879   2.3870418  39.4965248  31.2805672
   2.9936569  38.7675323  31.4102554   1.5922476  39.0885162  30.9369640
   7.6146832  67.7180099  30.0918236   7.6144562  68.6607819  30.2573795
   7.2019215  67.6255264  29.2331581  16.8972530   6.9091339  13.5188408
  16.9611282   6.5161939  12.6483517  17.3112545   6.2714863  14.1004248
  49.0245285  36.7200546   1.2483084  48.7558594  36.0823326   0.5869755
  48.3042641  36.7292862   1.8786793  72.9411392  59.2123909   1.6926711
  73.5448990  58.5502815   1.3560493  73.2250671  59.3588104   2.5949903
  52.3621407  36.4373055  43.8747635  51.7980232  35.6857185  44.0567398
  52.3445587  36.9510422  44.6822281  39.8823814  24.3901615   9.0030756
  38.9766426  24.5296955   9.2794790  40.3526154  25.1585522   9.3266315
  43.1534843  25.1548786  67.4111633  43.6935158  25.4267578  68.1532440
  42.3015213  25.5597324  67.5738907  83.6118088  35.9803543  11.1685839
  82.9160080  36.0908928  10.5206060  84.1699905  35.2926254  10.8056908
  47.7471428  48.2423592  18.5022621  48.1832809  47.8058662  19.2340336
  46.8291550  48.2959671  18.7680702  20.6737118  54.5661659  21.1121426
  20.5951595  53.6217918  20.9771748  21.6106110  54.7123184  21.2428780
  54.8470268  12.9169817  35.9594498  53.9498405  12.9036093  36.2927742
  55.3783646  12.5981750  36.6890221  39.2269516  53.7796898  61.8206520
  38.5097847  53.1612091  61.6814232  39.3606491  54.1879044  60.9652481
  80.2895508  10.2538786  46.8443069  79.9516220  10.1047487  45.9612465
  81.1381683  10.6752043  46.7080269  80.4712982  48.8773193  56.9817963
  81.1138916  49.1977577  56.3488426  80.4008408  47.9405327  56.7982216
  35.6743584   4.6116805  75.9993134  35.6764717   5.5653834  76.0810318
  35.7224121   4.2939267  76.9009476  18.1118908  59.3021698  25.4879436
  18.4305630  58.6403008  24.8742599  18.4615345  60.1277504  25.1526833
  70.5850830  45.1919136  14.4514818  70.4343491  44.3352394  14.0519571
  70.8057251  45.7636337  13.7161665   0.5632714  41.1678391  19.2719955
   1.0026708  40.4062920  18.8935699   1.1711437  41.4885521  19.9382267
  54.2174034  53.8499260  41.5581360  54.6940804  53.8503265  40.7280693
  54.0410194  52.9254341  41.7325935  41.4393158  51.0788078  58.3093872
  41.9007263  50.9417572  59.1367607  42.0621872  50.7990112  57.6385841
  44.8487511   1.4211847  70.4351273  44.7075500   0.5409243  70.7836075
  44.6150208   2.0048518  71.1568832  21.5403214  52.8062172  61.2890663
  21.8227921  53.6697273  60.9877586  21.6905651  52.8213882  62.2342796
  47.4264259  69.6929855   3.9663949  47.0137672  69.1598511   3.2869010
  47.7394791  69.0587158   4.6113234  13.9200754  58.6571693  47.6522064
  13.4360132  58.4916000  48.4612236  14.8094149  58.8598480  47.9424286
  56.0454597  59.6259117  86.1661530  55.9934654  58.7386818  86.5216064
  55.4178658  59.6315460  85.4434280  24.8890457  69.9159546   6.2618928
  25.7138405  69.5364990   6.5651484  24.6482754  70.5423126   6.9444842
  38.4258995  15.0641575  77.2542038  39.2633018  15.1798000  76.8051910
  37.8622475  14.6431246  76.6051559  73.8811340  60.4497795  77.8932343
  73.4157333  61.2606163  77.6878662  73.8282471  59.9330444  77.0892334
  70.4237595  31.7899647   4.2198024  69.7018585  32.4069824   4.3397074
  71.0192642  32.2326431   3.6151185  62.4710846  68.2570877  72.0143585
  62.5723572  68.6832733  72.8654404  61.6346283  68.5824356  71.6816025
  40.6314735  42.3762665  55.4033852  40.0877533  42.8452454  54.7704086
  40.7577362  41.5103226  55.0155334  79.1625824  53.7522850  68.8498077
  79.0772247  54.5226898  68.2881775  78.4737625  53.1593933  68.5494003
  83.5773315  14.9151468  38.2561607  82.6779022  14.9826393  38.5766373
  83.7379227  13.9738560  38.1897240  51.9596176  27.2106838  65.7188644
  52.4222755  27.3208561  66.5495529  52.3277092  27.8854294  65.1483688
  22.4519234  21.7652035  88.3083954  23.2272511  21.2039547  88.2984314
  22.0550060  21.6406746  87.4463196   3.7339253  67.2595978  36.0138512
   4.4909697  66.7368393  35.7495880   4.1114988  68.0356293  36.4279137
  24.0829124  51.8695183  32.1372643  23.8112087  52.6787567  32.5703278
  23.2910957  51.3321457  32.1152420  67.6457748  50.9991570  13.1821318
  67.7845764  50.6267166  14.0529089  67.3794632  51.9034653  13.3480797
  44.5755882  34.6328583   7.9381857  44.6936150  33.9147491   7.3163996
  45.4313240  34.7313194   8.3556194  12.4624395  18.0004234  33.0180664
  11.9904528  17.4980831  32.3539009  13.1809464  18.4141502  32.5397263
   5.7001872  37.5231667  88.4000168   4.7798815  37.7652550  88.5032806
   5.7450552  36.6168175  88.7045593  31.5423470  15.2826023  16.6783791
  30.9974556  16.0695724  16.6804638  32.3813858  15.5731735  16.3208733
  57.1454582  25.6015205  18.8574142  57.5905418  24.9177322  19.3579788
  56.4837074  25.1333866  18.3483276  48.6139793  43.2317696  39.2289276
  48.3503418  44.1408043  39.0861702  48.1209564  42.9580460  40.0023842
  67.8036270  18.9276466  22.3747692  68.1936264  18.2024632  21.8866673
  66.8790207  18.6930885  22.4541912  37.0527077  24.8485527  87.3988266
  37.3326683  23.9709339  87.1387558  36.3101273  24.6994534  87.9841232
  39.5372314  56.7218437  54.3709602  39.9428673  56.1088028  53.7578773
  40.2697601  57.2252998  54.7261581   1.2042656   7.9691768  83.8449707
   1.6477481   8.7402210  84.1985931   0.3302864   7.9959126  84.2344284
  60.1282082  13.6879749  13.4174671  59.7233238  12.9516640  12.9590502
  59.5259819  14.4184523  13.2761879  53.2857399  58.3902855  38.6007309
  52.4408302  58.8373642  38.5509224  53.3823471  58.1630936  39.5255470
  81.1499634  21.8115959   7.5500078  81.6760635  21.7388878   8.3463516
  80.4383774  22.4065075   7.7865419  54.7177124  64.0235367  34.4610634
  54.3981972  64.8007660  34.0027428  53.9461555  63.6745071  34.9072800
  47.3901863  39.6421661  34.3476372  47.8920898  38.8857231  34.0441246
  47.7129326  39.8036652  35.2341957  61.5958443  49.6117668  50.5163040
  62.0903816  49.9240761  51.2740135  61.8782883  50.1762619  49.7967186
  81.9478226  32.7962875  27.0410366  82.3196411  32.1969986  26.3938580
  81.8762360  32.2726135  27.8390789  65.8380661  70.5237122  31.3022690
  65.1578751  70.6544495  31.9629364  66.6494293  70.7821503  31.7394505
   3.4118845  66.8127136  88.1545868   2.9506633  65.9999847  87.9472961
   4.2924376  66.6851196  87.8016357  81.6960983  65.9242477  55.9845924
  82.3537750  66.4949951  55.5871696  80.9038849  66.4603043  56.0203171
  72.1370926   9.6783009   9.9651833  71.4862213   9.1038847   9.5618830
  72.4143448   9.2102833  10.7527876  43.7716484  37.6288223  23.4414558
  43.8316193  38.5749168  23.5738926  43.2049751  37.3232613  24.1497955
  84.2122803  27.4677391  45.4253197  84.0561905  27.4122009  44.4825668
  84.8151779  28.2044621  45.5252800  41.5518265  62.7905846  45.3222122
  42.2683716  62.6500359  45.9411163  41.9299545  63.3454018  44.6399918
  66.0443573   3.4116623  14.4179077  65.2126389   2.9898367  14.2021847
  66.1083679   4.1430430  13.8037281  74.8975525  15.4405422  14.1713352
  74.2053680  15.3387184  14.8245907  75.6523361  14.9897184  14.5498762
  63.5801086  53.6668510  37.2563210  63.5548897  54.6229553  37.2181091
  63.7554550  53.4684525  38.1761703  77.6025009   4.9468756  45.5049324
  78.2041473   5.4957204  45.0019188  77.8277435   5.1199942  46.4190025
  57.4738579  19.0262222  26.2185059  56.9643135  18.6518669  25.4998589
  58.3854904  18.8660049  25.9746056   7.5487123  62.6392326   1.6633205
   8.4569721  62.5056305   1.3923107   7.0608006  61.9488029   1.2144548
  49.0671616  15.4652863  70.9960480  48.4990654  16.1959114  71.2403641
  49.8982849  15.6517067  71.4327545  84.5545120  50.6876945  38.2394218
  84.5995331  49.7411156  38.1045380  83.6649704  50.9249229  37.9773788
  61.6069641  62.8149414  73.5554810  61.6441116  63.6153679  73.0318680
  60.8097420  62.9068260  74.0772324  64.6553802  17.2178383  64.3541641
  65.5611115  17.5229836  64.4067535  64.6499405  16.3976364  64.8475876
   2.6684313  12.1494274   2.3051438   2.8521879  13.0841503   2.2115641
   2.9262891  11.7693844   1.4653172  24.4743290  49.7857513  65.4440460
  24.2090149  50.5912857  65.0002518  23.7064743  49.5297546  65.9550247
  32.4039612  56.3338928  12.4576015  32.5813446  56.2379990  11.5218821
  32.2202225  57.2662735  12.5722313   1.5924835  31.4995441  52.4241219
   1.1896297  30.8540211  53.0048447   2.3430109  31.8302841  52.9176292
  74.0588150  65.0690002   6.9562163  73.4747849  65.4225006   7.6271706
  74.9325714  65.3516998   7.2261324  45.5679970  39.2979660  66.0173264
  44.7659721  38.7815247  66.0965424  45.6091957  39.5358276  65.0910645
  51.6234550  69.0881348  40.3402290  51.2718430  69.8670578  40.7713737
  51.0636940  68.9655151  39.5735092  27.7945633   7.9451661  71.1371994
  27.0645466   7.3765769  70.8922272  28.3831291   7.3780570  71.6354065
  68.1138687   8.3058529  80.0924149  68.2038651   7.3604321  79.9727859
  68.2272110   8.4400730  81.0333557  42.0320816  64.7975616  41.4297409
  41.1668854  65.1460648  41.6447220  42.6349449  65.2961807  41.9812622
  62.9327583  55.6223068  10.2798567  63.7954903  55.8623848  10.6179218
  62.8885803  54.6723824  10.3890429  60.8124008   5.3499694  31.2180252
  60.5379257   4.4944663  30.8878574  60.6593552   5.9490528  30.4873352
  31.5363865  52.2877464  34.7021523  30.6813927  52.6572075  34.4814377
  31.5046730  51.3924370  34.3650436  71.8107224  30.7084408  11.2412491
  71.8518066  29.8773174  10.7681961  70.9120026  30.7541618  11.5675125
  10.6847239  33.2525940   1.4406128  11.2578154  33.6863976   0.8084632
  11.1619911  33.3006592   2.2689464  53.9889259  40.9103851   0.1659197
  53.7237816  40.8462563   1.0834255  53.2296028  40.5967636  -0.3253077
  70.9697876  56.1203880  24.7903137  71.5856323  56.5699501  25.3689861
  71.3006592  55.2236786  24.7386494  58.7324104  44.9513588  45.2275238
  59.6893387  44.9511147  45.2046928  58.4734383  44.5082283  44.4195633
  29.9481411  46.9714279  52.6320229  30.6950893  46.5396347  53.0465775
  29.3164043  46.2676544  52.4842224  85.7710342  29.3589821  39.3914604
  86.2600174  29.9298553  39.9841042  86.2760849  29.3688316  38.5784111
  16.1215649  20.3269043  25.1150074  15.7769890  20.7253799  25.9142056
  16.6637802  21.0103607  24.7211552  62.9439392  66.5853043  60.2367439
  63.4517441  67.3672485  60.4533615  63.1781044  65.9520721  60.9152794
  26.1056461  32.2371941  76.1069336  26.8441162  32.3284378  76.7090683
  25.3553925  32.0574722  76.6735458   2.5122032   2.5873497  28.8909760
   1.9262421   2.6929650  29.6404610   2.9604099   3.4298680  28.8167763
  82.4361801  53.2682953  26.0687294  81.6998901  53.0193710  26.6274242
  82.1566467  53.0313988  25.1844368   7.6854620  54.0375824  56.7949486
   6.8967800  53.8513451  56.2855072   8.2298079  54.5642776  56.2097015
  86.7293243  32.9024200   8.1572666  87.5810852  32.4696999   8.0982885
  86.1439819  32.3507919   7.6383123  45.2881470   1.5327699  20.6430416
  45.2222443   2.4703372  20.4617786  45.1492729   1.1142305  19.7934704
   3.2481315  59.3731918  36.2106133   4.0734296  59.3162842  35.7290802
   3.1504483  58.5138931  36.6208534  17.1072750   1.9402632  78.1877136
  18.0188274   2.2278903  78.1369476  17.1534462   1.0646033  78.5715332
  52.6678200  10.0119791  34.8955269  52.6651001   9.0574751  34.9672737
  52.1428032  10.3095112  35.6385384  46.2639351  65.3746185  54.9106483
  45.4151039  65.8093338  54.9927330  46.1288490  64.5101624  55.2988472
  76.7891693  66.6316910  51.7678185  77.5931931  66.3581696  51.3262749
  77.0116425  66.6210327  52.6987457  50.0403328  11.3586226  36.1481667
  50.0944939  12.3075886  36.0352020  49.2096710  11.1157589  35.7391968
  44.0839500  66.0382004   0.5907171  43.3626404  66.2833481   1.1702359
  43.9342728  65.1120911   0.4005722  80.2510300   9.8099203  59.3434486
  80.5251541   9.5585299  58.4614677  80.0447540  10.7420158  59.2736015
  20.9712372  14.9871254   5.5566478  21.9050674  15.0232220   5.7637477
  20.7194519  15.9012756   5.4256301  52.2055893  34.4111710  24.8635063
  51.5154533  34.6762390  25.4715176  52.6722870  33.7118340  25.3210583
  80.1953125  43.5505219  75.7981796  79.7617950  44.4025459  75.8466339
  79.5856857  42.9470978  76.2229996  82.2671814   4.3810897   2.6412253
  81.7944183   3.6165032   2.3123863  82.4127426   4.9241223   1.8665260
   5.7611051  15.2074594  68.7685242   5.1636548  14.9290848  69.4626312
   6.5732503  14.7333870  68.9471436  47.6553841  53.5073471  77.9761810
  47.3345833  53.0201759  77.2172470  47.6588631  52.8671265  78.6877594
  60.7544823  34.7087364  28.5745659  60.3437424  34.4425201  29.3971539
  61.1613922  33.9093933  28.2403469   2.2120047  33.7217979  69.4489899
   2.6993599  33.1307907  68.8750305   1.3809353  33.2731361  69.6047440
  73.2090149  35.3774529  28.2648582  72.3871994  35.6802063  27.8786030
  73.4176712  34.5754433  27.7858257   5.4992433   5.4097762  26.7747250
   5.3651881   6.1979680  27.3010464   4.7094684   4.8884625  26.9186687
  70.2085037   6.8323207  42.7352295  70.9443130   6.8867593  42.1254349
  70.5571213   6.3570447  43.4894257  84.2900848  33.9803734  45.7456284
  83.3727112  34.2262650  45.8647652  84.7792435  34.7809067  45.9356270
  62.9119148  54.8620911  30.4701500  63.5080490  55.2278481  29.8166409
  63.2906876  54.0109940  30.6901417  76.4134064  33.0705147  45.6041222
  76.8012772  33.8669586  45.2415390  76.5075455  32.4200211  44.9082565
  75.1602936   3.0955682  88.9692917  74.8822098   3.6463585  89.7010880
  74.3639374   2.9592257  88.4560089  70.5497971  16.9652519   9.1412649
  69.9506073  16.4919224   9.7184658  71.2414780  16.3336239   8.9441357
  33.5271378  66.1999741  26.2499180  33.5691261  65.3301392  26.6472263
  34.2842560  66.2330017  25.6651859  67.5750046   7.5225401  49.9887352
  68.4020081   7.8275871  49.6155777  67.1996002   6.9600496  49.3113098
  55.6064110   6.3946557  36.2135582  56.1128082   7.2013993  36.3082161
  55.8497314   5.8683820  36.9751778  75.6267548   9.2091904  56.8511162
  75.4087601  10.1398468  56.9020119  75.3557816   8.8531008  57.6972847
  17.2126675  57.1479721  31.1944637  17.2793388  57.6082649  30.3578529
  16.7354031  56.3442688  30.9882736  36.7076950  29.5234470  13.2320986
  37.5181541  29.7577057  12.7798700  36.0156136  29.9251003  12.7068090
  45.1451378   8.0611296  28.7140541  44.4905357   8.6795492  28.3895760
  44.9805794   7.2574453  28.2208557   9.8725481  20.0814209  76.5759125
   9.5830984  19.4199028  75.9475403   9.4460678  19.8349876  77.3966522
  68.0571213  39.8685837  49.4039001  67.9865952  40.6989861  49.8747406
  68.9357147  39.8823700  49.0242767  27.8796692  50.9757729  87.3984604
  27.2679634  50.9470253  86.6627884  27.6898708  51.8059769  87.8354645
  47.4598999   9.0814352  81.3126831  46.8874321   9.3309078  82.0381317
  47.9489632   8.3273430  81.6419144   6.5625434  11.7014017  10.4897289
   5.6899886  11.5076723  10.1471672   6.5276222  12.6289978  10.7233477
  71.2340393  11.9242792  28.1014729  70.2809753  11.8380194  28.1226463
  71.3979416  12.6129856  27.4572277  71.7396545  38.2589073  26.3193455
  71.2892990  37.6652145  26.9201298  72.6003189  37.8606682  26.1893749
  75.8332138   6.8210611  68.8610611  75.6776047   7.7423449  68.6530838
  76.6158295   6.8288031  69.4121399  64.2429810  11.4602089  23.6442280
  63.8116989  12.1507540  23.1408653  63.6706543  11.3207150  24.3986912
  72.0829163  26.0460987  26.6768875  71.7464905  26.4221764  27.4902840
  71.8870926  26.7040596  26.0098248   9.1445560  54.8609047  30.1370773
   8.6283331  55.4751778  30.6590099   9.0525064  55.1746979  29.2374706
  13.4023476  64.7638626  18.3786526  13.7163162  64.0306702  18.9078751
  14.1941690  65.1339417  17.9884033  20.2715740  27.0676613  63.5026665
  20.4292793  26.5404892  62.7194366  20.2345047  27.9686146  63.1815071
  18.4151287  18.6501579  76.7738037  18.1895275  19.5179062  76.4386215
  17.6035004  18.3256264  77.1638947  66.8711624  30.5796413  75.8868103
  66.4546738  31.3479843  76.2772141  66.3692322  30.4147453  75.0886230
  44.1249962  53.1550217  34.5369987  44.5560188  52.4628487  35.0383453
  44.8179970  53.5185204  33.9857712  42.7686272   1.7434067  25.1494217
  42.5903168   2.6480234  24.8923111  42.2960281   1.2142020  24.5069065
  66.5350647  67.6927719  31.1614761  66.6839523  67.3739090  30.2713146
  66.3635025  68.6284561  31.0551567  76.0827789  37.1228600  44.2514648
  76.5183716  36.2735367  44.3231316  75.1558075  36.9291382  44.3908234
  78.6602325  15.1309004  54.4457016  79.4101181  14.5435686  54.3511696
  78.1381302  14.7417202  55.1472588  26.3048439  39.4588699   5.8460999
  27.1337585  39.5681458   5.3800626  25.6551781  39.8761024   5.2803431
  54.4340668  23.1100540  29.6776752  55.1392288  23.6471386  29.3164005
  54.8825989  22.3724651  30.0912132  79.2695389  13.4068060   6.9483480
  78.4519043  13.9043941   6.9590554  79.2529907  12.9368153   6.1146417
  10.4697752  44.5124512   4.9685388   9.6988010  45.0394669   4.7585716
  10.4412718  43.7871399   4.3445654   6.3827310   4.2634697  42.2944679
   6.4586115   5.1706543  42.5902557   6.3983388   4.3209391  41.3391228
  30.6343231  50.6956100  53.2652855  31.3125534  50.7497368  53.9385643
  29.9360809  50.1805763  53.6695518   4.6458211  16.6811981  88.8940506
   3.9220915  17.2958336  89.0151749   5.3929605  17.2333679  88.6635666
  54.3878059  40.6029778  55.3160934  53.8201523  39.9871483  54.8526840
  55.1019630  40.0626335  55.6540833   4.2926188  32.9737778  80.8855362
   4.4148922  32.7629547  79.9598770   4.3227754  32.1266327  81.3301315
  66.0111237  67.6316833   3.4082947  65.6577072  66.7957764   3.7125738
  66.2425613  67.4748611   2.4928308  60.5222168  14.7561226  48.2644043
  60.9360123  14.9828672  49.0972252  61.1608505  14.1949110  47.8246078
  21.7794552  70.9852142  77.0010452  21.2426090  70.2064362  76.8543091
  22.3134727  71.0604782  76.2102280  50.4727058  41.8589706  59.0784912
  50.3437920  42.0840416  58.1571007  51.2822113  41.3482742  59.0892982
  76.8654327  68.0904541  57.2325630  76.7598877  68.4193878  56.3398743
  77.6068954  67.4874191  57.1795197  62.3751717  42.8954201  88.0555878
  61.6447563  43.5096970  88.1290359  63.1518097  43.4522400  88.0006866
  82.0501022  71.6445389  17.4361248  81.8530807  70.7869720  17.0592899
  82.6862717  72.0303497  16.8339024  63.0981522   3.0401955   9.2116537
  63.8726082   2.5456018   9.4796629  62.3619385   2.4675856   9.4269209
  54.7388535  47.4051895  64.2396698  54.7533684  48.0765953  64.9217529
  53.9600563  47.6073189  63.7211609   9.3141747  47.6573944  81.4448547
   8.7501554  47.8964844  82.1803436   9.0615978  48.2584877  80.7440491
  78.7585297  38.8221359  15.9902048  78.0742569  38.7587166  15.3238869
  79.4144821  38.1787338  15.7218838  21.2500763  30.8379688  30.3287430
  20.9029789  31.7273407  30.3978386  22.1962318  30.9415684  30.4301662
  61.9467545  47.4665031  69.7896881  62.5567818  48.1135712  69.4355621
  61.4802094  47.9319572  70.4838867  25.4004936  62.6506310  69.7273788
  24.8828125  63.4122086  69.9886017  24.8823414  62.2334671  69.0391006
  46.6457443  13.4715548   6.5118341  47.2422409  12.8829851   6.9744434
  45.7751694  13.2230062   6.8225656  73.0661926  57.7612305  12.1691656
  72.1178055  57.7043686  12.2855806  73.3183212  56.9009590  11.8336067
  64.2339401  13.3084106  84.2574844  63.8007927  12.6088533  84.7465973
  63.7900276  14.1081810  84.5395126   4.3520398  44.4473000  71.0220413
   4.0243578  45.3458748  70.9843979   3.8258257  43.9732895  70.3781128
  62.6939049   5.1364584  55.3110924  61.8174667   4.8708901  55.5895920
  63.2840385   4.6849942  55.9145470   3.1282310  51.5794449  51.6958389
   3.8060155  51.1515808  51.1726074   2.3659627  51.6144485  51.1179543
  36.1980286  40.2809601  84.0455399  35.5028229  39.7930603  83.6040878
  35.8965874  41.1894035  84.0355530  45.1172104  31.8330250   5.8535347
  45.3656616  31.4555416   5.0097275  45.1664505  31.1003284   6.4675078
  84.9965057  57.4888763   5.0809450  85.8382568  57.3146553   5.5020499
  84.9191513  56.8102226   4.4103675  64.9826508  20.7969227  22.4315376
  65.2183380  21.2838230  23.2212276  64.0335083  20.6884365  22.4913864
  49.8370171  52.3792992  74.9888306  50.4583282  53.0762520  74.7779846
  50.1529503  51.6203651  74.4984818  65.4827194  48.1558189  67.5367966
  65.6892624  47.7763252  66.6826553  65.8391190  47.5314827  68.1687851
  11.1942282  67.9334335  47.0178452  11.5759506  67.4645920  47.7599411
  10.6364069  67.2859421  46.5867729  41.6261902  11.3191929  13.8067999
  42.2744675  10.6150026  13.8158884  42.0912590  12.0680885  13.4338427
  44.8260765  51.5928955  88.0144882  44.0142479  51.1206284  88.1992264
  44.8362656  52.3091774  88.6493607  43.2537804  56.4598923  42.9801178
  43.7072945  56.3248558  42.1480598  42.8122520  57.3030357  42.8781586
  77.8767471   3.2656121   8.3786573  77.3677902   2.8611386   9.0812235
  78.7854996   3.0464385   8.5844774  83.8133926  37.0231476  42.6379890
  84.3128891  36.7337608  43.4015274  84.2812195  36.6507378  41.8905373
  67.3914261  47.8009224  32.5258369  66.9792709  46.9448547  32.6420555
  66.6909485  48.3604393  32.1904297  82.7471695  65.9101868  58.6499634
  83.0337219  65.0459442  58.9452667  82.3275146  65.7476501  57.8051529
  13.3997393  39.5448952  39.1729355  12.4516668  39.4770012  39.0598869
  13.6836176  40.1287575  38.4695473  65.4129105  64.6965637  77.7978058
  65.4620743  64.6605835  76.8425522  65.3036423  63.7843781  78.0665436
  43.9908867  37.2169266  80.8900146  44.0607109  38.1494217  80.6855316
  43.0501480  37.0402603  80.8843155   5.3007178  69.9081116  40.4466019
   5.4144197  69.4496231  39.6140823   6.1728382  69.9080811  40.8411140
  82.4711380  15.8656807  50.2511940  82.6324310  16.7585545  49.9462471
  82.6711502  15.3144045  49.4946747   7.4904828  35.3763962  61.7216873
   7.3396745  36.3203278  61.6718559   8.1190777  35.2716522  62.4359207
   0.5132809  49.3115120  45.6183014   0.9898705  48.5177345  45.3753738
   0.6841345  49.9223175  44.9013939  60.0827980  46.8839722  39.3611794
  59.9416275  46.9090271  38.4147797  59.5102692  47.5687218  39.7069550
  52.4179688  60.0625420  47.9261703  52.4555817  60.3766251  47.0227509
  52.5263596  60.8506737  48.4584579   2.8620546  22.2777424  54.7717705
   1.9269153  22.3777943  54.9499168   2.9941370  21.3317490  54.7094803
  38.8181305  53.5139465  74.0144882  39.0974426  54.4164734  74.1683044
  39.2144547  53.0154800  74.7291183  65.0629578  56.5437241  41.1588249
  64.4489365  55.8868790  41.4871025  64.5241623  57.1320763  40.6298866
  78.9251938  17.3044376  84.8290482  79.4561539  16.9312668  85.5326538
  78.3490143  17.9292164  85.2693863  15.6227722  27.4548435  20.8435802
  15.0422411  28.1077080  20.4524479  16.4206638  27.4974117  20.3165226
  75.0179138  35.4178123  61.5205612  74.7170563  35.2284622  60.6318207
  74.3739090  36.0367584  61.8646622  77.4213715  43.8716354  71.0800171
  77.4132919  43.0353241  70.6144562  78.3209076  43.9620094  71.3944931
  53.3704185  24.0880165  43.6968536  52.6644897  24.6697140  43.4148598
  53.3265495  24.1041279  44.6529121  27.5025444  28.6772881  48.0184822
  27.9156799  27.8142490  48.0452156  26.8145924  28.5931587  47.3582726
  55.5413132  -0.1016974   7.2607026  56.0017586   0.6448905   7.6438813
  54.7806702   0.2835904   6.8257213  31.7116928  43.4430466   8.0807028
  31.3420486  44.2897110   7.8301935  32.2097321  43.1625328   7.3129134
  11.5415850   8.8241673  25.3146725  11.3356495   8.6533546  26.2337189
  11.1484890   8.0911932  24.8409061  70.1642914  38.5034065  81.5908508
  70.3505249  39.4390450  81.5126038  69.3533783  38.3785515  81.0978317
  85.9616776  55.9440765  49.0187645  85.7626114  55.3736610  48.2763176
  85.2676010  56.6031380  49.0073013   4.1831565   6.4809198  43.8877983
   5.0772219   6.2327127  43.6527023   3.7544277   6.6541152  43.0496902
  50.7558975  32.4885406  57.1013451  50.9789543  33.0353889  56.3480644
  49.8894386  32.7935333  57.3705368  48.3753014  62.2051125  30.3228436
  47.5096588  62.6059418  30.2438889  48.2891884  61.3602066  29.8813114
  79.4062347  50.7751999  30.1629753  78.4801102  50.5416756  30.0998096
  79.5058441  51.1220818  31.0495319  67.9136047  38.4471359  52.8571625
  67.4513779  38.2731628  52.0372162  68.3226013  37.6118202  53.0834389
  85.4816513  22.0027447  22.8074894  85.0840683  22.6108360  22.1842823
  86.2033234  22.4965630  23.1968002  12.1744614  17.6358738  17.8102379
  11.8931255  17.6304741  18.7251434  12.2384310  16.7105274  17.5738640
  57.8232689  25.5644417  13.7672749  57.7067757  25.5673447  12.8171949
  58.1712494  26.4331303  13.9685688  21.1665230  25.7257633  29.5920067
  21.2552929  26.4442291  30.2182312  21.7986813  25.9293728  28.9026947
  50.4669685  12.1969728  71.3133774  49.5176392  12.0850086  71.3630600
  50.6515846  12.9363155  71.8926239  27.2603760   9.0778465   4.5789480
  26.5522900   9.5664330   4.1592717  27.1619968   9.2674923   5.5120010
   4.4351559  35.2928886  86.9998779   5.3109126  35.1200485  86.6543274
   4.4820566  35.0231934  87.9171066   1.3673440  10.5400639  14.3784361
   1.0707728   9.6330070  14.3041019   0.7134488  10.9608698  14.9366255
  52.9913826  68.4770966  47.8432159  53.4210510  67.8100510  48.3786278
  52.3283882  67.9961472  47.3478813  20.1672440   4.4737821  14.4215107
  20.5349655   3.6862402  14.8224983  19.4422474   4.7190642  14.9963570
  26.6315346  38.9887085  22.1357193  25.9275589  38.3462830  22.0466175
  26.1996613  39.7713432  22.4780636  40.7406158  71.0346832  24.8765945
  40.4733887  71.5479813  24.1141357  40.2697372  70.2063904  24.7846928
  18.1654453   4.2679687  60.7128181  18.5001698   3.8707671  59.9088135
  18.5065231   3.7129655  61.4141541  22.7614613   7.9569817  70.3489456
  22.2723675   7.5484509  69.6347198  22.3109188   8.7872448  70.5035629
  41.0655899  31.6213074  80.9962387  41.3648567  32.0767059  80.2092896
  40.5547791  30.8823586  80.6656876  54.0202408  45.7829170  14.9929905
  54.5973473  46.3237228  15.5321665  53.2221527  46.3031845  14.9001780
  21.9909153  70.5501556   4.5462394  21.7540150  71.3462219   5.0220542
  22.8151360  70.2696838   4.9440184   8.0188694   4.7854753  65.6590347
   7.4603806   4.6684318  64.8905182   7.9855971   5.7251267  65.8384247
  66.8405991  31.1539536  34.8845596  66.2326813  31.8766365  34.7283592
  66.2847061  30.3752251  34.9128571  46.9656944  31.8090973  21.9006252
  46.2549324  31.2472401  22.2094402  47.7628937  31.3777885  22.2083263
  61.1483688  29.3757191   5.5611563  62.0047684  29.1248531   5.9073968
  60.5859642  29.4355106   6.3333979  19.2700825  43.1806068  65.7654343
  20.1588402  43.4484100  65.9991455  19.1243439  43.5632515  64.9002304
  43.3534889  67.4311142  59.4213257  43.5426331  67.3543930  60.3565102
  42.3987617  67.3904190  59.3659325   9.0055094  35.5323143   0.6175034
   9.3527431  34.7150612   0.9749423   8.6737747  36.0056076   1.3805089
  66.3627319  31.3451805  64.1428070  65.6268082  30.7572842  64.3131561
  66.1275558  31.7942715  63.3308678  12.4746637  61.7236557  70.3991318
  12.4680672  61.6024704  69.4496613  12.9715700  62.5305519  70.5341568
  74.5476761  45.8173294  27.6429462  74.9645081  46.5432129  28.1072502
  73.8005295  45.5793877  28.1919289   3.1793828  24.1452007  52.7804070
   3.3140705  23.3319550  52.2938690   3.2676928  23.8920021  53.6992798
  58.8123474  22.0199928  58.9771194  59.6231651  22.5280495  58.9510231
  59.0652695  21.1853600  59.3716469  67.1735687   3.8153009  73.6701660
  66.3952866   4.3514562  73.5183792  67.9065323   4.4218445  73.5647964
  23.3726864  22.9560852  66.1980972  23.7986164  23.7080441  65.7865448
  23.9699020  22.6969872  66.8998337  52.6995239  54.8921127  34.3046913
  52.0669861  54.1823730  34.4160118  52.5934448  55.1668243  33.3939133
  33.8499336  54.1065140  57.9568253  33.4794312  54.4485359  58.7704468
  33.1392784  54.1813812  57.3199615  23.0346203   7.9175167  78.8822708
  22.1135502   8.0949202  78.6915054  23.1900215   7.0444837  78.5218582
  84.4284592  29.5709019  22.6858139  84.6038284  30.4866810  22.9022141
  83.4837189  29.4733372  22.8048897   0.6660736  14.7613926  26.8655510
   1.3667415  14.1706972  27.1419106   0.0456764  14.7546329  27.5944500
   0.9142058   3.0725632  72.0726547   0.8757764   3.5692601  72.8899918
   1.1642399   2.1884749  72.3411713  69.1595459  43.3288422  49.9941826
  68.5695877  43.1224785  50.7191620  69.9427414  42.8062172  50.1665192
  15.6859789  48.5327377  64.6486511  14.8284883  48.7667503  64.2934341
  16.3121796  48.9064102  64.0285873  24.0555763  25.4814129  77.4405899
  23.4444504  24.9043179  77.8985443  23.6043987  25.7120342  76.6285095
  86.3796387  63.9651985  59.1087303  87.2736282  63.6395340  59.2134209
  86.2180862  64.4798889  59.8994446  68.3118057  32.9688644  78.3065872
  68.7452545  33.4958229  77.6352768  69.0270691  32.5212517  78.7585602
  14.4021120   3.4942758  15.4287252  14.1157618   3.5720494  16.3387737
  15.3267975   3.2541902  15.4882774  19.9671841  14.6202927  65.9717026
  19.1870117  14.8408527  66.4805450  20.1016312  13.6862621  66.1321487
  73.8853455  62.0026779  68.7733917  74.3913956  62.1281662  67.9706421
  74.3593597  62.5047760  69.4362946  65.0804977  12.1128025  45.5430565
  64.3884277  12.7525244  45.7104797  64.8487167  11.3609858  46.0882912
  66.9595490  34.3986511  84.1366119  67.7290802  34.2758789  83.5807571
  66.9415054  35.3386307  84.3164749  32.7279854  57.6973267  66.6684418
  32.2954826  57.4068108  65.8654633  33.2378807  58.4625053  66.4024734
  15.5970688  32.8128662  12.8318892  15.9631319  32.0096512  13.2021313
  15.2677460  32.5517845  11.9718800  44.7956963  51.4311829  65.6051025
  44.8292236  52.1469269  66.2397842  44.1364174  50.8317299  65.9547272
  27.8864594  36.9757576   9.0796986  28.0067368  37.9253044   9.0684805
  27.5953102  36.7817230   9.9706612  68.1111450  34.5322304  17.0036182
  68.6151962  35.1318855  17.5536919  67.5106049  35.0988960  16.5193939
  18.9553356  58.0052872  54.2027626  19.8861465  57.7842369  54.1717720
  18.7587872  58.0839043  55.1362610  40.9927330  58.6954117  31.9691200
  41.6430550  58.2531853  31.4234562  40.4052467  59.1206932  31.3444386
  68.4308319  64.3950882   4.9365497  67.9949188  65.1909027   5.2413120
  69.3640747  64.5741730   5.0515008  48.4305954   8.3551188  48.3806229
  49.3759613   8.5048180  48.3704910  48.2388306   7.9765797  47.5226212
  31.7230072  70.6597137  25.3815689  31.5590534  71.4397736  25.9115276
  32.3858948  70.1726151  25.8710098   1.2644432  53.4928398  63.7855873
   1.2788082  52.9669418  62.9859276   1.0694964  54.3804741  63.4850311
  50.4020081  62.6347961  20.6685219  51.2105446  62.9228668  20.2448311
  49.7775574  63.3397560  20.4972878   4.7582445  70.3427734  76.3775177
   5.2639270  70.6602402  75.6293640   5.2722144  69.6120987  76.7212982
  38.7935143  48.1532288  21.1776943  39.5985718  47.6491661  21.2961464
  38.7836380  48.3733902  20.2462082  14.7523060  12.8587952   5.9616899
  14.9362221  12.1177845   5.3843603  15.6003885  13.2866068   6.0798616
  73.3721085  30.8445702  26.6304054  72.7151718  30.8365860  25.9342690
  72.8629684  30.8902721  27.4396782   2.4512491  59.3399849  28.6457253
   2.5587113  59.2039223  29.5870914   2.7771945  60.2269592  28.4931793
  84.6548615  42.1530228  32.0790405  85.0925903  42.8917160  31.6560078
  83.8259735  42.5139465  32.3935471  27.3045731  60.2238197  38.0226097
  28.1598816  59.8482018  37.8138237  27.5053024  61.0033836  38.5405083
  44.1691666  36.5643921  36.3998718  44.4027748  37.4103394  36.0177345
  43.5447197  36.7788773  37.0928993  62.6826744  32.0554123  84.3847351
  62.7461395  31.7400894  85.2862701  63.5778770  32.0046806  84.0496674
  52.3286743  13.2102461  69.4376602  51.6457710  12.9305782  70.0473022
  51.9100838  13.8838930  68.9017410  22.6711445  33.5533714  82.4465866
  21.9757042  33.9449234  81.9181213  22.2574158  32.7988472  82.8658142
  37.4030991  49.4194565  81.4081116  37.0712013  49.6924858  82.2634048
  36.8920860  49.9288673  80.7791443  32.3106499  54.3856659  53.1366577
  33.2045860  54.6004066  52.8702087  31.9917068  53.7969780  52.4525833
  40.6507492  34.4366302  69.9242859  39.8773155  33.8738632  69.8878021
  41.1617050  34.1917953  69.1527863  15.1474600  46.1205788  56.9972878
  14.9828491  45.7723846  56.1209908  15.9882717  46.5717468  56.9216957
  77.0572662  56.9184837  85.3348618  76.9029388  57.5070229  84.5959167
  77.7065353  57.3730507  85.8715591  22.7565937  20.9114304  51.7320862
  23.4105320  21.1225929  52.3984261  22.7457924  19.9547691  51.7017937
   3.8377151  22.4034805  14.9547606   3.5751491  22.3379383  14.0366125
   4.1661487  21.5312309  15.1728029  67.2639160   0.4944967  46.5317497
  66.3531265   0.5879452  46.2525597  67.7202072   1.2212317  46.1076202
  66.7505341   0.8386033  52.5660782  67.4333344   0.2662285  52.2162056
  67.0733719   1.7246320  52.4018822  82.1354141  34.5617218  67.6644821
  82.5662308  35.4163132  67.6820679  82.5734787  34.0584908  68.3508377
   6.4011474  39.0448494  86.1350632   5.8874354  38.6726723  85.4182510
   6.2141061  38.4779282  86.8832932  76.9490585   9.2941275  24.8863201
  77.2600555  10.1432333  25.2002201  77.6997375   8.7098379  24.9927444
  86.2354584  40.9578247  28.5502224  85.9979706  40.9181480  29.4766445
  85.9938965  40.0987358  28.2040329  74.4883118  67.1728821   0.0372146
  74.7987137  66.3678665   0.4517414  73.5717545  67.2418594   0.3044167
  66.3282318  25.0721645  61.6143723  67.1965714  24.6834164  61.7196884
  66.5007095  25.9882088  61.3967743  68.7124329  40.8097267  16.8635883
  68.2339478  41.6154022  16.6682205  69.6322174  41.0393333  16.7312469
  59.5000420  27.0483379  26.6850624  59.5324364  27.3566322  25.7794476
  60.2892952  26.5161095  26.7852669  59.0190887  37.1855392  63.0155830
  59.5563774  37.0987511  62.2281685  58.6110916  36.3263397  63.1230431
  85.5475998   4.0435872  84.0029602  86.4213181   4.3189416  84.2804871
  85.0863953   3.8514900  84.8194275   7.2492146  35.6402740  71.4081421
   6.8704848  35.0537758  72.0629807   6.4931669  36.0501862  70.9879074
  72.9479752  12.1485434  87.7665634  72.9021225  12.8933620  87.1670837
  72.5813370  12.4784393  88.5869141  68.1368332  27.2533398  88.9197922
  67.4277649  27.8932133  88.9831390  68.8283234  27.7088566  88.4396057
  77.0894623  12.8350554  48.0533943  76.5363464  12.3091888  48.6311150
  77.3699265  12.2257853  47.3704872   8.8376036  44.2582283  64.5189056
   8.7393970  44.9867134  65.1320114   9.4281044  43.6495399  64.9627914
  18.9641285  60.1745186  87.0510635  19.3410473  60.6842346  87.7682495
  18.7022381  59.3479233  87.4565125  40.1516685  16.5379543  18.0250149
  39.3888435  15.9911442  17.8370571  40.3579788  16.9566612  17.1893406
   9.4479933  29.7395554  18.7189922   8.5508642  29.4654598  18.9094181
   9.3859825  30.6851597  18.5840034  73.8171997  13.9213028   0.5371759
  74.0765305  13.2282553   1.1443534  74.5414276  13.9769440  -0.0862232
  53.4692039  39.3624153  83.6179123  52.8057823  39.1129951  84.2612534
  52.9698448  39.5786171  82.8304291  39.6940536  64.6099625  63.7242508
  39.0268784  64.0608063  63.3125114  39.6679268  65.4294891  63.2303581
  67.6184769  11.2270336  60.1422539  68.4604797  11.1378441  60.5887032
  66.9670258  11.0980940  60.8316154  66.4012680  51.0297165   7.0516896
  66.0239487  50.7186394   6.2288332  66.4147568  50.2568779   7.6162891
  77.8749542   7.0246215  56.3212318  77.5632629   6.5983081  55.5228996
  77.0806732   7.3505306  56.7444801  31.6810760  68.9502869  32.8267097
  32.2439384  68.2013702  33.0230064  31.2852421  69.1793213  33.6675987
  63.7248840  52.7897148  41.5519257  63.2694359  53.5834465  41.8326111
  63.0250473  52.1936417  41.2851639  24.6434689  42.6274986  45.4210968
  23.7635765  42.6596680  45.0456161  24.9871998  43.5128822  45.3020401
  80.0994949   4.0842395  37.3828125  80.8774185   4.1947374  37.9294815
  80.2776413   4.6107163  36.6035042   9.6925077   5.4647450  28.5632286
   9.0958757   4.7624340  28.8221111   9.4081020   5.7080431  27.6822338
  72.0243073  60.4426765  10.2041988  71.5627747  61.2090492  10.5446348
  72.0704651  59.8411942  10.9473791  43.8147621  51.4143143  26.3886623
  43.3464241  52.2490425  26.3777561  44.7083244  51.6443405  26.6433563
  11.4107485  10.5135260  23.0202808  12.0446196  10.9560366  23.5847473
  11.0162239   9.8454638  23.5808830  46.2145653  44.6850624   2.0197108
  45.4472656  44.1632652   2.2546771  46.9283180  44.0497131   1.9638673
  44.9398460  13.3270397  70.7650909  44.3028908  13.5416775  70.0835800
  44.9738541  14.1090698  71.3160019  83.7111969  47.1386223  88.5327911
  83.9328613  47.9739914  88.9441986  84.5340958  46.6497307  88.5248718
  57.1562042  26.6385117   5.6212859  56.2834854  26.3371525   5.8738256
  57.2929077  26.2714748   4.7478857  41.9461327  51.5350456   1.1060028
  42.6420898  50.9371643   1.3787849  42.3486328  52.4028168   1.1406199
   9.8185587   1.8942019  25.3104076   9.7599716   1.5734366  26.2103558
   9.5842876   1.1388357  24.7711754  31.7472992  44.8516731  56.1902122
  31.8694630  45.5890121  56.7882423  31.9198952  44.0775299  56.7260704
  75.1679535  59.0646858  83.9995651  74.6871109  59.8831062  84.1228867
  75.2221985  58.9595566  83.0497055   0.6445346  56.1228600  73.5646210
  -0.1024774  55.7254601  73.1170959   0.2588950  56.5901413  74.3056793
  25.2803173  54.9441605  43.3558350  25.2095222  54.1626930  42.8076324
  24.8499279  54.7014236  44.1756401  83.2565842  49.6023712  12.5964117
  83.2094803  50.4995651  12.9266510  82.4531250  49.1885719  12.9117908
  39.3652267  60.1713448  30.1950111  38.5725327  59.7642899  29.8454781
  40.0446053  59.9619293  29.5540543  71.8690948  42.4270287  59.0031357
  70.9130173  42.3941994  58.9704666  72.0837784  43.3414803  58.8189659
  54.6776962  11.2037268   1.3342539  53.9648895  10.5732622   1.2310336
  54.2472878  12.0052900   1.6317027  34.5186272  71.6828995  22.6843262
  34.3254089  70.8719330  23.1546764  35.4706497  71.6811142  22.5849075
  67.3886871  45.8079948  41.8436508  66.7136154  45.2387543  42.2130661
  67.0730515  46.0140762  40.9638023   6.0927153  69.8797455  27.2924213
   5.9636626  69.8518295  26.3443718   7.0432878  69.8792191  27.4048634
  82.1831360   9.0288076  83.8318176  82.1781464   9.8815422  83.3970184
  81.8132782   9.1994553  84.6980209   7.6407781  34.5372925  10.6873074
   7.5665932  34.9142876   9.8106079   8.5712748  34.3340302  10.7826691
  40.7853165  68.5956802  82.8219528  41.4269867  67.9017105  82.9732666
  39.9370880  68.1634216  82.9214020  27.9647961  66.1251984   8.1831732
  28.7055035  65.7356796   8.6477833  27.2061653  65.9252853   8.7315769
  76.3013535  43.1165199  58.5331192  75.5271683  42.5547752  58.5693398
  77.0250778  42.5435410  58.7863808  43.8742790  69.1030121   2.6301908
  44.7482147  68.7215881   2.7137313  43.3814964  68.7357101   3.3640084
  60.8714294  57.1441879   3.2990530  61.6303482  57.4953651   2.8332717
  61.2413902  56.7152405   4.0706496   5.0773845  22.8401985  65.8758011
   4.6321735  23.0199757  65.0477371   4.8049121  23.5528183  66.4538727
  56.2802582  20.2036457  75.5682678  56.7527504  19.3813553  75.6979752
  56.3908768  20.3992462  74.6378174  65.9869003  71.0839233  86.6736450
  66.3504562  70.6718826  87.4574051  66.3853531  70.6070404  85.9455948
   1.7029755  38.1449661  60.5420685   1.9854798  38.5385666  61.3675995
   1.2165884  37.3631248  60.8035698  39.3652306  55.5065765  31.7732086
  39.0477829  55.3737106  32.6664085  40.3039818  55.3264008  31.8233700
  79.1959991  23.8965034   3.7251744  79.9383011  23.6659527   4.2838025
  79.4576645  24.7159100   3.3052514  14.5690689  46.8033028  53.6172447
  14.4756145  46.5622101  52.6956291  14.6111536  47.7595596  53.6115799
  48.2676888  15.6647968  85.3993454  48.5741844  14.7750959  85.2240677
  47.4211884  15.5460014  85.8301163  78.7790604  48.6649094  47.4341736
  78.7972641  48.0880203  48.1977844  78.8732376  48.0751457  46.6861496
  66.1487961  71.0745468  28.6400795  65.3311157  71.1061859  28.1434593
  65.8716660  71.0010986  29.5533352  75.7471848  41.0680847  66.6150055
  75.5754700  40.2133942  66.2197189  76.2304001  41.5497398  65.9436264
  68.7637787  43.5590286  82.6972885  68.1365204  43.3762207  83.3968201
  69.0731659  42.6962128  82.4214935  70.2059860   8.1763868  12.5886364
  69.7846069   8.0368519  13.4366941  70.1441498   7.3288288  12.1481209
  21.5589752   0.9587097  49.1106758  22.4437580   0.6847368  49.3521881
  20.9850426   0.3390261  49.5610352  54.3358803  10.5735035  71.6374969
  54.2387390  11.3544378  72.1824188  54.5630226   9.8777370  72.2543869
  53.0783119  20.6620617  76.3955841  53.0514183  21.4679413  76.9113998
  54.0093422  20.4487820  76.3328857  34.8423004  71.3832092  47.2346344
  33.9130745  71.5488281  47.3938255  34.8691063  70.4976654  46.8722420
  64.0783310  53.7320137  64.3106613  63.7231674  53.7173080  63.4219170
  63.3279800  53.5360374  64.8717270  36.9022865  44.3813210  77.7995377
  37.7542648  44.1348877  78.1595917  36.9000931  45.3382301  77.8229294
  56.2392693  69.8797226  29.4317970  56.0322533  70.7166290  29.0159130
  57.1718559  69.7506180  29.2590466   7.6867743  23.4026146   6.1580453
   6.8596425  23.8530350   5.9871464   7.4527893  22.4749031   6.1869354
  39.1845970   0.2483894  84.6008377  39.8771362   0.1630105  85.2560730
  38.3765182   0.0695330  85.0817261  62.8251343  56.9143639  74.1631470
  63.6402245  56.4183846  74.0865555  63.0062218  57.5702248  74.8364105
  84.0905533  19.1482258  69.9488449  84.1381760  18.7370949  70.8119431
  83.3698883  18.6977844  69.5084152  64.9961090  65.1036224   3.9825292
  64.0992279  64.9407043   4.2745752  65.3823929  64.2319565   3.8975730
  69.4353409  17.3744526  60.7127838  69.5021286  16.7833691  59.9628563
  68.5823517  17.1758556  61.0990601  17.2835808  60.7811890  61.9191246
  17.2302799  61.5785522  61.3922462  18.0341587  60.3072243  61.5610428
  28.9288692  57.6297188  77.0820923  29.3543453  57.5501442  77.9358368
  29.1430569  56.8132591  76.6307144   4.9148374  22.2821445  22.4486828
   4.2490926  21.6090889  22.3072186   5.7001648  21.7939816  22.6960487
  62.5211983  43.7503548   5.4735012  63.3632622  43.8494148   5.0292611
  62.7500496  43.6130104   6.3927379  19.2991104  39.3045502  35.5907516
  19.0344715  40.2238503  35.5577965  18.8358364  38.8955956  34.8597488
  69.3935623  62.4683952  68.6805038  69.9406738  63.0104370  69.2489090
  69.0300140  61.8015175  69.2630310   1.5161419   4.7931209  34.8444290
   1.3155094   5.7268596  34.7803154   1.2217063   4.5444903  35.7206268
  12.2610683  34.6844711  85.4054489  11.6710873  34.0838852  84.9499893
  11.6916571  35.3861389  85.7211456  14.4809799  66.8731155  24.8725605
  13.7001562  66.8900299  24.3191528  15.1737356  67.2357788  24.3204803
  62.2130737  65.2944260  72.5836563  61.6969719  65.4467773  73.3752747
  62.9349136  65.9201279  72.6442337  66.9101257   1.5306803  72.2931519
  67.2254181   1.8033307  71.4314728  66.8605423   2.3424501  72.7979279
  62.3692856  71.0111618  35.0783195  62.6911469  71.4537125  35.8636780
  61.7876663  70.3271866  35.4101830  59.4676208  27.3259907  51.5722847
  58.9788017  26.5044250  51.5241127  59.3038254  27.6505833  52.4577446
  10.8947535  42.4651260  21.9414959  11.4394455  42.6958504  22.6940289
   9.9988070  42.6320190  22.2341690  43.7826385  37.0752182   7.2223191
  44.2769356  37.5800056   7.8681455  43.9777756  36.1618538   7.4318790
  10.2214031  42.2760773  78.2779617  10.4025049  41.5014572  77.7456131
   9.8156147  42.8946190  77.6705322  29.1056385  66.9920349   5.6309137
  30.0603333  66.9771729   5.5633187  28.9331799  67.0735245   6.5689168
  48.4575500  15.6623936  33.1504478  49.3583946  15.9025507  33.3673325
  48.2846756  16.1061153  32.3201103  46.3335152  68.2293777  69.8351898
  46.1147003  68.6226044  68.9903717  47.2742424  68.0601044  69.7841187
  13.8976927  53.0096474  22.2172966  13.0570602  53.4391060  22.3758354
  13.8825645  52.7900925  21.2857399  27.3305779  30.6971245  23.9374199
  26.9110222  30.6569462  23.0780067  28.2594662  30.8246956  23.7447491
  19.0157814   1.6478653  74.9520187  19.7883778   1.3641458  74.4633179
  19.2322559   1.4691385  75.8671341  60.2273788  40.4340439  76.3905716
  59.3792839  40.1472931  76.7292938  60.5736389  39.6682625  75.9324036
  54.3648186  46.2676353  68.6564484  53.9599152  46.1344299  67.7994003
  54.8688774  47.0756569  68.5602341  83.5108795  69.3650131  24.8860855
  83.9208984  69.0224380  24.0918827  84.0190811  70.1475601  25.0995770
  65.4269562  42.3925323  50.6523285  66.1723099  42.5825462  51.2220421
  65.1551895  43.2481079  50.3201103  62.7737617  28.3322506  55.3999290
  63.0404358  27.4137592  55.3613319  61.8200302  28.3017807  55.4754028
  74.4973602  65.8159180  55.4406776  74.1908264  66.6204758  55.0223885
  74.1878510  65.1148605  54.8671303  76.3149109  65.8599472   8.0158749
  77.1198807  65.5138245   8.4011850  75.8778076  66.3103104   8.7386055
  56.8964577  29.0926323   8.8443232  56.0834579  29.3773251   8.4269361
  56.6759262  28.2550716   9.2518663  64.0448837  64.9116440   7.7826438
  63.9271812  64.3569870   7.0114522  63.4861908  64.5145569   8.4507875
  69.5872040  13.3737278  85.9176941  69.8887177  13.9483633  86.6213379
  68.6538773  13.2516212  86.0915222  84.8437805  21.3710766  62.0972710
  84.5090942  21.6087532  61.2325630  85.0658569  22.2074833  62.5063438
  78.2967606  25.4910297  11.7450247  77.3810043  25.2569218  11.5939465
  78.3615189  25.6051159  12.6931925  37.5325851  35.6883736  82.9353409
  36.7097206  35.7543564  83.4198761  37.2811356  35.8054657  82.0192108
  14.2866201  15.3790684  83.8749390  15.0403042  14.8003359  83.9900970
  14.6558876  16.2617226  83.9031525   1.1363218  59.4609032  47.5221825
   2.0455987  59.5390358  47.2334900   1.0676861  58.5672874  47.8582954
  62.2794876   4.3516703  87.6054840  61.6648598   3.7617702  87.1690369
  61.7472153   4.8180199  88.2500305  69.5987778  18.1377640  45.9529419
  68.7149200  18.4028893  46.2073860  70.0747681  18.0658627  46.7802849
   1.0314378  17.7327442  70.1257324   1.4514716  17.1552620  69.4883041
   0.3355642  18.1676006  69.6328964  60.4801254  51.7632370  58.1462479
  60.4755898  50.9186783  57.6957741  59.8857193  51.6428833  58.8868065
   3.7794721  60.8799324  32.4202690   3.3280957  61.7104530  32.2695122
   3.1185932  60.3182068  32.8251572   6.1314116   4.2899680  87.1498260
   6.6650972   3.5098479  86.9987488   5.2474928   3.9515135  87.2925415
   4.6271806  63.7851067  79.5031204   3.9928157  63.6659508  80.2099609
   5.4322200  64.0527802  79.9464035  52.2298508  46.4742813  53.4531555
  52.7077293  45.6465149  53.5047760  52.3765488  46.7801170  52.5580711
  47.2905655  37.7496681  31.5207100  47.5487976  37.4296417  32.3850746
  47.4703484  37.0176544  30.9307384  85.1889343  52.1660881  40.5882759
  85.0627670  51.7405167  39.7402191  85.1153564  53.1017113  40.4000473
  58.3986397  56.3777695  45.2429237  58.4982834  57.2813148  44.9430809
  57.4847794  56.3171463  45.5211563   0.7210847  24.4253540  17.6709881
   1.4456875  23.8450012  17.9041691   1.1430748  25.2488747  17.4260960
  83.4386444  65.5413895  71.7849350  83.4698563  65.5204620  70.8284760
  83.0758896  64.6905746  72.0314102  74.0312881  50.1053581  68.6368713
  73.3176575  49.5652237  68.2974243  73.6111145  50.9286766  68.8855286
  76.9335098  53.0137062  79.8420792  76.1752472  52.4377708  79.9398880
  77.1198425  53.0070038  78.9032135  74.3944855  10.7090302  13.5602980
  74.1601410   9.8320723  13.2565498  75.0121689  11.0325356  12.9045267
  70.3868561  51.6849594  69.9920425  70.1452484  51.2868385  70.8283234
  70.4097061  50.9527626  69.3759308  65.8590317  15.2080688   2.9507160
  65.9660416  16.0167999   3.4514513  64.9580917  14.9358053   3.1251383
  25.2831001  37.8575249  26.1115570  24.5152493  37.9857979  25.5546169
  25.5327206  38.7409782  26.3825321  19.6951180  60.5041428  35.9256554
  20.0605717  60.2902184  36.7840919  19.0483265  59.8175659  35.7628479
  15.4325390  60.6217957  58.8343697  15.4205589  60.6564484  57.8778725
  15.8344584  59.7773705  59.0384293   6.5539703  20.8252697   6.6737299
   5.7839756  21.0033836   7.2137442   6.3057718  20.0665646   6.1455278
  16.0119762  19.0854301  19.0682659  15.0592852  19.0204258  19.0020390
  16.1863747  19.0975246  20.0093670  32.2853775  12.5349522  20.9738464
  31.4695835  12.8679628  20.5999298  32.4264526  13.0694923  21.7552547
  78.3310394  40.1337662   6.0290923  79.0415421  40.1306801   5.3876805
  78.3231506  41.0268250   6.3734927   8.5869007  29.5593605  86.4464340
   8.6912594  29.3466339  85.5190201   9.3673019  29.1958447  86.8648376
  53.6802559  23.7728710  83.3994522  52.9716835  23.2211971  83.7308350
  53.2563133  24.3531799  82.7671967  13.2881203  26.1046600  85.7734299
  13.2757063  27.0543747  85.8922501  13.2141905  25.9806805  84.8271790
  37.2877502  53.3746719   2.0069759  36.4133453  53.0691948   1.7654554
  37.6098099  52.7164230   2.6227834  16.5836353   0.6383803  20.8689156
  16.1597672   1.3887725  21.2854233  17.5175381   0.7693449  21.0329399
  85.6203995  10.0583706  26.1862488  84.9321671  10.6303062  25.8464680
  86.2443848   9.9796972  25.4646587  10.8010645   5.0532103  39.0833702
  11.2975903   4.2571473  38.8936882  10.2406769   4.8156490  39.8221283
  44.0982590  37.6077461  77.8206406  44.5365028  38.4430847  77.9830627
  43.3166847  37.6360245  78.3725204  61.7013397  65.2185745  49.7796555
  62.3407898  65.9036560  49.5847397  61.0248947  65.3250275  49.1108360
  84.7479935  69.0592117  77.5744629  84.4009476  68.6704407  78.3773651
  85.2015762  69.8494949  77.8676453  35.2014389  42.2821121  23.7349091
  34.2897720  42.3618393  23.4543076  35.6707649  42.0044479  22.9482269
  53.8297844  18.0712700  43.9422760  54.2266960  18.9211407  43.7514496
  54.3565712  17.7162628  44.6583023   7.2538042  40.0148582  42.2578850
   6.9998870  39.5341034  41.4700813   6.4846144  39.9676247  42.8256416
  86.7145309  60.8969955  12.1217651  86.0140991  60.4978294  12.6377983
  86.5037079  61.8306541  12.1135359  81.4992981  39.2545357  61.1900787
  81.3543167  38.4173584  60.7492294  81.0626602  39.8979492  60.6318703
  17.0186520  31.5468159  18.5282574  17.7666550  32.1346169  18.6341610
  16.3099957  32.1134949  18.2234459  79.5072174  29.0667515  76.6515274
  79.7139893  29.6842213  75.9499512  80.0376511  29.3597336  77.3924942
  11.0807362   6.3111196  36.6819916  10.9350319   5.8378534  37.5011482
  10.3281994   6.0827355  36.1363144   0.2675050  31.6997013  21.7356033
  -0.4333963  32.1406517  22.2157402   0.9395775  32.3717461  21.6220036
   2.4862349  62.5138931  55.7939758   2.1889503  63.4227753  55.8362312
   1.6804588  61.9974174  55.8084373  16.9582310  14.0640860  71.4421539
  17.8397350  14.3348465  71.1855011  16.8357697  13.2145061  71.0185394
  26.4081192  63.9348030  77.8885040  26.8388901  64.4859543  77.2351303
  25.6403179  63.5839767  77.4372482  19.0358791  15.7593813  70.2994232
  19.6911240  16.1721191  70.8620377  18.9053173  16.3838806  69.5858536
  14.3863096   1.8159702  41.4696465  15.3310022   1.7260730  41.5949707
  14.0008783   1.3522842  42.2130661  51.7536507  60.0996933  86.6391983
  51.9923172  60.5831108  85.8482666  51.9314308  59.1842842  86.4232178
  47.0228310  46.9099846   0.3217343  46.4318695  46.3347626   0.8076540
  47.3361473  46.3722801  -0.4055476  76.1238556  44.6727257  32.7139816
  75.4029846  44.1690331  32.3360100  75.8995438  45.5853424  32.5321884
  53.1808548  54.9548302  48.6363068  52.4230194  54.4547958  48.3331871
  53.0316010  55.8403702  48.3049850  48.7181549   8.6198149  51.9236069
  48.4007072   8.2561522  51.0970459  49.2102547   7.9045482  52.3266754
  50.9299583  10.2392092  29.5500240  51.6851158  10.2544641  30.1380177
  50.3416367   9.5882435  29.9325886  50.5492935  53.1379623  87.5768585
  50.4794846  52.2158470  87.8239670  49.7097816  53.5190887  87.8341446
  84.0089569  42.6808128  66.6725922  84.1822205  43.4045067  67.2746506
  83.1187439  42.8386917  66.3582153  75.3921432  49.0110054  53.4982414
  75.3464432  49.1445236  54.4449806  75.9933853  48.2742462  53.3890152
  46.9752083  33.8866386  86.7308044  46.6317062  33.0260811  86.4906311
  47.1510620  34.3164482  85.8938065   9.3041983  55.6375198  75.3014832
  10.1438732  55.1965218  75.1722565   8.9931850  55.8247452  74.4157944
   1.0123067  59.8636017  68.5754852   1.3416079  60.6670036  68.9784012
   0.4513141  59.4723434  69.2451401  11.7367659   7.9088516  71.4673080
  11.5954075   8.8329134  71.6731262  10.9184313   7.4798684  71.7173691
  19.4021473  63.9717903  61.4487190  19.9397926  64.4476471  60.8156853
  19.9808788  63.2899323  61.7898445  56.0658531  66.6215820   3.6105096
  56.0083656  67.0731659   2.7684877  55.1719933  66.3276672   3.7861834
  82.5712280  57.4951096  58.4646530  81.8751678  57.7221642  57.8480606
  83.3815536  57.6744156  57.9877357  47.6066475  47.7091141  77.3349609
  47.6995354  48.4101753  77.9800262  48.4987450  47.3906631  77.1971893
  69.8282471   9.9799614  19.6866837  69.2746658  10.6048431  20.1549854
  70.7227936  10.2492123  19.8952942  21.3950996  11.8679094  10.7600594
  20.5198307  11.5288906  10.9476824  21.5526123  12.5169649  11.4457331
  70.6813507  48.7526588  81.7183990  71.5208588  49.0119553  82.0981827
  70.8424759  47.8830261  81.3523254  19.7044697  63.8630562  17.3810825
  19.7207737  64.1638260  16.4725113  19.8396969  62.9172554  17.3227463
  69.4145355  43.5891037   3.2313099  69.4317932  44.4429741   2.7990663
  68.5233154  43.5109177   3.5716751  84.1880035  22.6079178  10.9685707
  84.0662918  23.5518818  11.0703106  84.4568176  22.3061867  11.8362856
  45.7596588  65.3073425  74.4306564  46.5733261  65.3018188  74.9347839
  45.5076599  66.2299957  74.3927231   2.9347150  54.8579102  49.7632217
   2.0462072  55.0998383  50.0244789   3.4563606  54.9674873  50.5582733
  86.4819489   9.0595751  68.3001938  86.9086380   8.3486700  67.8218842
  85.5633316   8.7956371  68.3523178  65.8629684  36.0017014  70.9141388
  65.9449463  35.2491455  71.4999466  66.5035400  35.8374367  70.2221069
  32.8286896  64.2696686   2.6875916  32.2132835  64.1174545   3.4047685
  32.2778244  64.5377579   1.9521273  73.0607834  68.3913803  22.2244091
  73.0421982  67.5096436  22.5964756  72.2105560  68.4883270  21.7955132
  72.7988052  70.1951294  63.5382156  71.9081116  69.9506378  63.2869720
  72.6825409  70.8301239  64.2449646  71.3097610  14.7366896  83.6485596
  70.4916153  14.9122849  83.1837540  71.3461151  13.7826605  83.7173996
  79.3885651  19.9437180  73.7632370  79.0915222  19.0444965  73.9025269
  78.7471313  20.3169022  73.1586456  18.5680141  33.4009247  15.6045628
  19.0724449  33.7120590  16.3562126  19.0315628  32.6156578  15.3135166
  67.7409668  63.0850372   8.0274563  67.1696396  62.8838005   7.2862949
  68.4573822  62.4542809   7.9557924   6.7753391  38.7824974  11.2740440
   7.5875959  38.3624077  10.9912081   6.5574131  38.3507309  12.1000690
  76.8779602  29.3988419   9.4258375  77.4518814  30.1627598   9.4830570
  76.8429565  29.0580807  10.3196440  85.7789230  67.5045395  36.9165726
  86.2117538  68.3498764  36.7970505  86.4639816  66.9311676  37.2603378
  15.6428375  27.6407223  12.1334734  16.5141850  27.4406548  11.7914810
  15.6842966  27.3897972  13.0562677  12.4547997  16.2194614  11.5296259
  12.2311602  17.0556450  11.1209488  12.1604910  16.3095512  12.4359913
  57.5649757  49.1510086  85.4246826  57.4257507  49.4398956  84.5227966
  57.1873589  49.8484650  85.9605865  47.0592613  38.2641792  87.3560867
  47.0474243  38.4502525  86.4172211  46.1795464  38.4922981  87.6565704
  79.0148544  26.4431705  29.1758232  78.7517090  27.2497730  29.6189651
  79.9005661  26.2720432  29.4959202   5.7307200  13.2170334  26.1050873
   6.5156922  13.7429781  25.9520149   5.7585597  13.0115528  27.0395584
  44.9502678  34.2563820  39.1514587  44.7478790  35.1883698  39.0698051
  44.3851089  33.9497871  39.8605614  23.7452793   6.3251638  64.7422638
  23.1970196   5.9601307  64.0477219  23.1894112   6.3058710  65.5212860
   8.4168749  23.7568398  14.3366137   9.2656126  23.9789200  13.9537878
   8.0937014  23.0335255  13.7993927  29.5851173   5.8078489  75.4884491
  28.7534809   5.8105960  75.9623718  30.1487465   6.3966327  75.9903336
  34.8893814  67.8499222  81.4073944  34.6794090  67.5209656  80.5333633
  35.7833786  68.1830063  81.3295670  59.7468987  54.8083076  25.9583950
  59.4215813  54.8079872  26.8586178  58.9710083  54.6413651  25.4232769
  48.6352158  35.7133827  88.0347748  48.3179893  34.9165840  87.6096725
  48.0932312  36.4122429  87.6686096  38.3116112  38.8215294  27.6638050
  37.9256020  38.1798210  27.0676174  39.1950111  38.9634209  27.3236561
  31.8855362  31.4293060  71.3146896  32.4347153  30.6479893  71.3793259
  31.6515007  31.6331425  72.2201843  71.1266098  18.4176025  35.4248848
  70.2353363  18.2708168  35.1081619  71.6228256  18.6560860  34.6418610
  77.3420868  41.1733856  35.4124680  76.8451996  40.3557091  35.4396935
  77.2126312  41.5612488  36.2779350  33.7550545  45.5326233  81.3318176
  34.4687462  46.0930290  81.0271530  34.0624008  45.1879272  82.1702423
  53.1114540   7.2431278  28.3590164  53.2615738   6.3032632  28.2572765
  52.2011299   7.3104692  28.6471233  47.3768463  29.2520294  69.5761642
  47.6935692  28.4174519  69.2306213  46.5370636  29.3894978  69.1378708
  78.0167007  16.0961208  30.2177982  77.3220062  15.8911772  30.8436031
  77.5623627  16.5042629  29.4807587  68.5134125  56.9006157  52.0730362
  68.0795670  57.0705414  52.9091759  68.6616821  55.9549828  52.0679550
  32.6566124   2.6940455  61.8094978  32.2246628   3.5278330  61.6238861
  32.6991425   2.6537986  62.7649040  68.1188354  33.3981247  11.2829695
  67.5872192  34.1840858  11.1569405  68.9957657  33.7303543  11.4749479
  41.7460556  15.1374121  86.1711731  41.8744965  14.6736994  86.9986420
  40.9276428  15.6191263  86.2910995  85.4947968  67.5849915  61.0912819
  85.9775467  66.8017502  61.3553391  85.9467773  68.3047409  61.5316238
  22.0275249   2.5220850  20.2925282  21.6744843   1.7849131  19.7943611
  22.1240921   3.2227161  19.6475296  61.2114944  29.3454456  87.5524521
  60.6814079  29.1615906  86.7769241  60.5744324  29.5738869  88.2293549
  52.5338707  56.2696953  45.3835983  53.1639671  56.2520027  44.6632538
  52.3379593  55.3482208  45.5531273  29.6560898  63.0233955  74.1683731
  29.4048958  62.6448021  75.0108719  29.6668224  63.9678230  74.3238525
  85.1002121  36.6519012  63.2268448  84.9091492  37.4924698  62.8107071
  85.9932022  36.7462540  63.5583572  18.5610523  53.5796242  59.1710052
  18.3812389  52.8313103  58.6018639  17.8282185  53.5938721  59.7866211
  81.5743256  10.6417141  35.5173225  81.5130005  11.0013685  36.4022598
  80.7044373  10.7789192  35.1422119   7.9607930  54.3544540  71.3891449
   7.4673567  53.7686844  70.8150177   8.0839663  53.8524513  72.1947861
  26.0693626  51.1076202  15.5546637  25.9680595  51.9015656  15.0296679
  26.9929886  51.1028442  15.8059092  14.6246414  50.2733192  17.8325367
  14.1040134  49.9306145  17.1060848  15.1095486  51.0069389  17.4545174
  56.2124901  27.7573528  34.5443153  55.9522171  27.2223148  35.2941322
  55.4104347  27.8573990  34.0315475  12.5642452  32.4679756  69.3982849
  12.1726055  33.2443123  68.9981003  12.2946053  32.5095863  70.3157806
  85.9587402  62.6114311  62.3013420  85.2881851  62.1790657  61.7725220
  85.7752533  62.3299942  63.1976433  36.8551064  59.8754883  88.6187439
  36.3812027  60.6691704  88.3703156  37.0211411  59.4263420  87.7899323
  18.4690075  19.1048908   5.1280518  18.6585007  19.9348202   5.5657053
  17.9352074  19.3492165   4.3720140   5.8503752  58.4531975  23.5822258
   6.2796106  58.4016304  24.4362335   5.8745022  57.5567474  23.2475166
  67.2518539  27.5517693  73.5240173  66.7498245  27.1247864  74.2181931
  67.9968719  26.9696789  73.3745041   9.1224918  48.6782112  54.1630058
   9.3694811  48.7512474  53.2411118   8.1667452  48.6267395  54.1515541
  83.1573944   5.0600200  64.5712814  83.5748291   4.5292869  65.2497406
  83.8471069   5.2071080  63.9240646  69.9129562  56.7016449  86.4693909
  69.2686539  56.1035500  86.0907288  70.0352631  56.3862877  87.3648376
  56.4122162  63.0277481  78.9934006  57.0647011  63.3085098  78.3517914
  55.9894676  62.2700119  78.5892334  55.9276352   9.3703327  26.0398273
  55.0306091   9.4560976  25.7169914  55.8808670   9.6497259  26.9541492
  39.8052788  66.2231598   9.4957056  39.6272049  67.1564865   9.6115761
  39.5245132  66.0351410   8.6001339  65.3181839  33.8357468  26.2649574
  64.8341904  33.0232658  26.4128227  64.7213593  34.3799629  25.7512856
  20.2011871  29.7279854  62.6010361  19.9630280  30.4340000  63.2019119
  19.9217644  30.0411682  61.7407608  47.5233574  53.3027420   5.4615726
  46.7467613  53.1442833   4.9249005  47.2086601  53.2380753   6.3632455
  72.1819916  41.4784012  83.8776932  72.1962051  42.4096909  83.6569519
  72.3277054  41.4541664  84.8234253  79.9773865  12.8119555  21.6161423
  79.1526718  12.5770769  22.0414696  79.8564911  13.7220354  21.3452721
   5.4891453  52.1559067  88.2577667   5.2902708  51.4607964  87.6304703
   4.7854290  52.7938766  88.1394119  48.0207977  67.3910446  28.8376064
  47.9265862  66.8691177  28.0407696  47.5351410  66.9028778  29.5024872
  36.3722115  45.8712311  12.9217186  37.3265915  45.9355469  12.9571266
  36.1560211  46.0213547  12.0014162   2.1667771  47.9175148  69.1696320
   2.1276164  47.1266174  68.6318817   1.7455122  48.5911865  68.6358337
  53.8507996  46.0729942  73.0820312  53.6203804  45.8845863  72.1722870
  54.3185234  45.2918091  73.3773499  32.4865379  65.8243484  60.2794991
  33.3787231  65.7692642  59.9371567  32.4958801  65.2733917  61.0621834
  24.0631657  67.1056519  55.1267662  24.0466499  67.9031754  55.6558380
  23.8126202  66.4098434  55.7344780  37.8169479  50.8781891  78.7168655
  38.1053772  49.9902191  78.9279404  37.7097893  50.8754616  77.7656860
  45.3357887   6.5688896  49.1427040  45.2577858   5.6186705  49.2277336
  46.1982498   6.7042356  48.7501793   0.8299897  23.4237461  23.7309742
   0.1971741  24.1400261  23.7831192   1.4732975  23.7189331  23.0865726
  53.9673996  11.0708952   9.1209879  53.6836090  11.4715366   9.9426823
  54.9214859  11.0347004   9.1891394   6.4649944  69.3140564  21.9860096
   5.6544809  69.2881470  21.4774551   7.1549339  69.4236603  21.3316383
  23.3850288  64.6062012  72.4013596  24.0868282  64.1776428  72.8913116
  23.4327621  64.2196732  71.5269699  19.2606754  70.1910782  20.7037563
  19.1707611  69.6944046  19.8904552  19.4660645  69.5311356  21.3659630
   5.3016768   9.9780636  63.1702728   6.1441550  10.4107895  63.0316696
   5.3707814   9.1574450  62.6823769  46.6998138  61.4748650  19.1277084
  46.1685524  61.1926117  18.3831787  46.4537964  62.3897629  19.2643414
  12.6075048  50.1338692  80.2855453  12.5254335  49.4851112  80.9845505
  13.5494833  50.1987686  80.1283951  51.5260582  34.2722435  55.2650185
  51.9888077  34.2648277  54.4271431  50.8959846  34.9882965  55.1843224
  86.0594330   0.1071650  52.8942680  86.1910477   1.0542738  52.8507423
  86.0036392  -0.0841209  53.8304977  57.2981453   3.0306683  54.9257431
  56.6197357   3.2283227  54.2800446  57.0005493   2.2240856  55.3465691
  58.0442123  69.7106705  43.9741096  57.4969788  70.2313385  44.5620499
  58.7868767  69.4408493  44.5143661  53.5503006  24.3146477  46.2694168
  54.4656296  24.4721470  46.5009270  53.1103401  25.1444473  46.4540863
  63.2562447  15.7991533  84.7701569  63.0781822  16.0233364  83.8567810
  62.4403648  15.4096832  85.0846252  85.7832870  27.8217144  63.6209526
  85.1676559  28.2919960  64.1831436  85.6594238  26.9002094  63.8483658
  67.8706970  12.3656054  50.7791901  68.3206635  12.9007673  50.1254578
  68.5697327  11.8687611  51.2043037   9.6460428  46.0736885  45.0631218
   9.2432451  45.5954285  44.3383789  10.4679241  46.4067879  44.7028618
  12.1666489  30.4812050  77.8593063  12.8121405  31.1494122  77.6289291
  11.5678778  30.4591656  77.1128311  86.9152756  61.5470886  75.0718613
  86.9101562  62.0770111  75.8689728  86.4966125  60.7252655  75.3279114
  52.1004906  51.2694130   8.8012247  52.4023628  50.7531128   9.5485802
  52.8365211  51.2581253   8.1893682   4.3043308  69.6886063  65.0532303
   4.4687552  68.7887115  64.7714691   5.1761575  70.0646667  65.1745911
   3.2980523  39.9223824  79.6002121   2.6085680  40.3141747  79.0641708
   2.8621936  39.2098808  80.0677643  54.8029251   2.9900579  78.2734070
  55.5164833   3.0424056  78.9092712  54.2043839   3.6927950  78.5266800
  17.6329117  21.5197487  88.5601578  17.6911945  22.2027931  87.8921127
  18.4698334  21.5648766  89.0224991  59.3435211  44.1844215  14.5089808
  59.4967041  43.6300049  13.7438736  58.4023590  44.1162262  14.6696091
  63.9456215  30.9071941  71.3715820  64.2165146  31.7678356  71.0519791
  63.4440689  30.5302315  70.6486893   7.9306402  41.5071754   8.9681768
   7.0759935  41.3658905   8.5609312   8.3131313  42.2338295   8.4763393
   6.0009489   6.2325482  81.9715424   6.6730404   5.6310501  82.2920532
   5.9813790   6.0877643  81.0255585  82.0728912  41.6293411  82.8827209
  82.9087372  41.2204475  83.1072311  82.2646942  42.1560974  82.1068497
  61.9423828  62.7529602  29.9809341  62.4383698  62.2659302  30.6389828
  61.3722267  63.3298378  30.4892349  81.0467377  32.8678246  87.9202423
  81.0069046  31.9282703  88.0987930  80.1362000  33.1593132  87.9669418
   1.3316472  20.9999981  80.2406158   1.0942975  20.0730133  80.2161865
   2.2887034  21.0026989  80.2242508   9.3057833  44.4355545  75.9382477
   9.7369413  43.9957352  75.2055206   9.6919518  45.3112793  75.9527206
  31.1429882  20.7233467  19.9630432  30.3419971  20.1998520  19.9386272
  31.8493710  20.0851059  19.8635254  69.2729645  19.2278728  76.0666046
  69.2922287  18.8142643  75.2035904  69.5270767  18.5311852  76.6718216
   1.0933902  68.1515121  58.4830208   1.2115443  67.8880539  57.5704079
   0.2415423  68.5878143  58.4979935   5.8923755  65.4573059  16.5810814
   5.4038715  64.8414154  17.1272221   6.8072600  65.3234406  16.8286648
  45.5337906  28.1208782  87.8703918  46.4653778  27.9279041  87.9759445
  45.2031746  28.2021904  88.7649918  74.7902908  59.7621231  57.5014000
  73.9381790  59.4997444  57.1531372  74.9076920  59.2195778  58.2812042
  48.8681526  34.2207603  31.6610928  48.4219284  33.5183640  32.1341171
  49.6646729  34.3817825  32.1669197  31.9255390  10.7565937  10.9763823
  31.6377068  10.3128967  10.1785622  32.4730492  11.4774885  10.6652975
  10.5264921  68.1849899  21.5085106   9.7920303  68.4158783  20.9397507
  11.2543955  68.0267410  20.9073906  12.9306364  70.8842392  72.3960495
  12.8483057  71.2155304  71.5017853  12.0493793  70.9605637  72.7618256
  30.4831181  23.8577366   4.7083445  29.5516109  23.8648224   4.4881749
  30.5401115  24.3546143   5.5244923  86.7577209  48.6007500   3.9186544
  87.2504044  49.3095894   4.3322258  86.0641632  48.3938866   4.5450892
  60.2062798   5.1747475   9.2942467  61.0751495   5.5727811   9.2407408
  59.6084137   5.8653998   9.0082541   5.5374503  15.1741848  78.0763702
   4.8221173  15.1135340  78.7094955   5.5787373  14.3049650  77.6776352
  54.6836090  25.7949200  74.8579025  54.1085968  25.7207050  74.0962753
  54.4260864  26.6180210  75.2731323  79.3641357  34.3550148  61.0442696
  79.1939621  33.9831963  60.1788101  79.8375473  33.6668396  61.5117378
  30.0118656  65.9099655  74.8052979  30.0856819  66.4913864  74.0485077
  30.9153137  65.6718445  75.0134125  77.8430328  26.0674667  46.9778976
  77.7721939  26.7422695  47.6530685  78.0286484  26.5520096  46.1735344
  51.8430138  42.2302589  45.6537247  52.6851845  42.0539970  46.0731392
  51.4589806  41.3646088  45.5144386   5.8318286  21.9026051  32.2542114
   5.8541517  22.6143837  31.6145992   6.6041126  22.0475044  32.8008499
  53.2096710  60.1069260  30.0172443  53.6290436  60.9596939  29.9025917
  53.9318924  59.4793053  29.9904461  47.5140152  68.0265579   6.3068805
  47.6025658  67.5587997   7.1372976  48.3347931  68.5105743   6.2159171
  70.8998718  26.6048927  75.7535324  71.7629242  26.7349834  76.1465225
  70.3596802  26.2676010  76.4681396  33.2065620  55.4697685   6.0867596
  32.5718803  56.1579971   5.8873830  34.0449181  55.8238258   5.7900505
  81.8130646  69.9164963  61.7627144  82.3701019  69.6201706  62.4825325
  81.8162384  69.1879654  61.1418571   7.9293818  38.3611488  22.5328217
   8.8476992  38.5503387  22.7255173   7.8433261  37.4189758  22.6782112
  48.1519852  55.6266022  53.7124405  48.4084358  55.5629921  52.7924271
  47.5411644  54.9010239  53.8415375  45.2624626  68.3813019   8.8134422
  45.0112190  68.1919250   7.9094262  46.0919495  67.9189224   8.9333744
   6.4047937  35.3125687   2.8149319   5.7595515  36.0042000   2.6681700
   7.2071571  35.7792473   3.0487196  77.5697708  34.8224792  43.8534889
  77.4410400  34.3878021  43.0104485  78.4930115  35.0751724  43.8541679
  74.2844925  54.5767097  30.4388771  74.3758163  54.3439560  31.3628445
  74.9844894  54.0935097  29.9998417  60.7896881   1.4222790  58.8474960
  60.6841965   2.0815248  59.5334244  61.1876144   1.8972808  58.1179352
  68.2388611  33.3793335  14.3313141  67.5699310  33.8489685  14.8295164
  67.8129272  33.1649246  13.5013514  22.3968163  55.9100838  39.1172791
  23.2190361  55.5212288  38.8189812  22.5979862  56.2588730  39.9856720
  66.7328033  36.0821457   7.8670297  65.9029694  35.7059746   7.5736003
  67.1880875  36.3178024   7.0586858  52.1388550  65.1044388  83.6064529
  52.0379143  65.2182465  84.5514908  52.4430466  65.9564438  83.2937469
  57.0854263  12.3501377  34.1310158  56.1703262  12.3032732  34.4078217
  57.0603409  12.1753235  33.1902466   4.2820039  10.3842096  16.3459511
   4.6317654   9.5292797  16.0949688   3.4684014  10.1836901  16.8086319
  46.2160072  39.8079987  12.3058500  45.8757782  39.1425819  12.9039259
  45.6541519  39.7455521  11.5334167  67.7026825  39.6765060  10.1962185
  67.5516205  40.6068878  10.3629589  67.3691025  39.5346985   9.3103008
  11.4716959  56.5738068  42.5413017  10.6015072  56.8467026  42.2505569
  11.3670197  56.3956833  43.4759369  45.4958000  18.6570988  80.9006577
  45.8516273  19.3034306  81.5104675  46.2509117  18.1267090  80.6462479
   1.5885521  44.4014435  31.9281082   2.0498614  44.9004097  32.6022453
   2.1400740  43.6334343  31.7790699  70.9063721  19.7314453  18.8942947
  71.0188141  20.4323788  19.5363865  70.8017426  18.9388962  19.4207439
  20.9375668  61.1626358  72.1459503  20.1906414  61.5159340  72.6291885
  20.7328453  60.2343369  72.0337830  51.8404160  11.5786562  58.1197357
  50.9460030  11.5917320  58.4604454  51.7999420  12.1037455  57.3204384
  27.3680439  41.6080818  11.6818771  27.7680798  41.9272957  10.8729858
  26.9038143  40.8124390  11.4217329  16.4051170  52.3501663  27.1678925
  16.3676014  51.4487228  26.8481674  15.9900274  52.3160896  28.0297337
  24.8915958  52.6643333  28.9119205  24.9293232  53.6196327  28.9589214
  24.6504002  52.3903351  29.7967834  84.6125717  32.2531357  88.4928436
  84.5631332  33.2075233  88.4387283  83.7068787  31.9602776  88.3919067
  52.5986519   7.2225018  13.6227999  52.6747284   6.2789831  13.7649879
  52.7500267   7.6077571  14.4858732  44.9290733   1.2987911  17.8356590
  43.9926033   1.4615024  17.7226048  45.1128540   0.5517699  17.2660847
  82.8722763  69.6635056  86.8231506  82.0229645  70.0461349  87.0433426
  83.2898178  69.5040359  87.6695938  11.8802061  43.8754120  53.0282822
  12.1246347  44.4583931  53.7470436  11.9500933  42.9957123  53.3990631
  36.2334824  42.6045609  17.1873226  36.9285812  42.7335129  16.5420036
  36.5793839  42.9901810  17.9922333  80.8739090  20.1758575  47.2786331
  81.6519318  20.0289326  47.8165169  80.2584229  19.4978848  47.5574913
  16.6507530  59.6108742  33.3381348  15.9032059  59.5516472  32.7432404
  16.9817524  58.7146454  33.3968086  37.4398003  50.8823280  21.5269661
  37.1424026  50.6530418  20.6465034  38.3935776  50.9199982  21.4553814
  85.3271713  51.6848755  44.0656357  85.6631393  52.4670639  43.6279869
  84.3776550  51.7390633  43.9574165  65.5917892  62.1426773  43.0887985
  66.0070114  62.6969147  42.4280052  64.9167557  62.6986809  43.4779243
  23.1205006  37.4757309  75.4269943  22.9796104  37.7327042  74.5157547
  22.2764912  37.1237526  75.7098236  73.7495804  16.1004486  11.5209007
  74.5099258  15.6696167  11.9113960  73.0821915  15.4156380  11.4777431
  34.9492645  19.4559765   7.2505245  35.8252335  19.0808754   7.3411288
  34.4911423  19.1898899   8.0477409  79.3600922  70.2527542  80.6519699
  79.8344345  69.8392258  79.9306946  78.5363998  69.7681427  80.7059708
  48.8497963  50.9049683  35.7446365  49.1925926  51.7266655  36.0961113
  49.4896698  50.2449265  36.0113564  85.9945297  70.2802811  61.6717758
  86.7707138  70.3908157  62.2209129  85.2753830  70.1678467  62.2933998
  75.0625305  47.0914230  63.3719292  75.6258469  47.7639427  62.9890213
  75.0575409  46.3862076  62.7247200  86.1611328  30.3036900  56.1733017
  85.6232986  29.7115154  56.6989326  85.5301132  30.8724880  55.7322693
  63.7731094  45.1654587  65.9790726  62.9817390  45.6928215  66.0879135
  63.8807068  45.0878372  65.0311127  62.8962517   8.0837488  64.2971115
  62.1688690   7.5211082  64.5627747  63.2448120   7.6681952  63.5084076
  65.9282837  19.8418865   1.6108346  65.3154144  19.3763313   1.0417258
  66.7922440  19.6263046   1.2596469  26.9559650  49.4878731  20.3841343
  26.8624821  48.7016335  19.8462467  27.1136360  50.1914330  19.7545528
   7.9475522  11.0275373  25.2146244   7.1470246  11.3371058  24.7908840
   7.6707702  10.2634048  25.7203159  47.1244431  50.2298393  66.4037476
  46.3190575  50.5788269  66.0219116  47.0911903  50.5001602  67.3213806
  61.2069893  19.2019386  18.9846764  60.8726883  19.3889828  19.8618813
  61.5261459  18.3010349  19.0370483   2.6134133  45.8159218  16.4383984
   1.8643118  46.3439827  16.1623020   2.3892999  44.9243774  16.1716537
  76.9330521  42.9260635  86.1100616  77.7653732  43.1878891  85.7164688
  76.2836151  43.0853615  85.4251633  79.4727097  65.1081390  43.8639755
  78.8590775  64.4175110  43.6135292  79.8701935  65.3861771  43.0387878
  60.1329651  70.0533524  45.6078720  60.9856110  69.7378693  45.3083763
  60.3299026  70.8595886  46.0847626  44.2004204  60.2130623  66.1480865
  43.6543808  60.7420540  66.7296753  44.2929001  59.3756409  66.6024094
   6.4969487  47.5681877  15.4820910   5.6786962  48.0648727  15.4832726
   7.0441341  48.0065079  16.1337776  48.5818634   1.1135495  12.4478455
  49.0299034   0.2684779  12.4111166  47.6745262   0.8945702  12.6600161
  24.6741180  29.9422722  83.7082672  24.5368996  29.0251274  83.4710999
  25.0533295  30.3383904  82.9237213  31.2299938   8.2150211  17.2912960
  30.3716278   7.9455018  16.9644985  31.8513737   7.8518057  16.6602688
  84.4838104  26.0330257   2.9073319  85.3667603  26.0684643   3.2752585
  84.5517273  25.4134026   2.1809115  38.6627045  13.6891975  14.6512976
  38.5194244  12.8905344  15.1590786  39.6084213  13.7139349  14.5055609
  81.2094269  46.5285835  62.6010132  81.8679199  45.8676262  62.8149223
  81.2596436  46.6174583  61.6492729  26.8477345  49.0173264   6.7550325
  26.6635094  49.8063164   7.2647243  26.6461697  49.2629738   5.8521152
  62.0746918  32.0244293  43.3270798  61.1684685  31.9784451  43.6318398
  62.5566483  31.4490623  43.9211311  23.0980740  29.7013092  12.0554361
  23.0595570  30.2541237  12.8359137  23.5782795  28.9226036  12.3369503
  54.7578125  57.9329338  54.5481377  55.0260239  57.8134956  53.6370811
  55.4135284  58.5259094  54.9150848  12.7026253  54.3526993  19.8460903
  12.6594667  54.7795906  20.7017384  12.2214031  53.5335007  19.9625874
  19.1276970  35.9542198   6.9738636  18.7833805  36.0270538   7.8640170
  18.5706215  35.2984581   6.5544882  26.5203056  49.1888771  34.5591736
  26.5851421  49.8605194  33.8802605  27.4178638  49.0777740  34.8726654
  47.5102119  15.6834002  14.6993866  47.3133926  16.6061878  14.8604927
  46.7759705  15.3706169  14.1709099  46.6646042  62.1629639  47.9514313
  47.4534912  61.6439629  48.1080360  46.9853210  63.0574608  47.8363228
  36.5766373  48.7167397  64.0762405  36.4697952  47.8819046  63.6203156
  35.7384071  48.8583717  64.5161743  21.8331623  67.4832611  63.7914238
  21.1823406  68.1589813  63.9813271  22.3157864  67.3783798  64.6113663
   9.6956072  47.3812065  12.6593428   9.7842979  46.7874069  13.4048414
  10.2357054  48.1371613  12.8896875  52.6134644  54.7552528  58.6207886
  52.8683014  53.8528328  58.4286156  53.0074081  55.2704659  57.9168053
  55.2501869  13.6613703  53.2780037  56.0720100  14.1024170  53.4932098
  55.3110085  13.4864607  52.3388863  44.2804222  62.5354462  79.3179321
  44.7458496  61.8830681  79.8413925  44.9318542  63.2161560  79.1491013
  75.2433167  52.7674141  12.6320438  76.0968933  52.5042458  12.9761009
  74.6617355  52.0396347  12.8518820  68.5702286  35.8855209  53.7325897
  69.3629532  35.9971924  54.2573280  68.4804535  34.9377594  53.6329956
  41.7975388  28.9478741  72.3394012  42.3103333  29.6934662  72.6514359
  40.8928528  29.1708641  72.5586014  27.0252438  32.5675468  82.9962845
  26.7752590  31.7349014  82.5957336  27.3192806  33.1075249  82.2626648
  73.1053162  56.3926773  29.0143337  73.7277145  56.6694298  28.3418350
  73.6132355  55.8210449  29.5900822  23.4500256  59.9302406  51.9810486
  22.7391567  59.6865921  51.3881454  23.0447521  59.9436684  52.8481140
  72.5323639  17.5774841  48.3965492  72.5578232  17.6811485  47.4453201
  73.4051971  17.2586250  48.6261749  21.0711842   5.1027613   1.3424577
  21.3254890   5.9286757   0.9308440  20.1751232   5.2515602   1.6443951
  25.5239468  61.9702682  53.6215096  25.6098709  62.9229126  53.6578636
  24.7303333  61.7820740  54.1224976  33.1065636  52.8245201   5.4661951
  33.3524513  53.6809578   5.8158832  32.2453117  52.9647484   5.0727320
  84.8989716   7.7469230  75.6266632  85.3366394   6.9640231  75.9609451
  83.9659882   7.5381055  75.6733170  57.5436745  46.7435417   2.2722092
  57.8597527  46.0601234   1.6812226  56.5988731  46.7724533   2.1213958
  79.8950500   1.5675439  33.4827080  79.0290298   1.4246216  33.8645630
  80.4440079   1.8245711  34.2235260  74.7742386   5.5857887  79.2070618
  74.8812332   5.8075328  78.2820663  75.1558533   6.3273578  79.6768265
  10.6959343  34.6590691  10.7719793  11.2689610  34.8581963  10.0315609
  11.2937708  34.5144539  11.5054026  17.4999561  21.1633663  18.0455914
  17.0429821  21.9891586  18.2052078  17.0368023  20.5246754  18.5876179
  30.9493980  49.0620193   2.8901796  30.7028751  49.9163322   3.2445920
  30.1650257  48.5236092   2.9955549  58.4723129  69.5972595  87.2835007
  58.9282417  70.1868591  86.6828842  59.1685486  69.0724411  87.6785355
   1.1005174  11.7146807   8.6375923   0.9775223  11.0081034   9.2715101
   1.1293951  12.5105457   9.1686258  45.6778183   8.0030718  51.3062668
  45.7358437   7.3252106  50.6329422  45.8097153   7.5341201  52.1302338
  30.7062378  67.5132980  49.8066254  30.1171436  67.5783386  49.0549774
  31.1144981  66.6521683  49.7171478  80.2588654  59.1145439  70.6550827
  79.7715988  59.4326401  69.8950729  79.8077698  59.4988327  71.4067917
  76.0578003   5.5059733  54.7071915  75.1157532   5.4422483  54.5499649
  76.3189850   4.6203094  54.9594154  29.5687160  41.8948059   7.9295731
  30.2900658  42.4646759   8.1962852  29.7749214  41.6542206   7.0263405
  12.3516521  22.6436405  29.1714382  12.6726818  21.7418842  29.1745720
  13.0411072  23.1418018  28.7324409  74.2472839  14.9363060  69.0590439
  74.6364746  14.1096258  69.3442841  73.5159531  14.6760845  68.4989853
  39.0593948  52.1531906  17.8943100  38.5676880  51.9105225  17.1097279
  39.2270432  51.3220444  18.3385181  47.1840935  69.6089249  24.3281651
  46.5395546  68.9677048  24.0287666  47.3473053  70.1598587  23.5626163
  20.8886890   8.4988289   0.8572733  21.8039074   8.7789049   0.8701313
  20.3883762   9.3148365   0.8643196  49.2154617  27.0346832  56.6009636
  48.5154839  27.1972427  57.2332954  49.5861092  27.8997536  56.4263077
  74.3412857  46.8039436  40.7877693  73.5194626  47.1972046  40.4941940
  74.6264725  46.2657204  40.0493851  33.8026505  61.1806297  45.9550667
  33.0113449  61.3541603  46.4649239  34.2452354  60.4781609  46.4313927
  37.2799950  37.3852043  25.4722271  36.9291382  37.7918282  24.6798954
  36.9268913  36.4955788  25.4613781  85.0644989  69.7471924  72.8696594
  85.8512268  69.2020187  72.8785172  84.4940796  69.3553085  73.5309296
  75.7199173  40.0254250  13.1794348  76.0886841  40.8419609  12.8425131
  75.0303802  40.3046074  13.7817869  65.4870377  50.6000252  11.5434361
  66.2108917  50.8166962  12.1310768  65.8798981  50.0358505  10.8773994
   5.9883032  28.1145935  61.0885201   5.6942720  27.4287643  61.6880302
   5.9962192  28.9103966  61.6203728  31.1874180  50.6114693  11.2721033
  31.0342674  50.4074326  12.1946793  30.9785042  51.5423889  11.1948023
  13.7961941   3.0378230  46.9221268  13.2391672   3.7917092  47.1160545
  14.2601652   3.2825010  46.1214409  35.1727180   2.6658351  60.3416252
  34.5869141   2.3259871  59.6651878  34.5977135   3.1466746  60.9369354
   7.8803496  52.5134315  62.2111816   7.5817714  51.6108589  62.0996017
   8.0437546  52.8235016  61.3204613  78.7695770  68.9982529  50.0465775
  79.0312500  68.0990219  50.2444153  78.3603897  68.9441299  49.1829414
  45.5900917  59.0733376  14.3749075  46.4168053  59.4093704  14.7211103
  45.3274384  59.7160835  13.7160311  73.1402817  58.0576248  37.3496895
  72.4600296  57.6491585  37.8850784  73.7367020  57.3411102  37.1326141
  48.9910507  53.9642601  62.3509560  49.6951408  54.3857002  61.8581276
  48.4192505  53.5910950  61.6801186  23.9397392   0.1403597  47.4111290
  24.2688885   0.2624619  48.3016243  24.2800655   0.8913592  46.9249115
  18.8647900  63.3722153  88.7529984  18.5642090  63.6017418  87.8736801
  18.2361755  63.7941017  89.3387375  13.3597593  43.9305267  48.8384132
  13.2605104  43.3743553  49.6111069  14.0771980  44.5238304  49.0609093
  19.7062187  45.9329605  87.6023102  19.4245186  45.5574951  86.7681046
  20.6539917  46.0322990  87.5123749  10.8724842  71.5177841  77.4666977
  10.9762020  70.5675812  77.5175018  11.6017294  71.8094025  76.9195251
  85.9677277  38.0871315  36.2113571  85.9037628  39.0098991  36.4576187
  86.9051743  37.8958778  36.2405472  60.3111153  35.5050812   1.2775189
  59.5558128  35.9240570   0.8649490  60.1895752  34.5710373   1.1071703
  83.9641190  46.3394432  53.2659645  84.9157181  46.4141884  53.3373451
  83.7795868  46.5045433  52.3413429  45.4795876   7.9323702  75.0910263
  45.3263130   6.9888010  75.1401749  44.6308594   8.3239565  75.2973099
   6.1997967  62.7163658  61.2253304   5.8831854  63.4545975  60.7047577
   7.1263051  62.9067383  61.3722038  53.1897087  10.4313221  82.0946121
  53.0202026   9.8180323  82.8097229  52.3337021  10.5686131  81.6888580
  72.1424408  56.7468185  17.1745052  71.6934814  57.0432701  16.3828087
  71.5493469  56.1011276  17.5586395  63.6111755  33.5142975  80.5276260
  63.8701782  33.5190125  81.4491119  64.3525314  33.1149445  80.0725021
  79.6964264  35.5733948  67.5808487  79.0716934  34.9287949  67.9131699
  80.5511551  35.1561737  67.6885147  65.8066483  56.7371178  32.0256081
  66.1021500  56.4823380  31.1515388  65.5616760  55.9125214  32.4454422
  38.7275620   2.5747132  80.5688400  38.6478462   1.7494138  81.0471268
  39.0654716   3.1945071  81.2152939  68.4609146  48.6192284  29.7310905
  68.9756241  49.2569313  30.2257080  67.5532303  48.8071327  29.9698811
  22.0254002  52.8045502  48.9668694  22.3511982  52.1621017  48.3365097
  22.7824364  53.0054092  49.5171280  66.8236618   0.8474182  24.5128651
  66.1082230   0.7550178  25.1420269  67.1871414  -0.0344098  24.4322929
  23.7533951  25.0598850  12.0185432  23.6115150  24.5959587  11.1933928
  24.0195065  24.3771954  12.6344595  81.6109924  28.9994278  34.2559814
  81.3469849  28.1224422  33.9777184  82.5385971  29.0544815  34.0263062
  31.2804184   5.0004396  18.9398403  30.7229691   5.5010347  18.3441162
  32.1728935   5.2449422  18.6950111  21.7953224  68.4685135   7.9074936
  21.7565842  68.2490616   8.8383923  22.7202969  68.6517181   7.7428937
  52.7708702  37.3485451  65.5268707  51.9617386  37.2654991  66.0314941
  53.3702087  36.7205811  65.9302139  52.1738434  30.1165161  42.1413422
  51.7148399  30.9485645  42.0262527  52.1108704  29.6881542  41.2876625
  80.6149216  48.9402313  17.1825104  80.4144592  49.8761482  17.1928368
  79.9902878  48.5683517  16.5598011  32.0400009  69.6906204  55.2542725
  31.5908413  68.8668289  55.4436073  31.3503036  70.2709045  54.9320602
   5.4558315  41.4495201  34.8135109   5.3036008  40.5385742  34.5620422
   4.5862346  41.8494225  34.8029785   2.5167024  11.6814756  71.4133377
   2.6731646  10.8165016  71.7922516   1.8092582  11.5427189  70.7836609
  24.4112778  49.9272804  85.1294785  23.8858166  50.6873627  85.3792801
  24.7552853  50.1479378  84.2639160  60.3811378  65.2485733  87.0717087
  60.2576752  66.0679398  86.5925217  59.9000397  65.3745880  87.8895721
   7.2255249  61.8346786  16.9629097   6.3604379  62.1426392  17.2331276
   7.5944963  61.4354210  17.7507477  39.1459770   1.5818504  70.3350525
  39.9875069   1.1405435  70.2196808  38.8267059   1.2710500  71.1822281
  32.7537498  43.3042984   5.5367966  32.8080215  42.7781410   4.7390199
  32.3354301  44.1189957   5.2583995  12.9714384  56.7388115  36.8617096
  13.6497345  56.0899506  37.0491333  13.0299387  57.3623772  37.5855675
  75.3715210  38.7596207  10.8357973  76.0107651  39.0420189  10.1816988
  75.5878067  39.2682762  11.6172819  36.9272804  22.2390194  79.3245316
  36.8847656  21.3430309  79.6586380  37.3486786  22.1559124  78.4691086
   2.2105353  53.2933350  31.8750858   2.1510422  54.2439308  31.7798824
   2.4627903  52.9809227  31.0061779  11.1724539  27.1011143  11.9151049
  10.7432013  27.7706833  11.3825169  11.1739454  27.4641571  12.8007851
  61.3545074  68.9700928  61.9418678  61.6805496  69.8176651  61.6393013
  61.3590927  68.4185715  61.1595459  22.2843399  32.2763557  17.6715755
  22.1270008  32.0985146  18.5988560  21.6987667  31.6762142  17.2098770
  79.8794861  55.1608467   5.8284712  79.6649704  55.5673904   6.6680760
  80.2434616  54.3068771   6.0619068  56.4655075   9.8401442  21.0175991
  56.2404022  10.7573385  20.8616676  56.6716576   9.4932175  20.1496277
  74.2069702  31.5956230   5.6900096  74.0674515  32.2050095   6.4148626
  74.9627991  31.9497719   5.2214699  14.0900040  48.3337440  45.0094147
  14.1714058  47.3921661  45.1611824  13.6390915  48.4026070  44.1678848
  15.8593798  56.0729065  23.1722641  15.4283972  56.3473663  23.9816818
  16.7894440  56.0384445  23.3959293  12.0866022  33.7611961  88.2964249
  12.9624643  33.7716942  87.9104309  11.6688900  34.5557632  87.9641495
  26.4452839  48.3233032  70.5015411  25.7994919  48.5193024  69.8227463
  26.1631947  48.8394470  71.2566910  36.5848389  47.3668633  77.7388611
  37.4797440  47.6807480  77.8686752  36.4723320  47.3503075  76.7884369
  85.4800797   1.5410751  34.6245766  85.2244415   2.4121873  34.9279671
  85.2690125   1.5411201  33.6909370  70.9146500  20.9079933  31.3068466
  70.9831924  21.8417320  31.1076794  70.4724350  20.5325222  30.5454636
  44.0466118  61.5556641  72.5506058  43.4781265  62.2781372  72.8172226
  44.0234070  60.9474449  73.2893600  64.2352524  24.4079666  72.7033234
  64.4575577  23.4978580  72.5070648  63.2973747  24.3897095  72.8938065
   2.5625138  28.4971542  38.6428528   2.6070633  27.6068993  38.2940025
   3.4769268  28.7532902  38.7631645  80.4756393  18.3651276  17.2474556
  80.3718643  18.3012981  16.2980404  80.5806580  17.4592686  17.5383530
  44.7282677  27.5922585  85.4595947  44.9854889  27.8864613  86.3333817
  45.5323753  27.6444168  84.9429474  79.9930038  61.8234596  25.1413403
  80.8806534  62.1554947  25.2757473  79.5407410  62.0088959  25.9643288
  15.9277220  51.5004768  44.2466698  15.1912508  51.8110313  44.7733574
  16.7039108  51.7728539  44.7361298  38.9010124  66.3559113  25.0658340
  39.4596176  65.5952454  25.2257710  38.6295357  66.6413651  25.9382133
  42.7136459  49.4288139  52.4431000  43.0640182  48.5409813  52.3708153
  41.8049126  49.3520927  52.1523323  71.5192947  33.8264847  63.0859032
  71.1259384  34.6949463  63.0005951  70.8826447  33.3240814  63.5943375
  65.1835556  19.2046261  81.7242279  64.6268539  18.4756527  81.4505310
  64.5836487  19.8178291  82.1488724  57.1910706   4.5681572  48.6028976
  56.8919449   5.2695360  49.1815376  57.1996841   3.7877519  49.1570854
  72.7660904  61.1954193  38.3045464  73.4368668  61.3721161  38.9641457
  72.5645676  60.2657433  38.4109612  53.6816025  66.6327744  49.8632240
  53.9402771  65.8050232  49.4580727  53.8834953  66.5183029  50.7918625
  42.1333923  64.6369934  53.7441750  43.0600967  64.8518295  53.6378937
  41.9602356  63.9821777  53.0678177  26.2896347  18.7177696  21.3074913
  26.9280376  19.3429642  21.6507206  26.6473751  17.8599987  21.5365810
   4.7999787   7.2374473  29.2383137   5.1644096   7.0980277  30.1123753
   5.2660089   8.0037680  28.9039478  12.2102070  16.4925289  87.3050079
  12.4739189  17.1570110  86.6684952  12.9975395  16.3338585  87.8257446
  22.9646244  68.7534637  40.5434227  22.2588673  68.1976700  40.2129135
  22.5172939  69.5169373  40.9084282  46.0360756  62.7743263  32.8967781
  45.4368896  62.0503159  33.0784836  46.6033859  62.8146973  33.6666870
  54.5355110  67.1958237  56.6811180  55.2786140  67.5826340  56.2180710
  54.9315109  66.7014771  57.3987808  43.6381645  35.7192497  69.6347733
  43.1330261  36.4124870  70.0596161  42.9940720  35.2368851  69.1164093
  79.3101730  70.9414520  46.6523514  80.2058563  70.6642151  46.4596901
  78.8091965  70.6887970  45.8768387  22.3506145   7.3438759  30.9600449
  22.6619034   6.8233080  30.2195435  21.4033947   7.2062540  30.9682064
  46.8739014  63.6435127  78.2380905  46.5958748  64.5509338  78.3626785
  47.1691742  63.3624268  79.1041412   5.4518704  32.9006844  10.2003794
   5.9679766  33.6084633  10.5862789   6.0994334  32.2433090   9.9459181
  84.2221222  42.3697548  50.1895638  84.7587280  41.5781937  50.1480675
  84.6057892  42.8821678  50.9012260  70.3321533  70.7060318  36.9508629
  71.0664902  70.4397202  37.5040932  70.6968536  71.3793182  36.3764839
   4.6733513  55.0326271  33.2580757   4.1322851  54.5439529  33.8782997
   5.1958556  54.3630142  32.8166695  85.5488663  68.3299332  55.8670464
  85.3563385  68.1305695  56.7832451  84.7174606  68.1941528  55.4125633
  11.0789537   0.7042025  57.6305656  11.6277752   0.1138807  58.1468468
  11.6711950   1.0672028  56.9719963  64.0610504  43.5473175  81.0512848
  63.4098015  43.0519333  81.5479736  64.7193527  42.8975906  80.8048401
  81.7823563  24.5121174  78.0181122  81.4075623  23.7901192  78.5225754
  81.0403290  25.0896225  77.8388901  65.2475433  10.7100143  61.6724510
  64.5052643  11.0740919  62.1548500  64.8538284  10.0871820  61.0614624
  59.4429474  67.0626678   3.1415415  58.5166893  66.9690323   3.3640440
  59.8330421  67.4788284   3.9102218  64.4336243  47.0387459  19.8285313
  64.5786743  46.1648636  19.4658718  64.9818649  47.0666771  20.6126728
  71.5669632  55.0137787  81.9824371  71.5984116  55.0521851  82.9383469
  72.4327850  54.6955338  81.7268982  70.9370880   4.8283749  26.5975189
  71.4667130   4.2144747  26.0887394  71.1965561   4.6730123  27.5056877
  14.1836481  12.5221977  11.3026829  14.4629307  11.8642225  10.6660490
  14.0337172  13.3110762  10.7817001  58.1968422  37.8614426   3.1845944
  58.4814568  37.7215843   2.2814519  58.3699532  38.7883110   3.3494616
   4.5082674  16.2375126  36.7946472   4.5797386  16.8881741  37.4930496
   5.2996058  16.3609066  36.2704430  38.6136169  48.5890923  58.4110909
  39.2316895  48.1264954  57.8452072  37.8216248  48.0519295  58.3903122
  45.6040459   2.6609323  77.8484650  44.9400368   2.2215838  77.3171463
  45.2406425   3.5306780  78.0149231  13.8345890  61.4907303  53.0400925
  14.0199099  61.3220825  52.1162720  14.0414543  62.4175110  53.1605682
  81.5919418  30.1711235  87.8530579  81.5503464  29.3328991  87.3927460
  82.0791397  29.9802952  88.6545868   4.1232753   0.1012800  67.2913055
   3.6896133  -0.7192760  67.5255203   3.4322650   0.6332147  66.8966141
   0.4180095   4.2922206  16.6839771   1.2250404   4.7864904  16.8276100
  -0.1283354   4.8740077  16.1555233  57.7420998  54.7971420  65.9782791
  58.2886581  54.8605003  65.1950226  56.8594093  55.0049438  65.6718445
  85.2921066   3.3836405  14.4526577  85.9733810   3.5916138  15.0920620
  84.6119461   2.9430945  14.9621019  68.0531845  63.2754555  73.1164856
  68.2715225  62.7119560  73.8588028  67.5709000  62.7058945  72.5171280
   4.4370322  68.9675980  67.8719406   3.5671937  68.5693741  67.8398361
   4.7686563  68.8910675  66.9772949  18.3814220  19.3105259  84.1597290
  18.0292664  19.5819111  83.3120422  19.3301792  19.3015938  84.0331726
  50.7067871  38.9800377  10.2649565  51.4110680  38.6269341  10.8085890
  49.9852295  39.1303902  10.8756790  24.2496662  12.8605375  81.3944702
  23.7698326  12.0327559  81.4222031  23.9188709  13.3030634  80.6128235
   9.4843254  61.7382812  77.8040543   9.5709543  61.9789391  78.7264481
   9.9030819  60.8799171  77.7401276  63.7131958  35.1500473  24.6878777
  63.9994469  35.5925255  23.8888130  63.2411919  35.8230095  25.1783543
  32.5021286  44.5918999  16.8337116  31.9199848  44.5080452  16.0785236
  31.9937077  44.2466202  17.5675526  68.6075668  58.5883102   6.7754374
  68.4952469  57.9139366   6.1054864  69.4122467  58.3414230   7.2312493
   4.1544085  20.5096569  85.2494659   3.5919254  21.0160847  84.6634903
   5.0269232  20.5773602  84.8617020  49.2161064  67.5385056  22.8209038
  48.3459740  67.9310150  22.7499466  49.2238121  66.8510818  22.1548576
  86.1355286  40.6561203   1.8408624  85.4979706  40.4080315   2.5103462
  86.4603729  41.5106888   2.1244462  81.7782822  22.6875000   4.8918767
  81.5155182  22.0872707   5.5896678  82.2436295  23.3912868   5.3439455
  12.4769163   8.1636047  62.2175064  12.6126499   7.2873440  62.5780296
  12.7976818   8.7550449  62.8983459  54.3198967  38.1929283  17.3833065
  55.0433197  37.6378517  17.0921345  54.1619606  37.9252205  18.2886353
  85.1560822   8.4142466  16.9446392  84.2631912   8.2821932  17.2632942
  85.6827927   8.5051107  17.7387104  12.6796875  53.2208328   0.1649671
  12.8197746  53.7244759  -0.6368759  12.8576012  53.8413696   0.8717293
   6.6172009  40.9082298  57.1297302   7.2627630  40.3245506  56.7312355
   6.1943684  41.3401070  56.3874855  71.6152725   4.9004021  35.9526672
  70.9463654   4.2903223  36.2634697  71.7782288   5.4775748  36.6986885
  18.4877281   8.5548735  28.7032681  19.2178001   8.1812601  28.2096710
  18.7280464   8.4259262  29.6207924  53.5057182   7.2890568  73.8948059
  52.9345131   7.1885982  73.1333160  53.0445976   6.8370442  74.6014023
   1.8138132  50.9635277  21.5304966   2.0347214  51.5982971  22.2120361
   1.0655849  50.4827652  21.8844070  65.6937408  65.0639038  10.2271948
  64.9479370  65.5947952  10.5067902  65.3061218  64.3649292   9.7004890
  55.5241013  67.3727951  36.0047417  56.2885857  66.9610596  36.4075699
  55.6434402  67.2322388  35.0654678  65.7906952  42.0301704  79.3592911
  66.6713104  42.0705719  79.7322769  65.5824585  41.0961533  79.3374329
  26.2278385   3.9994476  27.5366096  25.5589008   3.8207438  26.8756866
  26.5539989   3.1350899  27.7870827  74.3985901  18.6733837  16.9784393
  75.1984482  18.2354736  16.6874275  73.9894257  18.0504265  17.5790558
   0.4326802   4.0751162  43.0920601   0.3383067   3.4679718  42.3580971
   0.6447127   4.9141688  42.6830788   4.6514816  48.4240494  65.8470078
   5.1679201  48.8068008  66.5562515   4.9960580  48.8320923  65.0526581
   4.4787192  21.2639599   8.6252403   4.5710649  20.5284004   9.2307625
   3.5952485  21.5960293   8.7847404  84.1520615  18.0880489  15.4080181
  85.0608139  17.8808556  15.6259079  84.1797867  18.3477230  14.4871311
  57.7290497  20.2912922  35.9209137  58.0990982  19.4173317  35.7964478
  57.8236732  20.4601784  36.8583336  80.3742599  50.9279671  59.4994659
  80.2121353  51.6443443  58.8856659  80.5838852  50.1782112  58.9425507
  67.9341736  11.4514284  57.2982903  67.1767120  11.2775698  56.7394905
  67.6408310  11.2176409  58.1789284  44.6605263  65.6631241  78.6878052
  44.2872314  65.3468018  77.8651123  44.9912567  66.5370941  78.4803772
  51.4600296  47.4196701  87.4066620  50.6696701  47.6440773  87.8977814
  52.1683388  47.4927368  88.0463409  18.4601517  45.8147049  81.2329788
  18.4555759  46.1034431  82.1455765  18.2637539  44.8788986  81.2768555
  74.7050476  49.6247597  64.5996323  75.3300858  49.5400620  65.3196259
  74.3878860  48.7338219  64.4517441  41.7562370  67.9616470  72.0898743
  41.0382614  67.4333725  72.4386749  41.8675041  67.6511154  71.1913071
  47.8030319  18.1720772  74.2283630  47.3749084  17.3752995  73.9151764
  47.2916412  18.8850098  73.8456955  17.7692928  52.0504608  16.6985683
  16.8714905  52.3769264  16.6385479  17.7400627  51.3961563  17.3966122
  41.1222000   2.2840068  88.4667206  40.9405823   1.3602955  88.2935028
  41.0833626   2.7012243  87.6061096  84.2695312  40.2606010  68.7152176
  83.3836365  39.9145203  68.8231735  84.1510315  41.0727501  68.2226715
  57.8658752  22.7212524   1.2256398  58.5643501  22.2672558   1.6970748
  58.3144264  23.4164429   0.7442411  57.2277985  37.0092735  14.2051516
  57.8404083  36.2776794  14.2807407  56.4488068  36.6284599  13.7997103
  36.2928123   5.0406647  58.2939720  36.1076393   5.6718521  57.5985985
  35.9108849   4.2206426  57.9810410  78.5562286  18.7722416  30.2109833
  78.4641342  17.8517361  30.4567928  78.9285583  19.1912479  30.9868908
  85.5642395  53.8325348   5.9149680  84.6862259  53.8364677   6.2961674
  85.5277481  54.4925919   5.2227058   2.9656012  10.9557238  89.0344086
   3.3100703  10.0784836  89.2018127   2.0297844  10.8210697  88.8849182
  54.5543365  50.2871323  82.8771896  55.2297440  49.6089478  82.8884659
  54.0707130  50.1571083  83.6929245  74.7025909  34.7509079  73.5962219
  74.8071823  35.6986198  73.6806641  73.8859406  34.5580864  74.0568008
  56.4379272  56.0241165  41.0781631  56.2692146  55.2787781  40.5017586
  56.4751282  55.6443901  41.9560318  55.7681885  47.5646935  16.0601616
  56.3825073  47.8887291  16.7188320  55.3269806  48.3503189  15.7371092
  49.2956123  51.6106720  55.1332588  50.1158791  51.9865456  55.4528084
  49.1575241  50.8372383  55.6800346  43.4587173  42.6589813  68.8265381
  42.7118721  42.3457489  69.3367691  44.0917320  41.9419365  68.8635788
  64.4065552  45.1919899  50.1607971  63.9747200  45.8100739  50.7504730
  64.6238785  45.7114143  49.3867149  35.2606735  53.2859154  24.1546555
  34.6852608  52.5220833  24.1135693  36.1096840  52.9322205  24.4198170
  52.5308647   8.3721619  31.8355541  51.8055267   8.7633028  32.3225098
  52.2790642   7.4551654  31.7262497  65.3688278  40.6241417  47.1589813
  66.1411209  40.6258049  46.5934830  65.2599030  41.5390816  47.4183197
  28.2480030  29.6956196  16.3074436  27.6312332  30.3189774  15.9237108
  29.0945492  29.9321079  15.9284105  60.6846237  71.0224457  78.1015472
  59.7753487  71.1240997  78.3828354  60.9308815  71.8861237  77.7704163
   6.5639138   1.9504955  52.6920357   6.4646516   1.3351834  53.4185143
   5.9043455   1.6768799  52.0545921  16.8557110  21.3898888  14.1433096
  15.9456644  21.6021976  14.3506079  16.8989964  20.4356403  14.2047043
  24.7778263   9.9393244  82.3366470  25.3245068   9.5836029  83.0372467
  25.3241711   9.8799219  81.5529327  75.1034393  22.5080509  69.4578857
  74.2577438  22.5914917  69.8984146  74.9133148  22.6911297  68.5377960
  22.0312157  64.7383423  18.5764179  21.1145325  64.5561371  18.3697166
  22.2987976  64.0118332  19.1392899   7.8385754  31.6424961   8.9984827
   8.4551287  31.4264946   9.6980801   8.3892832  31.9645596   8.2848797
  85.0507202  22.5299301  38.0411301  85.7073517  23.2061157  37.8742828
  85.0383835  22.0053291  37.2405853  34.4689636  53.5336571  82.6463165
  34.4436035  54.4895515  82.6032486  34.7349739  53.3413887  83.5454865
  12.5663071  53.9656868  48.4556084  12.6450787  54.8443909  48.8269691
  12.8382483  53.3813248  49.1632805  51.8148994   7.3167748  71.8093719
  51.0084801   6.9486194  72.1704559  51.5228653   7.8646111  71.0807953
  67.2675629  71.5301590  43.3135834  68.0867615  71.0442429  43.4086151
  66.6503983  71.0732727  43.8850670  27.5826416  68.6500015  13.5257578
  26.8537750  68.4600525  14.1164389  27.7478848  69.5855865  13.6423941
  55.5169525  28.4377747  23.0104561  56.1518555  29.0442810  22.6293030
  56.0479469  27.7175827  23.3504524  68.4999008  51.1557922  36.1552391
  69.3392334  50.7574120  35.9249382  67.9790726  51.0969734  35.3542976
  54.5730705  65.7139206  12.9721546  53.8465652  66.1461487  12.5231504
  54.2302208  64.8517990  13.2075911  18.1110802  13.9222641  80.3532486
  18.9918251  14.2011194  80.1027298  17.8145008  13.3801250  79.6222534
   4.3897786  34.4524956  24.3984642   4.5063047  33.9622269  25.2122765
   5.2790709  34.5893974  24.0718937  69.0171127  71.1592789  52.0390434
  69.0281296  71.2397766  51.0853004  69.0768585  70.2177124  52.2006454
  76.8685455  52.7729568  25.7782784  75.9870834  53.1457558  25.7617359
  76.7967377  52.0138702  26.3569469  44.6207657   1.2346996  56.5489235
  45.0832787   0.4396143  56.2840614  44.4663544   1.1208276  57.4866982
  42.7167130  12.8014784  68.1209183  42.0525513  12.9661512  68.7902527
  42.2549057  12.9202337  67.2909393  44.5779915  20.2037411   7.5680280
  44.4054184  19.3320408   7.9238200  43.7499084  20.4667377   7.1663527
  14.8916006   2.9760878  84.6443787  15.8313751   3.0070372  84.8235397
  14.7022285   3.8098624  84.2140427  11.3996754  42.7272797  15.9012270
  11.1914053  41.8304176  15.6395168  10.9526730  42.8419952  16.7398338
  10.8742342   4.2123003   8.6541691  11.3159208   4.2884254   7.8083854
  10.6609125   5.1138206   8.8949728  24.6792412  67.9138260  35.4389267
  25.1501637  67.0806732  35.4570694  23.9742775  67.8044281  36.0771179
  13.4186497  65.6630402  48.9810219  13.9085293  65.5318527  49.7928352
  12.6341505  65.1245422  49.0849915  69.9447784  26.5613403  73.1938782
  70.2334366  26.4337883  74.0975571  70.7561417  26.6261234  72.6901627
   8.1862078  59.2362289  22.5702019   8.3877201  58.5445290  21.9399834
   7.2506208  59.1353722  22.7455235  55.0750160   4.3287029  56.4173279
  54.9578590   3.4079831  56.1832733  55.0565567   4.3367801  57.3743134
  53.8446007  11.1186199  11.9130640  54.5170403  10.4507380  12.0472012
  54.2408829  11.9264469  12.2395725  49.8327904  13.5019207  17.5438824
  49.7205925  14.2800636  18.0899029  49.2640038  12.8443413  17.9442635
   4.4726133  50.3255310  71.6095200   4.9594440  51.1207581  71.3930969
   5.1361661  49.7219276  71.9435730  38.9886932  57.1741219  62.0899506
  38.7944031  56.4059372  61.5529442  39.9430122  57.1794319  62.1639977
  -0.1279578  15.8227262  46.7666130   0.5636628  15.1898127  46.5734444
  -0.0329615  16.4947643  46.0916519  64.0654984  27.7752666  69.2945938
  63.3495407  27.1622372  69.1277618  64.7818985  27.2259598  69.6128082
  56.5082054  44.3382835  14.8457441  56.6976128  45.0777473  15.4232817
  55.5862923  44.4467773  14.6122131  63.1714821  39.7639389  87.5288773
  62.4755402  40.4205551  87.5562820  62.9210777  39.1216660  88.1929703
  75.5384979  11.0557270  87.6324463  74.6008835  11.1906843  87.7699356
  75.6739120  11.2438660  86.7037430  58.6103897  42.7337685  67.0180206
  58.5046310  43.2624130  67.8089523  58.2628937  43.2825241  66.3149185
  12.5940695  68.4690247  30.7729721  13.1573038  69.0273895  30.2370415
  11.8051653  68.3472061  30.2447433  37.8470383  29.4674606   9.0962391
  37.0396194  29.2863140   9.5773716  38.0295372  30.3902435   9.2734327
   3.4794352   4.0488415  52.2998047   2.5886617   4.3259349  52.0853882
   3.5209587   3.1355448  52.0162621  85.6708069  48.4574127  47.7048645
  84.8655319  48.6981277  47.2468071  86.3576355  48.5449867  47.0439339
   4.9277949  37.8879318   2.1821268   5.0555134  38.3482780   3.0115855
   5.6620641  38.1694832   1.6364079  12.0561819  39.4601631   5.0427432
  11.4557228  39.7421646   5.7327843  12.7967386  39.0759125   5.5119514
   1.7471204  43.9248009  10.4166517   1.4514343  43.3845634   9.6838865
   1.4778655  43.4390831  11.1962738  30.5654488  54.9758377  64.4099121
  31.1205025  54.4711304  63.8154259  30.0497570  54.3163376  64.8739777
  29.2370434  45.5790977  77.4765472  29.1066704  44.6474495  77.2997284
  28.4043808  45.9868660  77.2385712  77.4531631  25.4786224   6.2171359
  77.3003082  26.1576195   5.5599980  76.6857300  24.9097462   6.1567287
  24.0869179   0.3485459  89.0113068  23.2695217  -0.1208014  89.1780624
  24.4794865  -0.1105027  88.2687454  76.6873474   8.1680164  49.5599861
  76.1082687   8.1372967  48.7984352  77.5701447   8.1604738  49.1900635
  65.0244522  33.2548027  10.2750225  65.6426468  32.5548592  10.4851208
  64.7878571  33.6282272  11.1240292  39.5525551  30.2253399  26.1447334
  40.1336746  30.9668732  26.3140240  38.8460693  30.5913124  25.6125908
  81.0084457  17.2506752  21.3263760  81.0334854  18.0656548  20.8249645
  81.2002411  17.5167370  22.2256317  22.1025391  63.4581032  38.2615967
  21.5448170  64.0431366  37.7488441  22.8482761  63.2760048  37.6898041
  49.3651772  12.3562469  14.2355537  49.6902618  13.0677862  14.7871561
  50.1385155  11.8227491  14.0523491  40.5191422   8.7173834  75.0563278
  40.4396019   8.9453993  74.1300888  39.8547859   8.0423193  75.1947098
  87.0264587  51.4684486  60.5594482  86.1494827  51.5857391  60.1942253
  87.0391235  50.5615997  60.8655434  73.3625717  52.0972786  48.5727730
  72.6098480  52.6873245  48.6113739  74.1171188  52.6778107  48.4734612
  73.3456421   0.3076680  19.1858578  73.3987122   1.2434317  18.9915333
  72.4602509   0.0579556  18.9213791  62.9986305  39.1508484   9.3349895
  62.7289810  38.8705101   8.4603853  63.9552193  39.1544800   9.3010311
  84.7869797  11.8803854  46.1057510  85.2871475  12.2149858  46.8501358
  84.2722168  12.6299400  45.8067207   6.0523305  49.3568192  41.8468742
   6.8953242  49.1233788  42.2355881   5.6229544  49.8952942  42.5116425
   4.9183536  50.3859558   6.5915909   3.9713259  50.3963280   6.4528017
   5.0263848  50.5865097   7.5212898   5.3258772  46.6830368   2.7695880
   5.3728995  47.1767120   3.5883093   5.3185773  47.3530197   2.0859945
  20.7492752  19.2591171  54.2090416  20.5946865  18.8907623  53.3391838
  20.6340122  18.5199013  54.8061218  84.4647446  50.7566948   3.7788372
  85.1385498  50.0902863   3.6442425  84.2652206  50.7101326   4.7138524
  45.2488441  40.7753525  68.4353104  44.9506416  40.0849228  69.0274353
  45.7959099  40.3213959  67.7943115  62.8247986  61.8801689  35.3082008
  63.2461510  62.3745689  36.0112381  61.8882065  62.0274582  35.4398537
  36.9092865  14.7372179  84.4308777  36.0995712  15.2311554  84.5597916
  37.1321678  14.8785896  83.5107803  85.0898361  31.4060783  50.6022110
  85.6557236  32.1214256  50.3119087  84.3085327  31.4813232  50.0543633
  57.4473228  11.6778584  78.8704987  56.8542023  11.0389261  79.2657318
  58.0191422  11.9498835  79.5883179  49.1193314  42.8137016   9.2200050
  48.9658699  42.8670959  10.1633139  48.2835159  43.0647392   8.8267841
  49.9808884  10.7712259  46.0998878  50.1771889  11.7042780  46.0155449
  50.2750626  10.5433464  46.9817963  56.0491409  26.2289448  31.5246677
  56.9541206  26.0203514  31.7564812  55.9014359  25.7689152  30.6983585
  44.1906967  10.1343622  21.7905464  44.7565460   9.5590000  21.2757626
  44.3383446   9.8665133  22.6975670  55.5276489  61.7208290  32.2910728
  55.7848358  61.3530312  31.4456081  55.3067360  62.6320877  32.0986176
  48.7059250  26.8861179  32.7263565  48.5204926  26.6902542  33.6447716
  49.6211929  26.6324100  32.6074181  51.6336975  12.4684191   5.1991296
  51.6191521  13.4097452   5.0261393  51.9468079  12.3953934   6.1007175
  67.7777939  23.7244854  34.8000412  68.0260620  24.6489220  34.8033943
  67.7084808  23.4917431  35.7259254  28.9203701  27.9603291   5.2581282
  29.8687592  27.8308468   5.2532907  28.6898346  28.0767994   4.3364344
   7.2196355  62.7486496  31.3963013   7.6139479  63.6124382  31.2754002
   6.3700314  62.8099594  30.9596710  68.3389359  37.4443855  22.0535698
  68.6300430  37.3947716  22.9640789  67.5037537  37.9102745  22.0941830
   2.9249427  71.0319138  18.5309868   2.2755778  70.9171600  19.2248096
   2.7193744  71.8853149  18.1493053  41.9973564  48.8061371  86.2055817
  42.1497421  49.6462326  86.6383133  41.1431580  48.5210419  86.5300827
  80.4964294   4.5314999   6.8375483  80.0431671   4.2039585   6.0606937
  80.2101517   3.9523737   7.5438685  73.2621918  12.8140574   4.8399377
  73.0976639  12.0936699   5.4483829  72.5109787  13.3969498   4.9501457
  31.8692589  71.6002960  57.9375000  30.9303188  71.7082062  57.7859154
  32.0269470  70.6651688  57.8074684  65.4952316   5.0016255  42.7418213
  65.8544617   5.6784816  43.3154564  66.2618256   4.5217032  42.4283791
  85.7625504  51.1624641  57.5192223  86.2622910  51.7389832  56.9411964
  85.1990585  51.7537003  58.0183640  48.7024651  26.2357101  23.1899338
  48.1206360  25.8986835  23.8711967  48.3119850  27.0710793  22.9331913
   5.1370282   2.5420492  32.5440407   4.7082486   2.2078881  31.7561855
   6.0668588   2.5674653  32.3182068  54.5538712  21.3760796  54.4143219
  54.3513527  20.4752827  54.1617699  53.7029037  21.8132744  54.4450989
  59.0536041  38.1621780  24.9859619  58.9925270  37.5322418  25.7040691
  59.8894272  38.6066437  25.1276894  30.3547115  10.7206249  27.3505249
  31.2436886  11.0135002  27.5509605  30.4627037  10.1078043  26.6231880
  65.2057648  47.7511253  30.5144978  64.8246536  46.9980812  30.0629368
  64.9424591  48.5051765  29.9869461  32.8610229  47.4945679  84.5181885
  32.4016685  47.9176292  83.7927628  32.4232979  46.6492348  84.6184082
  40.4403687  26.9546814  70.7563934  39.8659134  27.6487141  70.4330444
  40.7197456  27.2580357  71.6201935  61.5805397  15.5523252  62.2867088
  60.6745605  15.3483629  62.5187263  62.0796890  14.7886534  62.5763397
  29.7957058  53.5899200  61.6992035  30.7040195  53.8087883  61.4911232
  29.3405972  53.6315727  60.8581467  38.9744148   4.4839425  66.0059967
  38.8686790   5.3442488  65.5998917  38.2091675   4.3912854  66.5734863
  13.0108814  41.9954643  68.0154037  12.7770662  42.9106445  68.1703644
  13.7331266  42.0356255  67.3885193   5.5506010   2.6107564  12.5413265
   6.2115593   3.3028867  12.5592623   6.0540423   1.7976841  12.5824642
   6.9956136  28.8202152  84.0597458   6.8856387  29.5613823  84.6554031
   7.0097947  29.2140522  83.1874390  70.3314056  17.2506485  19.8690624
  70.1572037  16.7853851  20.6872406  69.5183411  17.1707153  19.3702908
  80.5641174  53.2274704  42.2072296  79.7017517  53.5987587  42.0209274
  80.7883224  53.5657349  43.0741425   0.4740998   2.7928421  30.7441902
  -0.3903882   3.0475953  31.0666695   0.9328012   2.4684644  31.5191765
   9.7647781  53.6507988  47.6779060  10.4769201  53.4339867  47.0761795
  10.1936626  54.1062164  48.4023972  22.7305088  64.3804779  66.7984314
  23.5076275  64.3194962  66.2429123  22.0136395  64.0766296  66.2416534
   5.5228610  46.5903053  27.8671818   5.0379019  45.7679901  27.9367809
   6.0758491  46.4775429  27.0940571  24.2681675   0.0922049  41.3656616
  24.0524082   0.8186853  40.7809334  23.5974598   0.1264121  42.0477257
  47.2776909  46.8296585  16.1208210  46.5111771  46.2909279  16.3169384
  47.4451408  47.3117599  16.9306164  33.0072212  53.8254128  78.3493805
  32.1042061  53.9042397  78.0418396  33.4527473  53.3325081  77.6603317
  64.7371216  63.5325851  72.7704849  64.8739014  62.6141129  72.5382614
  63.8192368  63.5778084  73.0382156   4.5806522  39.5718842  75.3353882
   5.3762255  39.5568161  75.8674316   4.1066151  38.7805367  75.5909042
  58.4646263  56.0574837  53.0872231  59.1227188  55.3819580  53.2509613
  57.8532715  55.9787903  53.8195381  71.5649414  31.7172604  35.1379852
  71.7395172  32.6579475  35.1085854  72.3170471  31.3484421  35.6011734
  74.3964996  14.3457727  79.4712753  74.4872055  13.6022367  80.0672226
  74.1282501  13.9548874  78.6397171  63.4419632  36.1074028  31.1421814
  63.4971352  35.8661957  30.2175159  64.0024185  35.4730301  31.5890446
  24.5340633  52.8572273   1.7105743  24.2477951  53.0949631   2.5924840
  24.0311985  53.4311523   1.1326734  12.1908007  71.0167007  59.8342476
  13.1335115  70.9722519  59.6743965  11.9732933  70.1687927  60.2215080
  25.7727757   3.8760896  15.1831274  26.1446056   3.4302192  14.4220924
  26.5078087   3.9686892  15.7892494  80.2777252  12.7673874  62.7036896
  79.5190430  13.3427801  62.8014488  79.9138718  11.8828297  62.7411079
  14.2356071  11.1082621  70.3903580  13.8608017  11.5467968  69.6265259
  15.1720181  11.0535917  70.1996307  12.8153763  71.0265732  69.2604294
  12.2920313  70.2319107  69.3646240  12.3140192  71.5649643  68.6480560
  45.5449829  52.3512688  10.6008825  45.0736656  51.9962807  11.3545933
  44.8590546  52.7031898  10.0335293  20.8250771  53.0310326  79.9298172
  20.0553875  53.2666092  80.4478073  20.5065002  52.3711510  79.3139496
  84.1193390  21.0669785  86.5605011  85.0403595  21.2811413  86.4118881
  83.7935944  20.8007164  85.7007141  81.7754898   5.7669349  72.3333588
  81.2096405   5.9006357  71.5729828  81.1700058   5.6086106  73.0576172
  20.1069164  38.2892647  88.3288040  19.3967285  38.9306908  88.3078461
  20.3818741  38.2064400  87.4156952  18.3346405  10.9973993  47.4705467
  17.4734993  10.9810324  47.0529366  18.1482754  10.9252071  48.4066505
  83.7971649  57.0495033  67.7040558  84.7003326  56.9328423  67.4092407
  83.6398010  57.9905472  67.6272202  31.4307537   9.9914961  19.2121220
  31.8243103   9.6887980  20.0304852  31.4557247   9.2266874  18.6370792
  76.8547134   3.4008484  64.7859726  77.6512604   3.1008925  64.3480606
  76.7369385   4.2999506  64.4794235  69.4283066  44.8599701  31.3204937
  69.3459015  45.7015381  31.7690506  69.0028229  44.9970284  30.4740791
   2.5828810  24.2485123   3.2131839   2.9098082  23.3967667   3.5027997
   3.3033273  24.6214638   2.7051518  74.0984192  54.2599373  81.7759018
  74.9878922  54.4773750  82.0548096  74.1461487  53.3388977  81.5197067
   5.8380103  38.6697121   8.7723446   5.6651487  37.7601051   9.0151739
   6.2274842  39.0570145   9.5562687   4.6806779  59.7994804  39.6816750
   5.3824162  59.2420120  39.3454819   4.0729084  59.1916618  40.1028709
  12.8711815  47.4234695  50.6375427  12.0747404  46.9423370  50.8620949
  12.6064291  48.0059586  49.9256096  77.7803497  67.8082275  10.8280907
  77.7034607  67.2740402  11.6186342  76.9860916  67.6147919  10.3301249
  82.9443588  40.1841774  36.4655495  83.7586441  40.2956886  35.9749031
  82.2780380  40.6056213  35.9227524  28.3941078  10.9112272  56.6580620
  29.3388863  10.8017082  56.5502167  28.1791630  10.3891678  57.4310341
  44.5419807  61.2114906  69.8649521  44.1901207  61.2476120  70.7544022
  45.2812843  60.6063881  69.9242325  58.9173889  65.6819687  34.3017197
  58.1367035  65.2174683  34.0000572  59.0551414  66.3681183  33.6486816
  47.0580177  69.3637848  48.3165131  47.4782524  70.0548325  47.8045654
  46.6036377  69.8287964  49.0190353  22.2652817  39.0060234   0.9458948
  21.5682793  38.8540955   0.3076643  22.1242256  39.9041672   1.2453505
  75.2176666  37.9137154  28.9252262  75.7477951  37.9667816  28.1300030
  74.6525803  38.6854324  28.8883152   6.6333289  59.1215820  68.1645660
   7.0009646  58.2449722  68.0521774   5.7405462  59.0520439  67.8264313
  76.8369141  68.9581680  47.8105888  77.5714645  68.7690430  47.2267189
  76.2896805  69.5689621  47.3169365  25.5901947  46.3964844   7.0469127
  26.1728230  45.6420555   6.9596643  26.1796761  47.1445999   7.1421614
  60.0456619  67.2239075  52.8971291  60.5014038  66.3930054  53.0318184
  59.1490250  66.9721832  52.6759758  68.5019073  56.8092957  79.3154068
  68.5266495  56.1046829  79.9628220  67.7075424  57.3001366  79.5258560
  61.9739685  56.9570465   7.9722071  62.2988167  57.8350067   8.1719494
  62.3166656  56.4085770   8.6778774  83.7912903  46.8093796  31.1683826
  84.4064331  47.3191338  30.6411457  84.1970367  45.9455070  31.2413921
   1.2118162  36.0386047  32.5092392   1.9880043  36.3387489  32.9821815
   0.4760790  36.3228607  33.0515671  30.9407024  70.8920288  22.8176403
  31.4110928  71.6924820  22.5847511  31.2120018  70.7078323  23.7169170
  69.8621902  32.4225807  64.6495667  70.4296570  31.6714211  64.8226624
  69.2468643  32.4318886  65.3827209  14.1444998  40.5149460  70.1015930
  13.6864538  40.7422943  69.2924347  13.9807539  41.2554054  70.6856689
  15.0546913  14.6195269  63.8879395  14.3424320  14.9416485  64.4403534
  14.7193737  13.8036137  63.5163498  75.9672241  10.7836714  50.0769119
  75.8426056   9.8441448  50.2110443  76.9101868  10.8840055  49.9465866
  78.1947784  64.5418396   9.8922720  79.0564880  64.1306915   9.9603596
  78.0751343  64.9875717  10.7308683   1.8977746  12.9812441  31.9851227
   2.8079317  12.6856890  31.9629173   1.8440124  13.6431723  31.2957821
  68.1493912  16.3203278  31.0767403  68.4812851  16.2646313  31.9728260
  68.3519287  15.4671946  30.6928482  51.4805641  38.5014496  62.4632607
  51.7805328  39.1392136  61.8155670  52.0036240  38.6877899  63.2429543
  34.9398460   2.5341504  68.8121109  34.5152664   1.6798213  68.7341080
  35.3126945   2.5367093  69.6937103  85.2086487   5.7430429  52.1496010
  85.2253799   6.1691637  53.0065575  84.8080673   4.8894491  52.3143425
  80.2347794   5.2553477  81.6241608  79.4487000   5.7967339  81.5519485
  80.6784973   5.5806184  82.4074478   6.6482415   0.2767465  74.8889694
   7.2293625   0.6680654  74.2367401   7.2350650  -0.0244055  75.5826416
  37.8406830  63.7858734  28.5106888  37.2867088  63.2898102  29.1134033
  38.3460541  63.1189384  28.0458965  78.0922928  66.9750595  39.8671989
  78.2486877  66.7489166  38.9503403  78.0105209  67.9287643  39.8680725
  39.9220734  20.5890923  64.0370865  39.0535088  20.8564949  64.3376236
  40.5011063  20.7845001  64.7738190   0.7472199  64.3030624  51.1248627
   0.7663768  63.3489685  51.1994667   0.9373232  64.6163177  52.0091553
   9.5786085  64.1899414  36.4600983  10.3769112  64.5568237  36.8400230
   9.6946344  64.2909317  35.5153389  83.5912552  49.1511307  84.4454651
  83.5486526  48.9861717  85.3873749  84.5232773  49.2749481  84.2659073
  60.1873779  60.0853157  37.5228462  59.4985046  59.9793739  38.1789436
  60.5338821  60.9638138  37.6790810   1.5478513   1.7729925  21.9686089
   2.1848116   2.1993592  21.3952637   2.0771420   1.2296143  22.5524101
  23.4631004  39.5024605   4.2372460  22.5908146  39.2754211   4.5594254
  23.8757820  38.6595612   4.0489769  35.5114212  49.4584579  67.4024506
  36.3803596  49.1254196  67.6266479  35.3098793  50.0874138  68.0952835
  47.5882225  48.7352676  53.8913727  46.7017593  48.4999619  53.6174164
  47.7824936  49.5390320  53.4092369  32.9632874   3.8442528  11.3937407
  33.6790085   3.6630194  10.7845364  33.2255630   3.4123356  12.2066927
  78.5013657  52.8310661  38.5960197  78.4377975  52.1591873  39.2748184
  78.1703949  52.4048615  37.8054237  67.6848907  71.8281784  67.0936813
  67.2326431  71.0365601  67.3852997  68.5084991  71.8269424  67.5814362
  82.4292145  20.0376167  16.0826206  81.8969727  19.5421257  16.7050686
  83.0782166  19.4081993  15.7682047  55.2089272   4.6176124   2.7527363
  55.8715096   3.9447436   2.9091506  54.3903847   4.2219028   3.0521271
  32.3934822   2.6602807  41.5072975  32.7876053   2.5304439  40.6447182
  31.4818668   2.8862360  41.3225441  69.9254456   2.3244734  60.6013031
  70.8817444   2.3503492  60.5689087  69.6921539   1.5157294  60.1455154
  85.4491196  43.3550491  52.3607750  85.9112473  44.1898003  52.4373360
  85.3859787  43.0328941  53.2599220  71.4788055   9.0933714  56.4181862
  70.5294342   9.0035868  56.5010643  71.8317642   8.5950432  57.1552887
  39.5387840   3.5578816  39.6855011  40.3625984   3.9561892  39.9664154
  39.5330887   3.6649189  38.7343216   5.3146176   3.5373998  64.2026596
   5.2713385   4.4816694  64.3533707   4.4989705   3.3300052  63.7466583
  26.0663967   3.4434748  67.8001022  26.3583889   4.3082805  67.5118561
  25.4650021   3.6223657  68.5229797  42.8453674  53.4182701  55.0488472
  43.6859665  53.8555565  55.1845207  42.3347092  54.0374603  54.5272560
   7.7970920  38.1952858  58.8801804   7.7072067  37.7120934  58.0587883
   7.0776029  37.8768845  59.4253273   1.0837439  31.1269436   5.8709602
   1.4825159  30.3987885   5.3945122   0.2467289  31.2720394   5.4298425
  70.0639343  57.9640846   1.8055987  69.7608871  57.8944893   2.7108867
  70.8490143  58.5092773   1.8570776   7.9810796  69.3356400  55.0010872
   8.4891148  70.0041504  55.4606819   8.4340992  69.2229156  54.1654472
  24.4561291  43.0296783  64.1559753  25.1103420  42.3324318  64.1103134
  24.3206539  43.2910233  63.2451630  57.4724045  53.9215965   4.8650494
  57.2854805  53.9481659   5.8034449  58.4266319  53.9724159   4.8093753
   2.1674626  50.4379997  32.1386909   1.4089003  50.2127800  31.6000900
   2.0419974  51.3620377  32.3546638  13.7358217  38.9886818  54.9445763
  13.3142061  39.3430901  55.7274361  13.7819300  38.0458717  55.1033783
  86.8292007  44.7488136  55.7339211  87.3586197  44.6417999  56.5241737
  85.9568558  44.9722176  56.0584755  49.4120255  15.1023912   6.4069648
  49.2911606  15.3159885   5.4817624  48.8816986  14.3171873   6.5427637
  65.9528580  52.5177803  47.4114227  65.3838654  52.7588997  48.1424141
  66.5967484  51.9225807  47.7953186   3.0359046  69.0332336  77.9382248
   3.1893504  69.4228134  77.0774612   2.7444179  69.7640457  78.4833755
   7.1311088  16.6653881  79.6198578   6.5902896  16.5687122  80.4036942
   6.6782198  16.1511993  78.9514771  84.0014648  50.5451851  52.5259590
  84.5617523  50.0634956  51.9174461  83.1105957  50.3614120  52.2279243
  42.7449379  53.4532509  61.3298531  42.6747894  52.5277100  61.5637016
  41.8616524  53.7998009  61.4561119  86.9311447   1.0550199   8.4669628
  86.9119415   1.2407491   7.5281510  86.1640472   1.5084195   8.8165550
  73.8762665  14.3668547  47.9958420  73.8519897  13.6787519  48.6607933
  74.3554764  15.0840902  48.4107704  64.3914108  46.2384491  54.6930618
  63.6123428  46.3086586  54.1413765  64.1633148  46.7148132  55.4913597
  35.5469131  23.4028969  10.2483597  36.1482811  24.1349506  10.1116676
  34.9030571  23.7354164  10.8737478   2.6965544  42.3321190  59.8717499
   2.6734347  41.8730774  59.0321198   3.3557081  41.8628883  60.3831863
  49.8431435  68.0542145  73.3830719  49.4830627  68.7312317  73.9559860
  50.7911148  68.1247406  73.4953766  20.2573414  55.4586449  33.8093758
  19.5171967  55.1286469  34.3188019  21.0062733  55.3872032  34.4011765
  71.0662613  49.1930733  43.4813614  70.4773560  49.9327888  43.3322029
  71.9122849  49.5960388  43.6765442  23.3283443  57.5123444  30.8593826
  22.4456253  57.3697891  30.5177441  23.2518063  58.2983971  31.4002113
  76.3101273  37.0025291  38.2879791  77.1787949  36.7300377  38.5836067
  75.8537292  36.1828613  38.0980186  39.0424156  62.6470642  43.8324661
  39.2876625  62.4971008  42.9194527  39.8673706  62.5898857  44.3145523
   8.0871267  41.2646561  80.5141449   7.6383352  40.4904099  80.1744919
   8.9270239  41.2752800  80.0551376  71.1237183   4.8218408  78.1788330
  71.0782852   4.1925325  78.8986511  71.0416565   4.2880859  77.3885193
  59.7376518  49.4655495  20.8099060  60.4211578  48.7982368  20.7486992
  59.6185951  49.6009369  21.7499733  71.2960968  50.4211922  46.5871620
  70.5877075  51.0150566  46.8356438  71.7475815  50.2297440  47.4091949
  75.0521164  27.6734371  29.0984020  74.6682663  27.8489723  29.9575157
  75.1678619  28.5389881  28.7064095  18.7357178  21.9046612  72.9639206
  19.6805172  21.8971348  72.8105240  18.3506184  21.8627014  72.0886078
  63.6088638  46.1255074  79.3156738  63.6476479  45.4679298  78.6211777
  63.1269684  46.8557663  78.9274368  79.3969421  41.1340599  76.9285812
  78.9224777  41.0138931  77.7511826  79.8946075  40.3238373  76.8185654
  73.6575470  37.5710526  47.2887840  73.6049652  38.5251045  47.2317848
  74.4304047  37.4056015  47.8287354  18.2859936  29.5155487  27.7254028
  18.6181698  29.3071327  26.8522167  18.3597240  30.4678020  27.7887192
  83.6194000  46.6778641  50.6446266  83.6824799  45.8998337  50.0906219
  82.8313522  47.1266899  50.3383980  69.9037094  37.7134552   4.3097005
  69.8488693  37.3902931   3.4103725  69.5542526  38.6035194   4.2660980
  22.8181267  67.7455597  61.0688400  22.6393166  67.6096878  61.9993210
  22.0119438  68.1290436  60.7235260  55.5689201  43.1405640  62.1596260
  56.3600655  42.6022720  62.1833344  55.2172203  43.0107727  61.2788925
  45.0796623  31.3936405  50.2154808  44.7410393  31.4684620  51.1076508
  45.9642830  31.7560425  50.2638741  44.8326263  12.2812777  14.5414248
  45.5070076  11.6102457  14.4358053  44.9662857  12.8737116  13.8015671
  45.8506699  66.4172821  65.3142395  45.9486198  66.4060135  64.3621368
  46.2259636  65.5855865  65.6034927  40.4282303  33.3333893  10.3137732
  40.8849449  34.1341667  10.0561018  40.9126625  33.0160370  11.0759058
  66.3728180  62.7885323   4.0655432  67.1387329  63.2793159   4.3634434
  66.7338562  62.0867844   3.5238457  38.1455498  23.6683502  75.3180084
  38.3351059  23.4302883  74.4104691  37.6519508  24.4858932  75.2530746
  68.4020844   4.9253721   2.2818310  68.9752579   5.6440573   2.0150080
  67.6513062   5.3566599   2.6899390  77.9100342  37.1530952  10.0371590
  77.2900848  36.4742928  10.3038340  77.7803421  37.2382202   9.0926151
  85.0950089  65.9303055  53.5380745  85.2573242  66.1105804  52.6121216
  85.9520111  65.6876755  53.8886566  74.7866211  41.3207932  42.9572563
  74.9868622  41.4882889  43.8781700  75.4690552  40.7140350  42.6702805
  84.4184341  63.3537788   6.7524285  84.9697800  64.0001144   7.1934400
  83.7479401  63.1305084   7.3980436  81.8278427  38.1799431  79.3291092
  81.6988831  38.2400894  80.2756729  81.7375565  37.2472267  79.1338730
  62.0240746  55.1781883  60.7949562  62.5509911  54.4026718  60.9877243
  62.6152306  55.7552986  60.3115158  56.4162750  42.5870552   8.1488857
  55.7855339  43.0094986   8.7319298  56.9198647  42.0074272   8.7204266
  19.5697212  41.8322029  79.2800598  19.2127533  42.4318237  78.6248779
  18.8015347  41.3985863  79.6516724  51.3927345  14.2950907  72.9704819
  51.4835358  15.2348471  73.1281052  51.7257729  13.8850689  73.7687302
  72.3060074   8.3113050  15.3513260  71.8851089   9.1655645  15.2547998
  71.6702042   7.7843604  15.8353825  40.2408638  55.9947853  74.8147278
  41.1828957  56.1586075  74.8590851  39.8876953  56.4136505  75.5996246
  60.2071190  21.9781837  86.3144989  59.3138351  21.6648312  86.4562225
  60.3104782  22.6971359  86.9379196  55.4804726  49.0330772  71.3719177
  54.9474373  48.2734528  71.6065979  54.8579636  49.6556358  70.9962311
  23.7031631  68.6788330  44.6158257  22.9302750  68.1812363  44.3488541
  24.2744122  68.6642838  43.8479080  37.4104424   6.8016682  82.4011383
  37.5604706   7.3624115  83.1622467  36.7995186   6.1337571  82.7124176
  71.7596970   2.6755760  24.5139866  72.3216095   2.1020229  23.9929028
  70.8782196   2.3232021  24.3912716   4.0305753  62.4955559  58.2569771
   4.8586292  62.0975876  57.9883156   3.6644676  62.8553009  57.4490280
  63.0356674  27.5899048  72.9117584  63.9525871  27.4075241  73.1172409
  62.8465614  27.0397778  72.1516037  73.5307159  12.3554335  11.0305424
  73.3144608  12.2118235  11.9518681  73.0414429  11.6795301  10.5615063
  65.3717575  30.7689800  55.5397377  65.6095886  30.2605495  54.7643890
  65.7590942  30.2869053  56.2703590  79.2149277  70.6849213   6.8213902
  79.9600906  70.3384857   6.3305268  78.8476639  69.9226456   7.2689099
  12.9396067  37.6194458  24.0980816  12.1128416  37.6025963  24.5801678
  13.1407270  38.5501213  23.9999676  80.0673904  40.7189331  24.1635380
  80.2564011  41.5839806  23.7999496  79.7346344  40.2145844  23.4211559
  33.9475594  22.0859795  24.4532146  33.6089821  22.1974106  23.5648575
  33.5167198  21.2946033  24.7762241   6.6373954  37.0787773  13.7003231
   7.4535136  37.0124016  14.1960831   5.9756866  37.2975121  14.3564692
  56.8125343  22.1213207  41.6154709  55.9342766  21.7508259  41.7028008
  56.7475319  22.9884987  42.0154800   5.0723925   7.7484660   4.1079936
   5.2134109   8.3823175   3.4047313   4.3957195   7.1620145   3.7697332
   5.6437268  26.9539776  21.6975555   4.7700734  27.1948853  22.0056534
   5.4857459  26.2992344  21.0174198  18.9925518  57.5104790  23.4851990
  19.4521255  58.1530151  22.9446697  19.6757450  57.1285553  24.0362091
  16.4199276  52.5680504  65.2447205  16.1793442  52.6032104  66.1705246
  15.8651190  53.2273369  64.8278732  85.6033096  18.5603390   2.6322494
  85.8731308  19.2980556   3.1792412  85.2494278  18.9658947   1.8407179
  63.1403999  70.0685806  75.2283173  62.5146561  69.3627319  75.3909607
  63.9942894  69.6360168  75.2266846  21.4712811  45.5825005  79.0852585
  22.1881638  45.9361343  79.6118088  20.7683163  46.2259750  79.1747589
  12.2531567  61.0228348  30.9884892  11.5971832  61.4107208  31.5676899
  11.7923517  60.3077698  30.5496540  68.8325500  10.2282829  86.8202896
  68.9631958  10.7724190  87.5968704  69.6254883   9.6949272  86.7653885
   3.9929392  50.6484604  35.3625450   3.6159694  51.3466339  34.8271217
   4.6769691  51.0812416  35.8734627  15.1625423  63.4203644  66.8446045
  14.3097591  63.8211098  67.0131149  15.6917572  63.6537361  67.6072998
  77.4426575   3.9026515  79.2051239  76.5075150   4.0521317  79.3443985
  77.7497330   4.6970477  78.7682419  71.6497192  60.5066452  57.9325829
  70.7253418  60.2584000  57.9439087  71.8814850  60.6092644  58.8556137
  26.7454262   1.6339288   5.4281449  27.3175049   2.1913805   5.9555964
  25.8995304   2.0818179   5.4375901  28.8587933   4.9269972  69.3253479
  27.9819126   5.3107862  69.3208847  29.1483421   5.0017757  70.2346344
  39.9477806  23.3624020  79.9312439  40.2810135  23.6823711  80.7695770
  39.9003677  24.1426640  79.3788147  27.6238422  62.3251877  21.3427067
  28.3512421  61.9969254  21.8712578  27.9695320  63.1125221  20.9221935
  18.1298733   6.9337921  19.0219173  18.4978104   7.5300498  19.6740913
  18.8801670   6.4282923  18.7092495  41.8794594   3.5910339  78.5287476
  42.1542740   3.1492198  79.3321838  42.5723648   4.2287092  78.3570480
  52.3085861  61.3276978  63.3438797  53.2647552  61.2854729  63.3576164
  52.1055641  62.2345047  63.5734825  60.4323692  62.9954033  36.2627716
  60.6472435  63.5180473  37.0353661  60.1350975  63.6352348  35.6158752
  83.7036209  35.9709244  32.1854782  84.1268539  35.1254654  32.3348351
  84.1108704  36.5584106  32.8220634  65.5569992  50.8010025  50.7499542
  65.2632217  51.6918526  50.5594025  65.9157944  50.8514824  51.6359291
  64.4522858  44.7861443   7.7627759  63.5546150  45.0777130   7.9221849
  64.7621002  45.3438377   7.0491767  67.9586868  24.5055027  19.3251076
  68.2105484  25.0830841  18.6045513  68.0683060  23.6220264  18.9734211
  72.6936874   1.3705864  60.0748177  73.4162979   0.7705523  60.2592926
  72.3903198   1.1191359  59.2024803  49.7931900  21.6726952  87.2818832
  50.0362778  21.7755089  88.2019730  49.3646011  22.4976234  87.0537643
   0.7156635   9.4970369  10.3174400   1.0810962   8.6357288  10.1153507
  -0.2146833   9.3324471  10.4710531  70.2834778   7.6614490  26.8076897
  70.2795563   6.7058215  26.8623924  71.0025024   7.8641481  26.2092342
  39.6987839  65.6020813   6.8025470  40.4518547  66.1561737   6.5973701
  39.2087440  65.5504684   5.9819212   0.2373119  66.5112610  10.8697863
   0.6107740  66.3952103  11.7434511   0.9971057  66.5988159  10.2942181
  37.9405403  66.6027603  27.5298023  38.7672653  66.8720169  27.9301243
  37.8464012  65.6813126  27.7712841   9.4994631  15.8961191  28.2710342
  10.3460217  16.0788670  27.8633900   9.0654469  15.2970877  27.6635609
  69.1791992  12.4611588   6.4908314  68.7722931  11.6726265   6.1318445
  69.8359299  12.1333075   7.1052027  49.2599525  46.3119659   4.7337775
  48.6436081  46.0117188   5.4017625  48.7362328  46.8686790   4.1575637
  49.4026718  31.8034859  26.0081844  49.3422737  31.3419018  26.8445587
  50.1070366  31.3568802  25.5384579  14.4303141  47.4492302  26.1486130
  14.4572535  48.3995438  26.2600174  13.7044411  47.1635323  26.7033348
  29.3004799  59.7710571  72.9823532  28.7368469  59.0417480  72.7241821
  29.8342915  59.9471359  72.2075806  55.6445541  53.5558395  84.9180832
  55.9827309  52.7911606  84.4521027  55.4558105  53.2348328  85.7998810
  10.8735247  28.5599289  83.5484619  10.3542576  28.2353840  84.2841644
  11.1787949  27.7693081  83.1035309  18.0259876  52.6763382   1.9538982
  17.5412102  53.4660339   2.1939039  17.7888756  52.5181847   1.0401168
  28.7646980  59.8637123   8.5017576  28.3217716  60.5773163   8.9609041
  29.5985699  59.7644386   8.9611425  20.8023243  24.7379780  86.5126648
  20.3560143  24.8572769  87.3510056  20.4651375  25.4425735  85.9594193
   9.4239550   2.8520555  83.3593674   8.7040701   2.2318707  83.4749832
   9.0081768   3.7129893  83.4057693   8.2368031  30.8907223  73.4914322
   8.5680332  30.8067989  72.5972977   7.3041072  30.6872311  73.4214249
  37.5373917  69.4457626  36.0933418  38.3892899  69.3133774  36.5092430
  37.7465630  69.6988602  35.1942177  44.0208549   1.9891222  47.7763138
  43.9815140   2.1115744  48.7248344  44.6819344   2.6153080  47.4811897
  44.2690887  45.7443085  80.2121582  45.2239494  45.6892738  80.1742020
  44.0899773  46.2602501  80.9982605  26.5260181   7.3280730  13.7694731
  25.6453114   6.9588275  13.7043171  27.0597858   6.7768149  13.1972504
  23.3595486  62.5671387  63.2196083  23.7374897  62.5485458  64.0988388
  22.9007988  63.4059944  63.1737900  18.0367680  35.9360542  77.8274918
  17.8023129  35.5540199  76.9817276  18.9787426  35.7850380  77.9056473
  62.1439133  47.6937637   4.1935344  61.2767029  47.7356148   4.5965548
  62.0399513  47.0823059   3.4644637  74.7961731   1.1842420  65.2337418
  75.0667953   2.0648582  64.9739075  74.8415833   0.6717820  64.4265518
  62.8025780  33.1988564  67.7529678  62.7010498  34.1427650  67.8752670
  63.5856972  32.9750557  68.2558365  20.5511360  29.2009678  10.7083683
  20.8088951  28.4411964  10.1863146  21.3339195  29.7513027  10.7330809
  78.4586182  28.6888237  30.5796604  79.0592880  29.1256580  31.1834850
  77.7219467  29.2940998  30.4949207   9.4825897   9.2350187  77.7955475
   9.1737003   8.3747654  77.5113220  10.3558035   9.3148108  77.4116745
  70.1770706  31.8578587  83.6178360  69.8648987  32.0822983  84.4944229
  69.9951782  30.9221096  83.5311127  54.4197922  18.4448452   3.5080628
  54.6982307  18.0112991   2.7013781  55.2126961  18.8665066   3.8393285
  48.6395760  56.6040115  24.7477036  49.1854172  56.2482452  24.0464783
  49.1772156  57.2886124  25.1458187  56.9504662   8.3855724  82.4364777
  56.7678642   7.7275181  83.1071854  57.9058418   8.4197731  82.3883133
  80.0374374  44.5537224  43.9212456  79.7710266  45.2107811  43.2781830
  80.0652924  45.0288773  44.7517166  78.4932022  32.4580231  47.4770203
  77.6529160  32.3394890  47.0341759  78.4291611  31.9138584  48.2618866
  33.2964554  19.1003914  21.9184551  33.4207039  20.0252762  21.7054176
  34.1034889  18.6767597  21.6261101  23.4313469   9.0257759  87.9278946
  23.4315071   8.5571842  88.7625504  23.6682491   9.9242954  88.1576157
  23.7830639  49.5264549  47.4758759  22.8976612  49.6766968  47.1446304
  24.0072002  50.3354301  47.9358215  52.4367676  26.6345730  13.6231604
  51.5773659  26.9673901  13.8817968  52.2586479  25.7659130  13.2626953
  58.7444801  44.1318436  77.9208298  59.1585541  43.7695427  77.1375580
  59.4290733  44.6604042  78.3309402  21.3532963   9.9293900  71.5775223
  21.7465038   9.5671425  72.3714981  21.0268707  10.7892399  71.8427353
  49.9246407  12.9245377  85.7504730  50.4524384  12.1590586  85.9778595
  49.0808945  12.5620556  85.4804153  69.2479401  23.3677845  54.0110321
  68.8287354  24.1067467  53.5700798  70.0524826  23.2177296  53.5146179
  86.8801727  69.0970306  80.8692245  86.0357513  69.3894043  80.5261459
  86.8264389  69.2622528  81.8105240  17.6691093  16.3627319  81.5504761
  17.8619556  15.6274281  80.9687805  18.5136070  16.5866489  81.9415283
  68.5117493   2.9397292  68.8853760  68.2874451   2.0150146  68.9894180
  69.4546280   2.9403908  68.7204132  52.3005066  37.7674484   8.3286085
  52.8959961  38.5039368   8.1900072  51.6503067  38.0984840   8.9481964
  13.2437153  59.2787743  11.3205442  12.6975241  58.5283699  11.0864391
  12.8886118  60.0033798  10.8056850  50.6118050  59.9179726  65.7873230
  51.1557846  60.6655807  65.5395355  51.0850143  59.5067368  66.5106430
  37.9122810  29.9828739   4.1216722  38.3610420  30.8165359   4.2625790
  38.1138268  29.4673824   4.9026198  43.4966888  57.7168312  31.5413990
  43.9101944  58.0487671  32.3383064  44.1339645  57.8936234  30.8494015
  51.1908150  20.5503883  11.5076876  51.9692039  21.0543671  11.2703123
  51.5242043  19.8367138  12.0515165   3.9491055  59.2080841  68.5811234
   4.2441993  59.1967010  69.4916306   3.0148892  59.0052948  68.6295700
   7.0560040  33.4205475  86.6252441   7.4852772  33.2500496  87.4636230
   6.8567047  32.5514641  86.2770920  79.1145477  25.5559425  87.5561600
  78.9357071  25.7752457  86.6417465  79.1732864  24.6006012  87.5662689
  27.0377483  53.6130295  39.8946991  27.7490883  53.7562180  40.5189781
  27.4135437  53.0332413  39.2322388  24.4363480   8.8870564  46.0379639
  23.9592724   9.0688906  46.8476372  24.4028282   9.7100019  45.5502472
  77.7564468  37.5230026  22.8760223  78.2396088  37.2844048  23.6671333
  77.2731857  36.7304802  22.6423492  38.2319717  40.7643700  89.2858429
  38.3081551  40.7990570  88.3323059  37.9982567  41.6571007  89.5400772
  80.9342499  38.6015816  82.0585327  80.4214172  37.9184799  82.4905090
  80.2977142  39.2873230  81.8565140  83.8749161  34.3922043  13.4085197
  83.9386902  34.8885689  12.5925617  84.2660446  33.5429726  13.2034550
  41.0786667  -0.1644409   2.4118116  40.9218140   0.5029142   3.0798438
  41.8127823   0.1762179   1.9006770  69.9659500  35.9098244  19.0939693
  70.9211807  35.9031296  19.0329857  69.7552490  36.7693634  19.4586964
  81.1029587  68.5329819  34.7379684  80.6578827  68.2557373  35.5387650
  81.9918365  68.1891098  34.8266563  36.4639282  54.8763771  58.3035011
  35.5200462  54.7711105  58.1841888  36.8471336  54.5331993  57.4962769
   6.1502213  33.8781166  60.1479187   5.7826762  34.5082016  59.5281296
   6.7891808  34.3824005  60.6515656  56.3159218  33.0504570  42.7102966
  56.5508537  33.9629822  42.8786354  57.0021133  32.7306061  42.1245766
  28.1493778  40.0262909  19.8297634  27.4954739  39.6389580  19.2478580
  27.9243793  39.6930351  20.6984100  17.2065277  64.2146530  12.3670263
  16.3517284  63.9192543  12.0535126  17.8373795  63.7070236  11.8565655
  31.5980530  39.7645912  82.8002396  31.0342445  39.0829086  82.4346466
  31.2113552  39.9634018  83.6529770  55.6651802  37.5082359  71.9925003
  55.5741882  36.6757927  72.4561768  54.7657013  37.7818031  71.8126831
   5.0704098   3.4963892   9.1770420   4.7408161   4.1548562   8.5654688
   4.5844903   3.6563935   9.9860611  47.5212555   6.3989110  26.9736233
  46.6046181   6.6152101  27.1445541  47.7002831   6.7777700  26.1130161
  50.4464569  58.2758675  25.8418961  50.1637421  59.1715202  25.6572075
  51.3626747  58.2521744  25.5658321  17.0711899   0.0704922  57.4849014
  17.2116566   0.9427541  57.1165810  17.5863552  -0.5112987  56.9260139
   3.1167674  45.4473038  47.3900032   2.6894298  46.2536697  47.6787758
   3.6473877  45.1759567  48.1390343  16.0096035  67.4335938  62.4156609
  16.9257221  67.2038803  62.2601395  16.0198746  67.9108734  63.2453194
  59.3315392  11.3778114   1.1629822  59.1021843  11.5259056   2.0804222
  58.4954605  11.4135485   0.6983057  45.2006493  40.2875290  77.1652603
  45.2082481  40.2954788  76.2081223  44.6917953  41.0613365  77.4071732
  77.3290482   8.6125154  64.8354950  77.7593002   8.2353802  64.0681076
  77.5023422   9.5516090  64.7698898  16.4756031   7.0266943  63.5046387
  17.2485123   7.3155208  63.0194321  15.9786539   6.5046468  62.8747635
  44.3241539  69.5137405  19.3473110  44.0363922  70.3502808  19.7128563
  43.5277939  69.1228256  18.9878235  43.9361954  70.9364395  84.1650314
  43.5778732  71.2967758  83.3538666  43.5515251  71.4747925  84.8567276
  36.7647438  68.7213821  22.7966805  37.1496582  69.5960007  22.8524513
  36.0099869  68.7539368  23.3844872  58.8644600  37.3102531  88.6975250
  58.1663094  37.9041710  88.9733505  59.6482124  37.8590012  88.6685410
  41.7389679   4.7623372  18.6060181  41.0926514   5.4635057  18.5231400
  41.2534599   4.0335159  18.9924526  18.6879005   8.9668875  58.8735237
  18.1689034   9.5890846  59.3831749  19.5149097   9.4208536  58.7116432
  14.7135201  21.8980026  67.5521469  14.3616571  22.5344315  66.9297485
  14.6948986  21.0656242  67.0798874   9.1431131  68.1419754  39.4737206
   9.8958855  68.7322845  39.4405136   9.5233917  67.2654343  39.4163475
  21.5394936   0.9584898  36.9873352  21.1857967   0.1037113  37.2332726
  22.4500999   0.7819094  36.7510109  37.1738358  60.9561234  18.0298710
  37.5028381  61.1297913  18.9118156  37.9200439  60.5758095  17.5664444
  40.1932831  52.6745605  77.2730484  40.0156479  52.7842522  78.2072067
  40.6190681  51.8196716  77.2089844  26.6334324  17.4811802  10.0231791
  26.3123283  17.7907162  10.8701210  27.1533813  16.7054214  10.2331362
  60.9299240  40.7295456  37.0376244  60.2938614  40.6381683  37.7470665
  60.6954155  40.0409050  36.4155197  65.8974686  56.0918350  76.6535034
  65.3509903  56.1509514  77.4371490  65.2738419  56.0707817  75.9276428
  31.6578979  67.9725952  62.2630424  32.4434204  67.7393723  61.7682800
  31.9678974  68.5856323  62.9296188  41.0897522  44.3997612  33.2327385
  40.1499367  44.5137329  33.0913544  41.1502037  43.8849373  34.0374336
  45.3506966   0.2976520  28.2879066  45.8836327   0.9487062  28.7443466
  45.8447762   0.0986469  27.4925976  76.2317963  13.6459208  16.3039112
  76.5861206  14.1524820  17.0347233  76.9222260  13.0182028  16.0905685
  86.1514587  15.3137522  84.0727692  86.5515289  15.9781809  84.6337585
  85.6318207  14.7766180  84.6708527  22.8319321  34.5547447  74.1520691
  23.7199593  34.6023178  73.7979813  22.9494839  34.6027794  75.1008072
   9.4402676  14.4946442  30.4952736   9.2903891  15.0560265  29.7346039
   9.2521038  13.6102791  30.1810703   3.4147770  57.6970444   7.8441238
   4.0947256  57.5698013   7.1825266   3.5642719  56.9964905   8.4790297
  64.0618057  69.6890259  66.2010422  63.5960884  68.9086304  66.5015869
  63.4141502  70.3914871  66.2586441  64.0437775  22.5018368   6.4954720
  64.3973389  22.4637852   5.6067781  63.2712822  21.9371681   6.4702897
  36.1641045  42.6161156  55.4209480  36.1417809  43.4817657  55.8288422
  35.4844627  42.1191711  55.8763199  29.1435623  21.8049297  80.5318527
  30.0732899  21.5900230  80.6070404  28.6904888  21.0096302  80.8119583
  56.8656349  70.0576706  73.4077530  56.7707253  71.0027466  73.2892151
  57.7869301  69.8834534  73.2151489  55.2356224  52.9499168  55.3960991
  55.6331406  53.2269096  56.2216225  55.9380417  52.4929543  54.9334717
   8.3525000  38.7058945  72.0561066   7.5256381  39.1862602  72.0139313
   8.1578970  37.8585052  71.6557388  47.7103004  18.7882862  17.4165154
  46.9935150  19.1359901  17.9471321  47.2931137  18.1472740  16.8409386
  41.2371063  11.3419666   1.1982527  40.8516045  10.6571245   0.6517974
  40.8284531  12.1514235   0.8916341  34.5842247  55.7609367  88.6996002
  35.5071411  55.6703339  88.4624329  34.4893723  55.2391815  89.4964752
  59.5106964  62.9081268  75.1105728  59.2942085  61.9765015  75.0726547
  58.9185944  63.2648582  75.7726822  72.4269409  58.4835968  61.1357460
  72.7715683  57.8838005  60.4741516  72.8381119  59.3242035  60.9343719
   4.5107183  23.8303680  85.0547180   4.9833903  24.4321671  85.6297455
   5.1735539  23.5165901  84.4395599  23.6122875  14.6995335   6.8901548
  23.9896088  15.5608053   6.7110705  24.2428627  14.2785835   7.4744554
  15.8290777  45.9322128  23.9283886  15.6934700  46.6325989  24.5665894
  16.6035900  45.4669037  24.2443810  25.1246662  67.6229248  41.9040451
  24.4069633  67.7472458  41.2830162  25.1459446  66.6786880  42.0595894
  17.3133526  33.0293617  71.8351059  18.0277176  33.5634422  71.4877243
  16.5210266  33.4204750  71.4670181  39.2159348  61.1779022  64.5284195
  38.8829956  60.9966202  63.6494865  40.0751953  61.5735207  64.3821716
  29.4864960  11.7216787  11.8774996  29.0955296  12.1966953  11.1441946
  30.3053780  11.3715134  11.5267172  22.5601349  65.5796051  87.8868179
  22.2551174  66.4291077  88.2054825  23.1737404  65.7936707  87.1840439
  36.2168350  62.8096046  53.0105324  35.3547363  63.2005005  53.1527214
  36.5786591  62.7011566  53.8900490  59.7524567  23.7529030   9.1997757
  60.3542824  24.4281445   8.8865814  60.3217392  23.0741959   9.5624170
   2.6138682  67.7289734  42.1290588   2.4347079  67.5000229  41.2170753
   3.4700739  67.3409882  42.3096466  32.8749352  71.5822678  32.0509262
  33.3044167  71.4911499  32.9015007  32.3115044  70.8114166  31.9833107
  34.0742912  52.9140167  42.4329872  33.7526398  53.2714920  41.6053543
  34.4213715  53.6724091  42.9026756  31.8374519  16.8293285  74.3087158
  31.1930065  17.5320625  74.3929062  31.3945160  16.0552483  74.6563416
  19.4132290  49.6221657   1.9716692  19.4974575  50.2771683   1.2787714
  20.3146076  49.3760567   2.1794643   0.2445083  10.1125460  46.7714157
  -0.2373166  10.1594563  45.9456558   0.3397891  11.0247698  47.0452766
  55.7699203  58.7573700  48.9774208  55.0610924  58.5147781  48.3816490
  55.4538193  59.5467911  49.4168777  44.1134377   9.7257185  69.0685272
  44.9174500   9.5422821  69.5544739  44.3817825  10.3388615  68.3842163
   4.0560422  10.3088722  10.0530548   3.8514636  10.9419384   9.3648643
   4.4821935   9.5851946   9.5937977  12.9733906  50.0760765  55.6974754
  12.7626648  51.0032043  55.8082085  13.5920458  50.0566177  54.9673271
  25.6198273  27.0409298   1.1149468  25.0767479  27.3581543   1.8365195
  26.1406994  26.3357811   1.4992510  30.6277828  54.9338646  68.7890854
  31.2365704  54.2864647  68.4334412  30.2361031  55.3434410  68.0176849
  64.5077209  59.4649277  19.2140236  63.5838280  59.2174301  19.2512951
  64.4980316  60.3909683  18.9719677  62.4948921   9.2002649  45.3711319
  62.4554329   9.7226782  44.5700340  61.8674545   9.6183386  45.9608536
  18.5772762  39.8547134  73.6383209  19.3848400  40.3678970  73.6116791
  18.8658237  38.9483452  73.5312271  21.0684547   8.6914291   4.5274649
  20.1865559   8.4623632   4.8207474  21.5308094   7.8545132   4.4823947
  58.3442268  11.8049660  63.2173424  59.2862358  11.8695021  63.0602188
  57.9543991  11.8143644  62.3431702  35.6370964  42.7836037  84.4404526
  36.3268623  42.9218521  85.0895615  35.4717979  43.6537971  84.0775833
   7.2205625   8.9104013  22.3796253   6.9756589   8.5839109  23.2454548
   6.3957100   8.9471216  21.8953724  14.0032616   4.0973144  57.4248161
  14.1690979   4.6776309  56.6818771  13.1244736   3.7520239  57.2675362
  43.2908173  25.4806366  13.5772171  43.0428123  25.3920155  14.4974737
  42.5442581  25.9192200  13.1691341  80.1552124  18.1601524  62.1457520
  80.5416031  18.9891033  62.4281921  80.9051514  17.5828075  62.0025749
   3.0907187  65.7208099  32.5091820   3.1484299  65.2387924  33.3341408
   2.8733425  65.0545578  31.8571968  11.2017126  14.0260210  32.7846985
  10.6423435  13.9961090  32.0085258  12.0908327  14.0937691  32.4366913
   9.3277721  16.3418884   1.7978201  10.0404596  16.6027088   1.2144834
   8.8629961  17.1569176   1.9874102  50.4283142  12.8551788  22.7362728
  51.2898026  12.6992245  23.1232471  50.5034370  12.5216970  21.8421936
  34.8820648  36.8567238  78.3518753  34.7436066  37.7820740  78.1499023
  34.9639015  36.4345589  77.4967117  81.8515396  42.4546204  33.1721840
  81.7894363  42.2560120  34.1064873  81.6985321  41.6152840  32.7382088
  28.5536518  43.0439072  73.4082184  28.1593151  42.9884644  72.5377884
  29.4772587  43.2317657  73.2412186  29.8700294  52.2962990  23.7860889
  28.9488029  52.5552444  23.7633362  29.8525524  51.3421898  23.7112522
  18.9420547  51.9931145  24.1361675  19.7708130  52.4707870  24.1012154
  18.4837685  52.3634834  24.8905087  11.8844461  45.2029152  56.9566765
  11.9480209  45.4563103  56.0358162  11.1482124  45.7125244  57.2950401
  22.6037102  67.2950974  36.7994843  22.6532879  66.6953049  37.5438080
  21.8915310  66.9501419  36.2609329  56.0567551  25.1310749  46.4085693
  56.3746033  25.8228207  46.9888229  56.8416405  24.6361351  46.1735687
  65.2819977  22.0209446  46.0781975  66.2328949  22.1124649  46.1386909
  64.9998245  21.8533821  46.9773827  29.0482349  51.7010193  39.4708481
  29.6103516  51.4426689  40.2012672  29.6510029  51.8290558  38.7383804
  56.7027359  22.9207344  36.0399895  57.4431534  23.0417023  35.4455299
  56.7310753  21.9925270  36.2720680  62.3423424   8.0825577  55.8195381
  61.8612823   7.2689438  55.6683960  62.9596977   8.1348591  55.0899010
  50.1826477  18.8804379  39.0408134  50.2942772  18.1576347  38.4232941
  50.9146767  19.4687595  38.8557739   8.1072559  49.3503838  37.2035522
   7.4249701  49.4344101  36.5374756   7.6280789  49.2305717  38.0234718
  21.0224400  36.2317963  14.8127146  20.5058765  36.9239311  15.2254438
  21.8181229  36.6723442  14.5143194  67.3578491   2.4941454  84.5945663
  67.3356018   2.7698598  85.5109329  68.2874451   2.3666444  84.4053116
  69.6010818  14.8296051  37.0584335  69.4792328  15.7172117  37.3953896
  68.7876434  14.3758841  37.2790947   2.2996497  45.0799904  84.0947952
   2.2183976  44.3652267  83.4633331   2.5692875  45.8337250  83.5699997
   2.5414281  22.8029022  30.9453163   2.8337491  22.0398960  30.4467163
   2.3340466  22.4567242  31.8132954  58.7376785  11.2864790  48.6814804
  59.1378479  11.5353022  49.5146599  58.0499153  10.6657133  48.9220352
  79.2969437   5.4169149  58.4352303  79.2556076   5.8204207  57.5682182
  78.8166733   4.5944438  58.3397789  71.4489136  63.4559555  65.2912216
  71.0374832  62.7694702  65.8162918  71.5157700  64.2038727  65.8848343
  56.5238571  53.5474243   7.7199106  55.7366371  53.4795532   7.1796269
  56.2915535  54.1755447   8.4038200   1.0892216  48.5141678  51.8509941
   1.9233429  48.4523659  52.3164558   0.4642533  48.0629692  52.4185028
  62.8767166  16.1334267  57.1481972  62.5779686  16.1834373  58.0562057
  62.4555664  15.3473425  56.8004417  29.7362404  26.9759216  12.3493261
  30.6089344  27.2026672  12.6706095  29.1463470  27.5600796  12.8257885
  19.0502167   3.8518836  37.4799919  18.3030930   3.4380617  37.9121857
  18.8600979   4.7892275  37.5183792   5.2232480  63.3509598  29.5317612
   4.4050088  62.8542595  29.5336876   4.9746232  64.2208862  29.2192707
  70.0009689  69.8584976  62.9944725  69.4213257  70.3930740  63.5371246
  69.5578232  69.0123444  62.9321899  78.7490845  49.6859932  53.5403862
  78.9272766  49.7570114  52.6026077  78.4703751  48.7785378  53.6631775
  79.4291611  33.0507088  40.4152985  78.6150131  33.4459038  40.7270927
  79.9075775  33.7747841  40.0114822  75.5244370  54.8638458  42.0806313
  75.0130234  54.2468643  41.5571632  75.6251068  55.6305847  41.5165367
  69.9944229  25.6520805  13.2804689  70.6934052  25.9349785  13.8700638
  70.2461777  24.7666664  13.0179987  68.1309738  67.7506638  47.5782661
  67.8500748  67.3154678  46.7733192  68.8611526  67.2192688  47.8955765
  83.8820114   3.6664841  86.2636871  84.2676468   3.2705460  87.0451889
  83.2772827   3.0025775  85.9323730  65.0933228  48.4917603  37.9867821
  64.4395905  48.7587128  37.3405533  65.1059494  49.2060585  38.6238441
  73.2864151  48.2034912  82.3859253  73.7828979  47.8951645  83.1440048
  72.8781204  47.4143181  82.0299377  63.4206924  49.1917572  18.4743938
  63.5568237  48.5279121  19.1504211  63.1980476  48.6917572  17.6891136
  48.2353020  23.3177357  41.8575859  48.1215515  23.9770546  42.5421219
  48.8606377  23.7103367  41.2484474  54.1763763  30.8591709  40.3017159
  54.8390732  30.3329601  39.8543167  54.5106316  31.7549324  40.2556992
  16.6446018  49.5559921  27.4267006  17.4810638  49.3583412  27.8480034
  15.9977474  49.4715309  28.1271858  37.6546936  57.7832680  32.4052467
  38.1497574  57.1653671  31.8673439  36.8993950  57.2818184  32.7123375
   8.8902769   6.0051818  76.3851089   8.1556892   6.6182933  76.3585281
   8.4899111   5.1458325  76.2529831  68.1779556  31.8869476   0.2536807
  67.5441895  32.5872002   0.4092742  67.8382416  31.1419296   0.7494321
   7.2878895  39.7092171  36.6774902   7.5528178  39.1353836  35.9586296
   6.7862225  40.4064026  36.2550011  34.5059700  70.2553558  18.0731907
  35.1034088  69.8295898  18.6880283  34.3561554  71.1236496  18.4471626
  70.3565750  54.3820114  69.4202576  70.1463013  53.4545898  69.5293579
  69.5179520  54.7951775  69.2147141  47.3408585  55.1221123  64.3010635
  46.6904106  54.4457130  64.1122971  48.0602875  54.9377594  63.6971893
  43.1030960   7.3091874  58.2073708  42.3261986   7.8441529  58.3700790
  43.4129868   7.0653834  59.0795860  80.4373550   3.4145222  51.5557594
  80.5192947   4.3667202  51.5024986  80.3183975   3.2361672  52.4886398
  71.2839279  28.4353619  33.6411972  71.7057648  28.6769714  34.4657631
  70.5310974  29.0229397  33.5761337  45.8924179  70.9851151  77.7505875
  45.0178757  71.3500519  77.8856125  46.3307457  71.0951157  78.5943832
   3.5371122   0.2044130  53.6045876   4.2939091   0.4143064  54.1517944
   3.6498020   0.7447064  52.8225288  80.8796005  56.2156296  27.7091484
  80.0415192  56.6748505  27.7635555  81.1811371  56.3726997  26.8143654
  35.8276100  48.3134193  32.9919357  35.1392975  47.7541122  32.6318932
  36.0147133  48.9419250  32.2946548  23.0753307  24.8608952  81.8187180
  23.1932259  24.5019798  80.9392166  22.1409836  25.0618324  81.8721390
  10.3077335   5.8543897  15.5962734  10.1488647   5.0608664  15.0850849
   9.5775213   6.4322467  15.3746834  83.7770309  39.2301483  19.2844906
  83.0237122  39.1155434  19.8638096  83.5972595  38.6545486  18.5411205
  11.5320091  36.0811958   7.9882336  11.7338591  35.1468353   7.9386053
  12.3829317  36.5140610   7.9190278  68.0872116  41.4377136  77.1644440
  68.9482269  41.4125214  76.7470093  68.2374954  41.8862877  77.9965668
  79.7370224  17.6041336  53.3936043  78.8098221  17.7170410  53.6028214
  79.8042297  16.7012672  53.0828857  -0.2613418  32.2965088  63.0650406
   0.6470177  32.2296562  62.7706871  -0.1979949  32.6017532  63.9700546
  71.6806717  62.6060066  26.4357662  72.2641449  63.1792946  25.9386520
  71.0440521  63.1994934  26.8341675  81.3985138  51.0979118   3.4674819
  82.3346024  50.9065933   3.5255272  81.0890274  50.5606918   2.7382057
  30.8353100  51.1031570  66.9540710  30.8861217  50.8906441  66.0221405
  31.1997185  51.9859200  67.0186462   4.4137416   1.5291779  30.1823311
   5.0854383   1.2765902  29.5488834   3.6547816   1.7609122  29.6470642
  35.0285645  17.1660938  11.5486670  35.4907341  16.4755325  12.0238028
  35.6575394  17.4681892  10.8934088  71.2788162  11.6681786  84.8038177
  70.9869461  10.8533220  85.2125397  70.6368332  12.3203011  85.0845718
  86.4521790  66.9852753   6.2498460  86.0203781  67.7361755   6.6571908
  86.8647156  67.3435364   5.4639077  28.9264317  57.6683578   6.2927799
  28.6240215  57.3242416   7.1332340  29.4681034  58.4229622   6.5238662
  27.3125820  55.8630829   8.0633183  27.1224213  55.0664482   8.5587416
  26.4580250  56.1608963   7.7514319  52.8160439  68.9127121  82.5873260
  52.8102989  68.4029922  81.7771530  52.9578934  69.8151627  82.3015213
  58.1189766  15.0616064  29.2115688  58.4362564  15.3125772  30.0790806
  58.1351700  15.8743858  28.7062359  28.5066490  60.5226021  29.2036266
  27.5683231  60.3336182  29.2115326  28.8967323  59.8207130  29.7246075
  46.0094757  34.7878952  70.6889496  46.6137466  34.8565636  69.9497757
  45.1687355  35.0829697  70.3392181  30.5435181  46.0833626  23.0393353
  30.4890766  46.1965256  22.0904083  31.4731445  46.1909981  23.2404346
  13.5463562  40.1233711  26.9884186  13.3706675  39.3753700  27.5592575
  13.3050089  40.8868332  27.5129242  64.7776260  55.0310135  55.7884369
  64.0022278  54.8565216  56.3218613  65.2585220  55.6995125  56.2763672
  40.1226883  12.5676346  84.9234772  40.2632637  12.9447870  84.0550156
  40.9944572  12.5433111  85.3180084  57.5683441  20.3964615  53.9982491
  58.4241486  20.7469082  54.2452583  56.9591675  20.7892494  54.6234322
  49.5754662  39.1930885  79.6435089  48.8103943  39.7435188  79.8106003
  49.4144478  38.3983612  80.1521454  31.9132462  24.4913559  12.7717543
  31.6317177  24.2398682  13.6513720  31.4696655  23.8721066  12.1920996
  68.2410889  46.5763588  74.1805038  67.7949905  46.1656570  74.9211502
  69.1673660  46.5630188  74.4214783  80.4409943  64.4490356  81.2624664
  79.9159317  64.3064957  82.0500107  81.3050842  64.1023407  81.4847107
  65.4767609  67.0122452  34.2651024  65.7901917  66.9088898  33.3666000
  65.1837387  66.1370010  34.5187187  12.8983355  38.8240662  77.6439438
  13.6083088  38.3125534  78.0319138  13.3301287  39.5991745  77.2847824
  57.3056450  14.2067060  38.5546417  56.8476486  14.8771706  38.0477409
  56.7518501  13.4296026  38.4794273  25.4374180  24.6225834  86.9238434
  24.7525501  25.2163162  86.6161575  26.2232761  24.8984604  86.4520874
  33.2024307  41.9054794  72.6681747  32.8690987  41.1657372  72.1603317
  34.1142197  41.9948883  72.3909149  54.0247040   0.0640032  82.6758041
  53.1897964   0.2851343  82.2631760  54.5339012   0.8734946  82.6349182
  32.6472359  43.3055725  26.8159809  33.0683556  42.5013657  26.5124378
  32.3436241  43.7337799  26.0155506   5.0198236  62.3193703  87.8886490
   4.4653287  62.9415359  88.3594818   4.8519139  61.4788208  88.3146896
  79.8127670   9.6340761  62.1264763  79.1938095   8.9445581  62.3666573
  79.8462524   9.6034603  61.1703529  69.3998718  20.2947884  40.9640846
  69.5795288  20.2128639  41.9006958  70.1672516  20.7454185  40.6115303
  29.1105289  70.4417648  47.2523155  28.2229576  70.1636505  47.4783669
  29.2833347  71.1846695  47.8306389  40.1645775  11.9382133  26.0467758
  40.9921951  11.8800640  26.5241642  40.4154167  11.8815384  25.1247673
  59.1633873  24.0129814  88.5444107  58.9448967  24.0052013  87.6125107
  59.8750954  24.6487865  88.6182480  53.9619255  44.5831108  41.5533257
  53.5614967  45.4230804  41.3289680  53.5455589  44.3319054  42.3778076
  40.9526253  20.2273350  17.0635414  40.4403496  20.1739330  17.8703594
  40.3158264  20.4692421  16.3910789  59.4840469   7.9186792  82.6482162
  60.0249405   7.9425793  83.4375839  60.0661354   7.5775013  81.9692459
   7.3009915  54.7760429  47.9892921   8.0431175  54.1739807  47.9344788
   7.2901511  55.2206459  47.1416817  63.6035194  25.8121109  55.1774139
  64.4477310  25.9762001  54.7571526  63.4263916  24.8871956  55.0059853
  45.4884949  20.3080273  74.9873886  45.2497673  19.7208481  75.7046509
  45.1449966  21.1613808  75.2520218  64.4996643  64.5911865  81.6536789
  65.3057556  64.0854263  81.5504303  63.8113594  63.9309464  81.7345428
  69.0232315   3.2530928  57.3647346  68.1991501   2.7712195  57.2946358
  68.9322662   3.7677732  58.1666451  14.4383821  13.9812775  72.5267944
  14.6361341  14.2927999  73.4100189  15.2907295  13.9309855  72.0941238
  10.2341642  43.4201050  48.1623039  10.8958120  43.9537735  48.6023598
  10.7043314  43.0028076  47.4404716   3.4338007  26.1819305  37.4956474
   3.5188830  25.5981541  38.2494354   3.2018824  25.6031132  36.7694092
  15.7827034  40.5332756  73.2702026  15.1601782  40.1144905  73.8646088
  16.6413364  40.3341942  73.6435013  65.3172302  33.1465149  69.3802795
  65.9038620  33.1349182  68.6240005  65.8695374  33.4336166  70.1074371
  17.7059326  65.4877243  68.6438446  18.6170444  65.4822159  68.9372330
  17.5244007  64.5776901  68.4090729  84.4765930  30.7743340  36.3772507
  83.6708908  31.1564541  36.7251968  85.1782913  31.2752151  36.7931366
  81.2375793  10.3763237  66.1647339  81.3793335   9.7437983  65.4604263
  81.4006042   9.8813133  66.9676132  46.3429489  11.3395405  44.1030846
  45.6604233  11.8612537  44.5252304  46.3934517  10.5410299  44.6285019
  86.3561096  68.5895844  20.2764091  87.1119690  68.1419525  20.6565838
  86.6977310  69.4374695  19.9924774  56.0804176  32.5152779  18.6811733
  55.3716469  31.8942719  18.5131569  56.4475212  32.2383385  19.5206776
  13.7388906  70.4434204  36.5799789  13.2001848  69.6549149  36.5145264
  13.6302853  70.7331848  37.4857788  78.9945679  64.4057617  78.7801285
  79.2933273  64.1357117  79.6484909  79.7482452  64.8538132  78.3961411
   0.9821395  39.6119804  34.2374115   1.5273614  38.9057159  34.5840454
   1.0659994  39.5348740  33.2870140  25.0379505  56.5783653  23.2852783
  25.7746525  57.0514450  23.6721859  24.9754429  56.9204483  22.3934803
  67.3017044  42.8388634  60.2281609  67.1657333  43.0979843  61.1395340
  66.7520065  42.0634422  60.1150589   6.0351076  42.5644417  46.8422165
   5.2142935  42.7102280  46.3718529   6.1455722  41.6136360  46.8421631
  59.5193024  68.7404022  57.8389244  60.0520058  68.5215454  57.0743561
  59.5414200  67.9511871  58.3801041  64.6292343  11.0483265  74.4674149
  64.0370102  11.7699995  74.6788101  64.8296432  10.6473646  75.3131638
  76.3608627  16.7058449  53.2393761  75.9740448  16.3672028  52.4319572
  77.0534744  16.0808563  53.4536324  79.9155426  44.4124603  71.7729568
  80.8433151  44.5054588  71.9893341  79.8019638  44.9320183  70.9770966
   1.2396544  58.2886772  51.7851486   1.6447543  57.8599396  52.5390129
   1.9659042  58.7230568  51.3378143  69.6551208  67.1633072  64.6170578
  70.1417160  67.6346588  65.2932892  69.2475128  66.4320145  65.0810623
  67.0929031  12.9598055  64.5524292  66.8628387  13.3758154  65.3832321
  67.8193665  12.3757601  64.7700958  22.5875244  54.4751892  63.9480133
  21.7690945  54.2114983  64.3685760  22.4438534  55.3871117  63.6950645
  54.6360970   8.3997326  81.1890869  55.4797478   8.4305553  81.6402435
  54.1996384   9.2133799  81.4415054  74.2163773  21.7885742  33.3542747
  73.5893326  22.4953728  33.5075150  74.9173050  22.1963158  32.8456726
  29.5757275   0.5566885  18.8559208  29.5350628   1.2511600  19.5134068
  28.9738541  -0.1140755  19.1784992  74.8513870  27.2296734  47.7958565
  74.5570221  28.0782795  48.1266823  74.4300690  27.1468735  46.9403648
  16.9692135  60.5291595  51.7242966  16.3804588  59.7932701  51.5567741
  17.2211285  60.8373260  50.8537750   8.5759277  69.8518677  28.4904747
   9.0470438  70.6848297  28.4692726   9.2645798  69.1870499  28.4870930
  29.4644566  17.7886448  79.9782867  28.9264183  18.3758945  80.5092087
  28.9949284  17.7196064  79.1470108  17.2568455  46.3377304  77.4445038
  16.3700981  46.4537354  77.7857590  17.1299267  46.0056000  76.5557861
  63.0950165  69.9668655   9.4035845  63.5494995  70.2475586   8.6092997
  62.3765831  69.4189682   9.0875187  74.3241806  27.2171288  74.1965561
  73.5659637  26.8350849  74.6385803  74.3477325  28.1239586  74.5020752
   3.8652883   4.3801923  33.7831192   3.0443022   4.1584525  34.2224884
   4.1030378   3.5859325  33.3047295  19.6731758  11.7111998  19.1459198
  20.4806461  12.2213535  19.2088966  19.9561691  10.8527737  18.8308773
  10.0307360  20.6603069  12.8235044  10.2050600  20.4497986  13.7408533
   9.1597576  21.0572758  12.8301945  52.5293541  18.6377792  60.7407990
  52.5213699  19.3892784  60.1479950  52.6761322  19.0176048  61.6070671
  23.1389217  43.0199013  85.3613358  23.6590710  42.8988190  86.1557007
  22.4166813  42.3981438  85.4508743  75.9270935  54.7609291  74.2102890
  75.2450714  54.8921509  73.5516129  75.9907990  55.6033859  74.6602173
  30.6355991  59.0119438  88.0205383  31.5198689  59.0102234  88.3870087
  30.2912903  59.8802071  88.2298279  70.3832932  40.9601555  75.9093094
  71.0813599  41.1006355  76.5490036  70.6488037  41.4759026  75.1479111
  49.6069336  24.1569786   4.2558928  49.5860100  24.3836136   3.3261454
  48.8314590  24.5810928   4.6233120  81.0738220   2.3721335  26.9343452
  81.4948349   1.9624500  27.6900845  80.8783035   1.6436564  26.3450031
  26.8070965  51.8397102  32.8352928  27.2776489  51.3040733  32.1966171
  25.8895950  51.7787704  32.5693817  82.0167694  45.2556534  21.4259872
  82.7511826  45.7410469  21.8018188  81.5858307  45.8839836  20.8465652
  63.4815445  47.4914017  87.5609818  64.4226379  47.5410652  87.3933182
  63.1965141  46.7050362  87.0955582  18.2709599  51.5620232  45.8948288
  18.8659725  52.0700798  46.4462547  17.9809151  50.8422470  46.4552078
  43.8407898  17.8554096  12.2779388  43.9157982  18.4320831  13.0382366
  43.8863907  16.9714680  12.6423550  15.2797117  54.1231155  51.4004211
  16.2199078  54.0059280  51.2642937  15.2007647  54.9941063  51.7894936
  79.1381531   3.1402538  87.6462250  78.9935608   2.3504152  88.1672592
  79.6543884   3.7112947  88.2151184  17.4964771  34.8776169  13.6767836
  16.9634781  34.2591057  13.1771955  18.0693035  34.3250923  14.2085915
  82.4657822  10.6310587  72.8956299  81.7876434   9.9608517  72.8109131
  82.5264206  10.7927713  73.8371201  17.2752056  63.4971962  18.6019993
  17.9644089  63.5940132  17.9448395  16.7139072  64.2620621  18.4748802
  49.1121140  31.0682316  79.9316483  49.8217773  30.8399124  79.3312454
  48.5557671  30.2895813  79.9520035  39.2178078  24.8345623  13.0427160
  38.3771133  25.2648811  12.8868618  39.8614235  25.5413589  12.9934626
  44.2597618  27.7684708  23.8692303  43.7047043  28.4146862  24.3057461
  43.7941132  27.5609951  23.0590706   2.1013300  56.8989334  56.8092918
   2.7041898  57.5782585  57.1114731   2.3315690  56.1270790  57.3264580
  84.4607544  17.1710358  77.7394409  85.0971069  16.6387787  78.2169266
  84.0902176  17.7535610  78.4024658  12.5150318  42.9449425  57.8897972
  12.1483955  43.7662697  57.5623322  12.9253473  43.1807098  58.7218361
  48.1666870   1.5199327  78.8170090  47.2862625   1.8382548  79.0163879
  48.6626511   2.3087418  78.5978470  75.3404388  29.8143139   0.8282073
  75.7006302  29.3619080   1.5909799  75.1887894  30.7098160   1.1303827
  30.7700157  50.7732315  41.5224266  30.8575993  51.2028961  42.3732796
  31.4835377  50.1355171  41.5015640  86.5455475  32.8991547  44.1715736
  87.0573654  32.5607605  44.9062576  85.6586456  32.9910202  44.5196953
   2.4223843  63.2216263  47.0082054   1.7418929  62.5988617  47.2637978
   2.3812392  63.9080124  47.6740990  27.5173206  45.8309097  86.7700348
  27.2069550  45.9679451  85.8749771  27.8884144  46.6750832  87.0267410
  56.8601151   8.7055225  44.3415031  56.9754677   8.1098728  45.0818596
  57.6301193   8.5572357  43.7925644  83.8566208  61.3044853  60.9118080
  82.9636841  61.0195503  61.1059837  84.3916702  60.5216942  61.0429268
  81.5448074  39.2984695  20.7327747  80.9485550  40.0298653  20.5722370
  80.9699402  38.5622940  20.9420605   6.2066789  39.6707382  25.8158989
   5.2556200  39.7671127  25.7665939   6.5467052  40.5410080  25.6079407
  57.7149124  63.4468384  43.3544655  56.9661102  63.0215416  42.9365578
  58.2320557  62.7247276  43.7113228  44.6476517  24.0817719  11.6150208
  44.2198219  24.4175835  12.4026909  43.9706230  24.1210022  10.9395008
  14.3362026  34.9257050   9.5723448  14.4070091  35.5202065   8.8254938
  14.1407442  35.4967041  10.3153048  22.5143661  23.5891685  59.9892883
  22.5285530  23.9913559  59.1207962  22.9669647  22.7536831  59.8737526
  74.0076981   2.1895521  33.5985413  74.8494644   2.5755420  33.8407593
  74.1278992   1.2494196  33.7324600  82.4687729  56.3880157  61.1046295
  82.6515045  56.6226044  60.1947899  83.1356583  55.7369003  61.3226662
  81.1935120  49.8403740   0.9376992  80.3191605  49.9421768   0.5616879
  81.3864059  48.9072800   0.8462474   6.6212702  50.4589729   3.1591029
   6.6855702  49.7355881   3.7826483   7.5207438  50.6020203   2.8646257
   3.8199015  26.9165955  84.2214432   4.3334489  27.1173668  83.4390182
   4.1078324  26.0407238  84.4786911   0.7280641  49.9901466  13.3955412
   1.5123535  50.4082947  13.0401897   0.3644212  49.4982567  12.6593075
  78.2067261  11.1420832  26.6438828  77.5826797  10.7093191  27.2265606
  78.6257172  11.8056116  27.1919765  61.6767044  47.6514397  31.1321621
  62.1795464  47.4272842  30.3491325  61.5553741  46.8173409  31.5858059
  38.7945213   7.0665946  14.9910479  39.2216415   7.9231176  15.0039549
  38.7826385   6.8187871  14.0665579  51.2262344  30.9169312  29.7530231
  50.5546684  30.9970207  30.4303837  50.7351303  30.7644577  28.9456825
  75.2832489  16.6642075  48.3458481  75.5068436  17.0706425  49.1831322
  75.7663727  17.1740303  47.6955376  21.2470264   9.5645561   7.8040485
  20.8907757  10.0211048   7.0418935  20.5585899   9.6300268   8.4658651
  59.4111786  63.9565659  55.7123985  59.4397697  63.3763084  56.4731331
  60.1222763  64.5801086  55.8599205  65.8328247  15.6852283  34.6868057
  65.5437164  14.7972279  34.8968163  66.7885132  15.6314764  34.6834908
  79.1071472   3.1041181  39.8111267  79.5866852   2.2776740  39.8682594
  79.3270950   3.4493325  38.9458618  45.4836082  67.5056610  46.7950706
  44.9177055  68.1835175  46.4256172  46.1978912  67.9896545  47.2095375
  83.1521530  65.0901794  88.4114990  83.1321793  65.1735764  87.4581451
  84.0705109  65.2262039  88.6446304   4.2626467  66.4129028  63.8953362
   4.9400420  66.8159027  64.4384384   4.4801469  66.6814117  63.0026817
  30.8903198   6.2186489   1.3569711  30.7957611   7.0424042   0.8787276
  29.9918365   5.9392200   1.5326982  56.3110733  10.4055147  67.2621536
  55.4133072  10.5283651  67.5706253  56.2446022  10.4488153  66.3082428
  71.6391144  13.5753279  38.2923241  71.4702988  13.8037882  39.2064018
  70.8644333  13.8827715  37.8215981  52.8623352  64.5943909  24.3306961
  53.5720215  64.5774231  24.9727898  52.5865135  65.5105667  24.3027191
   8.1128139  18.9607525  36.3671303   8.2204752  19.7493343  36.8989029
   7.6534557  18.3465500  36.9398232  85.4918518  51.5605164  29.3513317
  84.6712341  51.0679016  29.3633804  85.2593994  52.4036179  28.9622574
  73.4375610  10.7847900  40.5019188  74.2773438  10.4519119  40.8184357
  73.0706635  11.2579956  41.2487068  60.8065567  30.6649742  24.0262928
  60.3269806  31.4478073  23.7553482  60.5777359  30.5512047  24.9487514
  70.9506607  66.5874329  32.3892479  70.0063858  66.4307175  32.3939323
  71.0819550  67.2786713  33.0382309  58.7287064  55.3732224   2.2521334
  58.9215584  54.4813805   1.9629039  59.5872459  55.7607117   2.4224248
  61.2325859   1.1048722  21.1951370  61.6253204   0.4467770  21.7686348
  60.3824310   1.2925528  21.5929375  69.7541122  36.6970367  13.8331394
  70.6300812  36.9301872  13.5256681  69.9035950  36.0134697  14.4863024
  26.5314541  19.2853966  16.9539433  25.9969711  20.0038528  16.6157398
  27.4097691  19.4607258  16.6162224  75.3888016  70.7562408  10.5089407
  75.4254456  70.5716629   9.5704203  75.8939056  71.5624542  10.6143866
  83.4990082  15.9041080  43.1769829  83.9660339  15.0846367  43.0139465
  83.4244766  16.3129520  42.3147049  57.0702171  57.0523338  14.3640642
  57.1381149  57.8268013  14.9224787  57.0331879  56.3178139  14.9767160
  82.0848694  17.5084896  34.0995789  81.7685089  17.4037666  33.2022591
  83.0386810  17.4932671  34.0205727  86.5889435  55.9148102  13.3862839
  87.2026825  55.4688873  13.9699841  85.7656784  55.9345245  13.8742142
  11.7282171  69.0362320  78.3105927  12.1413536  68.2978973  77.8629150
  11.4566603  68.6815033  79.1571426   3.5398078   8.2173243   0.2068825
   4.3768740   7.8014464   0.0004894   2.9923210   7.5039001   0.5347783
  71.3746185  46.5753479  24.3796158  71.7926254  46.1132698  25.1062412
  71.9401703  47.3307457  24.2191334  11.5377960  57.9609184  75.3298721
  11.7192669  58.3941536  76.1639023  11.3128386  57.0622482  75.5707397
  35.2051544  65.6687775  70.2211685  34.7295685  66.3341293  70.7185211
  34.5545044  65.3104019  69.6174698  32.5942421  45.3643837  28.7261143
  32.7836990  44.5613861  28.2407970  32.2401733  45.0610962  29.5621052
  76.1133804  40.7396545  79.4991226  75.7353287  41.4383469  78.9651413
  77.0080872  41.0305023  79.6755905  30.9689674  57.2599525  21.4342690
  31.7869473  57.5257759  21.8543625  31.1433182  56.3772774  21.1075840
   9.2080069  67.6710815  15.0571957   9.0219774  66.8078308  14.6878481
   9.2560692  68.2513580  14.2974586  59.2554092  70.5232468  68.1241302
  59.5866852  70.3471527  69.0047455  60.0189056  70.8365707  67.6392212
  17.7656822  51.8768501  86.2382736  17.9002895  52.2034874  85.3486557
  18.0618458  52.5907745  86.8029251  52.1983376  52.2492523  13.5318727
  51.7340012  52.2351074  12.6949587  53.1177177  52.3686180  13.2937012
  54.0163231  36.2054062  30.1900158  54.2230606  37.1213989  30.3756275
  54.2685547  36.0836639  29.2747078  43.7599144  50.2579651   7.2725024
  42.9265137  49.7872467   7.2625241  44.4226112  49.5737000   7.1784768
  16.0959606   0.6530678  48.0664597  15.6442041   1.2343980  47.4547386
  15.4832373   0.5485182  48.7943802  85.7065659  59.4208450   2.6133919
  85.6494522  58.9595261   3.4501429  85.4524765  58.7673492   1.9617705
  84.2106247  14.6885719  59.7170372  83.8996735  14.3733282  58.8684120
  83.6457520  14.2536058  60.3557510  25.4590473   9.7230968  10.1377201
  25.1976147   9.6715164  11.0570812  24.8140774  10.3063679   9.7376690
  69.1583405  32.9470634  49.9481659  69.4947510  32.1070328  50.2602730
  68.2638855  32.7567215  49.6654053   1.7371715  21.3970547  60.8798180
   1.0928208  20.7079945  61.0418053   2.5818262  20.9796524  61.0488319
  33.1738014   7.6927323  88.6808853  32.6529388   7.9741402  87.9287262
  33.0586510   6.7429323  88.7100754  34.7410698  25.9696598   2.1550701
  35.2450409  26.7706070   2.2990346  34.0087662  26.2434711   1.6028101
  52.3732185   6.7392120  57.0935555  52.5845642   5.8808069  56.7265320
  52.1982918   6.5675960  58.0188560  61.4119530  59.1405029   5.2913537
  62.3572350  59.2908783   5.2988691  61.2363968  58.7625351   4.4296374
  34.6813850  51.5599556  17.4448376  34.9412918  52.2476006  16.8317947
  34.4864235  50.8051186  16.8894577  41.6335602  25.8220463  45.0198898
  41.8873940  26.2492561  45.8379936  40.8372726  26.2785664  44.7483292
  56.2303314  71.1190796  18.7162342  56.4425850  70.1876297  18.6564312
  56.1124420  71.2782211  19.6527214  25.9390469  68.0695724  84.5823135
  26.2911243  67.8223495  85.4373856  26.7113857  68.1762466  84.0270233
  60.1206284  64.7667542  19.6331978  59.7293739  64.8987198  20.4967594
  60.4127312  65.6385117  19.3668442  80.5077591  60.7225647  36.7345352
  80.1857758  61.5126953  36.3006554  79.7252884  60.3209877  37.1123047
  51.8612022  26.8245773  26.6605453  51.0170403  26.4795227  26.3697548
  52.5033569  26.1961365  26.3304958  24.4980392   1.4619403  27.3922672
  25.3711758   1.2405924  27.7161007  23.9338131   0.7664903  27.7302475
   0.7111794  55.0039330  51.7920227   1.3746988  55.1758614  52.4601631
   0.1785378  55.7990227  51.7732506  28.7629433  51.7266388  44.3798294
  28.5913086  52.1457024  43.5365295  29.1014938  52.4308510  44.9327316
  13.6124382   1.1484563  82.0868378  12.8671846   1.2745796  81.4995422
  14.3546572   1.5287513  81.6170349  14.2226448  35.4865494  25.0003490
  14.5146418  35.7162933  25.8824978  13.7146006  36.2445221  24.7112179
  10.2735424  65.3636551  42.3294907  10.7782745  64.5550613  42.2420197
   9.8036594  65.2643127  43.1574860  32.9365845  30.8823528   4.0493073
  33.7660294  30.9336357   3.5743079  32.4645042  31.6746674   3.7931571
  79.0109863  58.1281281  86.6294632  79.2218246  59.0461235  86.4589844
  78.4428940  58.1518555  87.3994827  19.1456165  21.5241375  15.7580404
  18.3509178  21.5507965  15.2251482  18.8389320  21.2894230  16.6338749
  79.3344421  13.1615601  11.4398880  79.5824890  12.6222515  12.1907873
  80.1626816  13.5135469  11.1137791  63.1414986  64.1750717  13.4909124
  62.9999161  64.9153519  12.9008551  64.0782166  63.9902573  13.4228306
  24.2826061  61.7982559  41.6538734  24.0072784  61.0111732  42.1238976
  23.9052715  61.6995277  40.7797432  73.9806442  33.3095093   7.6403189
  73.1093826  32.9698257   7.8446717  73.8897324  34.2597961   7.7104411
  15.4628048  32.5744324   6.1732693  15.6905918  32.2219391   5.3129821
  15.5344381  31.8258266   6.7654614  18.7373390  65.7770462  33.9705505
  18.0238953  65.1400299  33.9326172  18.7759991  66.1461945  33.0882416
  74.3690186  27.0241241  89.1857147  74.3756104  27.9114990  89.5445404
  73.5269012  26.9538231  88.7361221  61.9128990  56.1702080  20.0485039
  61.2589417  56.8079109  20.3346901  61.7463608  56.0600319  19.1123638
  73.6943207  55.3606033  67.0852356  73.1440659  54.6476288  66.7610168
  74.4317169  54.9206848  67.5082474   9.1318932   1.3691428  61.2669258
   8.7624798   2.1048615  61.7552719   9.2202730   1.6961508  60.3716660
   2.9544506  53.2197227  34.4406891   2.5329473  53.4074821  33.6020508
   2.3420539  53.5530777  35.0964890  70.1370087  68.1923370  35.2827301
  69.2421036  68.4067230  35.0192604  70.4839478  69.0099106  35.6397171
  63.3923149  37.7012520  52.7106209  62.9445610  37.5285988  53.5388374
  63.7191963  36.8457642  52.4321938   4.7595706   5.6289201  46.4686394
   4.8073664   5.8775616  45.5455360   5.6726809   5.5245619  46.7361679
  49.4732056   4.0389657  78.4007645  49.2249870   4.2003741  77.4905090
  49.3343811   4.8783808  78.8393326   2.9158070  53.0772476   1.7152419
   3.4893041  52.3713150   1.4169261   2.1365979  53.0017357   1.1644580
  22.4746304  53.5153961  67.9972992  22.5438347  53.4345741  68.9485703
  21.8544292  52.8319550  67.7433472  45.6768456  60.8322411  45.2857666
  46.5044518  60.7490044  45.7594452  45.0735664  60.2555199  45.7544632
  43.3413773   6.8571768  13.9271460  43.5057449   7.7137256  14.3215313
  43.1313362   6.2886891  14.6680479  51.3035698  65.6034698  28.7021923
  51.4112892  66.3047409  28.0596619  50.6509743  65.0208588  28.3137207
  15.0524893  66.0126801   4.3365531  14.6301451  66.8245850   4.0560789
  15.7080917  66.2920914   4.9755721  44.9125366   5.9810553  31.9648590
  44.6283264   6.4425488  32.7538338  44.8445244   6.6337409  31.2680035
  51.7011566   8.7944784  20.8612938  52.5055428   8.6633644  21.3632946
  51.7109070   9.7236767  20.6316700  84.8102341  49.0269966  50.3172569
  84.5287933  48.1217079  50.4494514  85.3742447  48.9920845  49.5446587
  84.9674683  50.6835938  71.3291473  84.5839005  51.2061653  70.6248474
  85.3007126  49.9000626  70.8918152  53.4364471   4.4453378  46.9975853
  53.5987778   3.7154942  46.3999176  53.5955887   5.2275014  46.4692612
  35.9289474  53.1765518  54.2027817  35.0281525  53.0064392  54.4782181
  36.4625587  52.6251755  54.7750359  22.7211227  18.0613594  51.5779152
  22.8248634  17.5582066  50.7702599  21.8527851  17.8201828  51.9004898
  26.5588112  48.3757820  14.0154295  26.3283176  49.2854462  14.2041492
  27.5084438  48.3891411  13.8960543  36.7848701  33.0947723   6.8764448
  35.9049759  33.4133606   7.0777521  37.2292595  33.0670891   7.7237821
   1.7727093  55.9798965  42.7265778   2.4679649  55.5681763  43.2397423
   1.8989792  55.6439476  41.8392067  58.8157616  14.6820250  71.1088715
  58.4828529  14.1693096  71.8454361  58.2459564  15.4504032  71.0749435
  48.0672913  45.7411232  87.2671051  48.8097954  45.6524963  86.6695557
  47.3080711  45.8403130  86.6926651  27.8910332  66.3460388  55.6188240
  28.6612453  65.8044739  55.4464493  27.4242783  65.8839340  56.3151169
  50.0256615  47.1497879  65.9902878  49.6860390  47.7689133  65.3440933
  50.8566132  47.5311317  66.2737198  16.9795609  65.2103271   0.4379006
  16.1128674  64.8206482   0.5528943  16.8220558  65.9932404  -0.0898032
  27.0718441  68.5962677  73.5529404  27.6160984  69.1387177  72.9821854
  26.5442047  69.2233734  74.0474854  28.6214886  28.0940475  74.2662582
  29.0316124  27.3056011  73.9107590  28.7167416  28.0067329  75.2146988
   8.9854050  39.0900345  84.9726028   8.8551073  39.8021507  84.3463821
   8.1017990  38.8568115  85.2573471  43.3803864  32.4438248  34.1159782
  43.9333420  31.9577541  34.7277031  43.0634346  31.7817497  33.5016251
  20.0289478  59.6244011  83.0067215  19.5400372  60.2927170  82.5265579
  19.3958588  58.9208107  83.1495132  56.2906799   5.7185464   9.2644711
  56.5606880   4.9944992   9.8293447  55.3766594   5.5290360   9.0525999
   1.7415745  70.6266785  13.9360266   2.2710292  69.8340149  14.0231047
   1.6366481  70.7420731  12.9916182  86.5096588  15.2568274  70.8514557
  86.8071823  16.1525669  71.0107040  86.7169037  15.0956974  69.9309540
  75.4634628   6.2037120  38.3267670  76.2395172   6.3523531  38.8670235
  75.4808197   6.9116173  37.6827164  43.8474426  13.7624712  31.9085999
  43.1270905  13.1340523  31.9577484  44.2723045  13.7072220  32.7645607
  43.6372795  64.5382080  76.0395126  44.0648956  64.7476578  75.2091446
  43.9717407  63.6712456  76.2691650  42.6243744  22.3296947  13.7400808
  43.4155083  22.7864418  13.4542074  42.3892021  22.7521496  14.5661907
  62.8290596   6.1952195   3.9929047  62.2073669   5.9314566   4.6712551
  63.4021912   6.8277240   4.4261360  22.4166298  47.9631004  85.5898514
  21.7045727  48.0976181  84.9644623  23.0453701  48.6565475  85.3897247
  73.2503738  57.6722527  40.4713135  74.0733109  57.1833725  40.4680176
  73.4734573  58.5193253  40.0853920  50.2468567  70.0351868  49.8106804
  50.6017151  70.3300476  48.9720078  50.9803085  69.5940857  50.2392921
  36.6671715  40.9546852  27.1958961  36.8217545  40.0342064  26.9836235
  37.2968521  41.4337387  26.6571579  34.9149666  29.2120647   5.9550309
  34.8812866  28.3410492   5.5595160  34.4424095  29.7728786   5.3398809
  81.5028229  70.5961838   4.8853841  81.6955643  69.9994202   4.1622314
  82.2424088  70.4934616   5.4843001   7.9466753  28.3394051  68.9148865
   7.6290727  28.6220036  69.7724915   8.4690914  29.0763092  68.5982056
  55.4249153   5.7167768   0.1119146  55.1596947   5.5379629   1.0140874
  55.8273964   4.9008589  -0.1856021   5.1310668  48.1038437  10.6191196
   4.3898025  47.4983521  10.6073437   5.6069360  47.8843269  11.4201136
   0.9351558  19.6904869  18.7853489   0.1585509  20.0295830  18.3402290
   1.1033585  20.3200150  19.4865170  39.2695694  43.6624260  70.7636032
  38.8113060  43.7165985  69.9249802  38.5715485  43.6650047  71.4185791
  52.1898727  43.5450401  67.3182678  52.8956909  44.1881790  67.3847809
  51.8902893  43.6111145  66.4115677   4.0860906  58.0200348  62.8828316
   4.8211875  57.4422264  63.0877647   3.6441782  58.1520882  63.7215843
  32.8698807  68.5635300  83.1722031  32.8987541  69.4471207  83.5391846
  33.7797050  68.3670654  82.9489365  50.6290207  15.6699982  68.6847839
  50.1317368  15.7077417  69.5018005  49.9628067  15.6898069  67.9977646
  52.0156174  13.6077166  41.8129883  51.6341782  14.2999325  42.3529663
  51.4173889  13.5262976  41.0702057  42.8199539  57.6986008  69.6210098
  42.1302795  58.3338814  69.8133774  43.5400848  58.2247581  69.2734451
  15.9903040  41.1854362  29.3982315  16.1013565  41.6585007  30.2229195
  15.9475060  40.2641640  29.6544647  52.3536186  23.0857697  40.5521088
  51.5458527  23.5728970  40.3894653  52.1200638  22.4553337  41.2334557
  66.1774063  56.7104378  57.1759415  65.8041763  57.5595703  56.9395027
  66.8761673  56.9201279  57.7956161  20.0451622   6.9266586  87.7816925
  20.8513966   6.4138231  87.8384323  20.1292152   7.5824299  88.4738846
  26.6921234  66.5902710  25.1781578  27.3666592  66.3991852  24.5264549
  27.1550694  66.5679245  26.0156631  86.8557663  46.3821564  48.9060669
  86.0957031  46.7972603  48.4983711  86.6580048  45.4458733  48.8837852
   3.6209290  70.0417099  86.8102264   3.8483903  70.1768036  87.7301407
   2.6683331  70.1315460  86.7833557  29.4790192  29.3297234  20.9898186
  30.1376381  29.0526886  20.3528690  29.9347210  29.3060589  21.8312511
  82.6140442  47.5627747  18.1747799  81.9033203  47.9608078  17.6721115
  83.3029785  48.2272530  18.1829472  50.5017929  25.9975624  38.0127106
  49.8450623  25.3952465  37.6632042  50.2048988  26.8637562  37.7337952
  63.7150154  66.8451767  48.5790749  64.1403503  66.0789490  48.1940765
  64.0094833  67.5789413  48.0395355   8.6814957   7.0314951  70.0339203
   8.9145555   6.2072825  69.6066132   8.2266083   6.7665601  70.8333664
  42.7695923  50.2007332  67.0849609  42.1734390  49.4926987  66.8409882
  43.3624535  49.8051758  67.7239304  20.9147892  19.6668072  21.0254936
  21.3561859  19.4451771  20.2055645  20.2055435  19.0278778  21.0959969
  72.6402664  26.9763050  72.1441879  73.3617096  26.9472351  72.7726059
  73.0347748  27.3192539  71.3423233  22.9749546  16.1032906  81.0605545
  23.6899872  16.7274151  80.9363403  23.1391602  15.7192526  81.9218216
  16.1704197  45.7161484   8.6043262  15.2573719  45.4324379   8.6499577
  16.5388889  45.4751091   9.4542456  65.8870468  27.7904663  26.8086662
  66.5868301  27.3269463  27.2687588  66.3374634  28.4776516  26.3176117
   4.2357011  31.6176453  38.3921280   4.0256944  31.7447472  39.3173141
   3.4490032  31.9017887  37.9267197   4.3350267  21.2423382  80.6735382
   5.1684070  21.6002064  80.3675308   4.1086364  21.7786407  81.4333801
  81.5148621  62.4918594  63.7482643  81.6083069  62.8255730  62.8560028
  82.0068283  63.1105270  64.2881241  43.1488800  52.2946625   4.8769932
  43.5418968  52.2436218   5.7482948  42.4029121  52.8846741   4.9849129
   9.9709816  40.7221565  62.7918205   9.1550837  40.6314430  62.2995644
  10.4190426  41.4603615  62.3788757  28.1851578  50.0022316  50.6039543
  27.6340351  50.6034698  51.1049614  27.6162910  49.2555428  50.4166527
  31.5940742  43.6636162  19.3765602  31.3858967  44.4965019  19.7998714
  30.9034557  43.0679893  19.6672611  56.3190536  50.7364769  18.4736156
  57.2542763  50.7950935  18.2782707  56.1042709  51.5799026  18.8720341
  52.9031334  57.5376930  68.0829544  52.3055000  57.0804520  67.4913483
  53.7480431  57.1083221  67.9488068  70.1266556  21.9477634   7.8917952
  70.8732300  22.3288250   7.4295707  70.5140381  21.2963409   8.4764433
  11.8430815  13.6955175  71.5373001  12.7552481  13.7711115  71.8174210
  11.4107122  14.4584980  71.9208984  66.0657806   7.1474524  85.8670273
  66.0072021   6.3441882  85.3497543  66.1049118   6.8456054  86.7745438
  30.6276646  54.1830635   9.4895372  30.0835781  54.0148582  10.2588921
  30.9962425  55.0531235   9.6424265  63.6814804  19.1398258   4.8967586
  64.4509277  18.5704613   4.8999414  62.9925575  18.6092339   4.4966464
  51.4605675  13.1804590  62.1743660  51.6416702  14.1202183  62.1574516
  52.1614227  12.7920160  61.6507759  51.6951675  43.0228119  34.9578362
  52.0607605  42.2511368  35.3903809  51.5242462  42.7360802  34.0607300
   9.7125406   3.3203077   5.6422515   8.9460659   3.6269381   5.1577654
  10.4525995   3.5128453   5.0665135  61.2354584  58.6498222  58.5253754
  62.0616188  58.6800690  58.0429039  61.4108620  59.1354942  59.3313484
  75.8614120  25.4798241  50.1085739  75.9730911  25.3982601  49.1614151
  75.9966812  24.5931759  50.4429245   4.5557661  19.7396145  38.0515785
   4.4183760  18.8813877  38.4525795   3.9902804  20.3299446  38.5495453
  73.8004761  30.4776573  54.4798889  74.2593536  30.6901035  55.2926178
  73.9132233  29.5322495  54.3812714  37.9049416  42.6637878  46.9187241
  37.8658905  41.8383636  47.4018173  38.2945175  43.2838707  47.5351295
  70.4905319  10.9692926  48.3786621  71.3970108  10.9134207  48.6809883
  70.1979065  11.8367863  48.6580467  64.7013474  30.2180672  59.7599144
  64.3309555  29.6394157  59.0934258  64.0253906  30.2684994  60.4357605
  66.2757187  47.3135681   7.1797442  65.4436035  47.2379112   6.7127409
  66.9163742  47.5124283   6.4969182  60.8115845  54.2682953  22.0774384
  61.3073158  53.5004616  21.7929802  61.4173203  55.0004997  21.9625931
  63.4695168  59.7156029  65.5337753  63.0372963  58.8615608  65.5277786
  64.3724289  59.5288925  65.2766266   3.8837221  56.7434540  80.2758484
   3.7990384  56.6823807  81.2273331   4.3405061  57.5716629  80.1287079
  65.4015427  56.0220108   4.2543745  65.0597687  55.5855598   5.0347185
  65.5820999  56.9174309   4.5404730  78.5445557  33.8077164  87.7746582
  78.7846680  34.6427917  87.3731308  78.0026779  34.0500450  88.5255737
  37.6242332  56.0721970  11.1053610  36.7201462  55.8024635  10.9437866
  38.1153221  55.7210808  10.3625431  14.2820082  46.9868279  82.8515472
  14.1339550  46.1863022  83.3550110  13.4871244  47.5034370  82.9838562
  68.6304398  61.4146614  75.7414017  68.0149918  61.2718315  76.4604645
  69.0401535  60.5606270  75.6036072  25.3575802  17.7561359  80.8665543
  25.3159657  16.9499283  80.3522263  26.0911255  17.6200657  81.4662399
   3.6801870  56.8555603  17.8791618   3.8663170  57.4681435  18.5907288
   3.9136474  55.9978752  18.2342739  63.8449097  22.7508640  48.4071121
  64.1888428  23.5289993  47.9684219  62.9065590  22.7647018  48.2186012
  48.6444473  34.0093117  36.1058617  49.1934319  33.9263954  35.3261375
  47.8257637  34.3861504  35.7834015  86.1659241  37.6543007  55.3138275
  86.5103912  37.5684319  54.4248962  86.8383865  37.2613792  55.8702774
  41.3442192  37.1596794  70.0539627  41.0569763  36.3134079  70.3968048
  40.9729958  37.1995201  69.1725769  41.4183235  11.5265331  44.0628052
  41.9296608  11.6500483  44.8625031  41.5660439  10.6117191  43.8229637
  14.5417223  30.9311695  79.8823242  14.5894518  31.1471004  78.9510193
  13.6364641  31.1235638  80.1267090  43.8100548  38.0615768  58.7554359
  43.5395775  37.1556702  58.9051323  43.0582085  38.4678917  58.3243179
  82.3884888  57.7464828  63.5514870  83.1589966  58.0601501  64.0249405
  82.7441483  57.3121948  62.7761612   9.4626837  44.0024452   9.9207163
   8.5527849  44.2777328  10.0326767   9.9333916  44.8097420   9.7134943
  53.0313721  35.0613098  57.5354347  52.6173897  34.7885780  56.7166138
  52.6573792  34.4804535  58.1979790  85.6034622  11.4080153  75.1554413
  86.3257446  12.0120525  74.9831467  85.8961182  10.5738335  74.7883835
  49.5672874  61.8217583  48.0839920  49.2629776  62.7052956  48.2913322
  50.5126228  61.9154320  47.9665489  58.2480698  64.7124329  64.0001526
  58.7069702  65.4837265  63.6673698  57.9131203  64.9832840  64.8549500
  61.6329918  45.8147850   8.0653906  61.4439850  45.4760208   7.1903214
  60.8175430  45.6914558   8.5512571  84.5162430   9.6638594  77.3902130
  84.8621140  10.3985233  76.8833923  84.4422531   8.9498196  76.7570419
  33.4767990   6.3891244   8.0463076  33.6993103   7.2809062   7.7790127
  34.2435226   6.0866084   8.5329819  81.6944427  39.6474266  32.4747047
  82.5179367  39.3117180  32.1206017  81.1670074  38.8653183  32.6370430
  19.2815590  61.5443687  24.6035786  20.2198524  61.3798485  24.6972351
  19.2192001  62.4837341  24.4305649  17.9293785  50.3868294  18.6887836
  17.6892033  49.5615387  18.2675419  18.2236252  50.1325569  19.5634251
  80.2355423  62.1901855  10.5921879  80.1679611  62.0059509   9.6553192
  81.1726303  62.3109627  10.7455435  58.7736130  31.0148735  79.3351517
  58.8414116  30.4110031  78.5955734  58.3470879  30.5040245  80.0231476
   3.2946246  68.4647141  13.1816597   3.4888830  68.4909439  12.2447462
   4.1141019  68.1831741  13.5883856  17.5438042  67.1064148  79.2954254
  17.6150379  66.4019775  79.9395676  18.3635502  67.5931396  79.3811417
  14.5006685  36.8794785   7.8879848  14.6598816  37.5947533   8.5038309
  15.0199919  37.1072960   7.1168594  54.0820847  60.3560753  66.3731232
  53.8616447  61.2858238  66.3165131  54.2883873  60.2146645  67.2970657
  62.4585915   2.0873928  53.3335648  61.5904961   2.3549993  53.0318604
  62.3067169   1.7194388  54.2040672   6.9382071  31.4193134  67.8781433
   6.5924325  32.2585030  68.1821671   6.8331265  30.8317280  68.6264267
  54.1937599  58.1831284  64.7848053  55.0750656  58.0237122  65.1226196
  53.8579369  58.9013023  65.3211594  68.1499176  47.3084106  59.0798225
  67.7248917  46.5422440  59.4652748  68.3514633  47.0442238  58.1821480
  47.9495277  50.5930328  17.0021629  47.7960777  49.7925072  17.5040073
  47.0976753  51.0290413  16.9803581  47.3951607  53.7668648  46.9413986
  47.8189278  53.0540657  46.4633102  48.0499611  54.4647827  46.9607773
  72.6502228  29.6752815  86.5705414  73.5421829  29.6281872  86.9146500
  72.7527084  30.0290394  85.6870346  50.5579987  16.4909878  76.4428329
  50.0349388  17.1187515  76.9413834  51.3395615  16.9805622  76.1865082
  15.2791357   7.7411637  89.1987610  15.5720034   7.8311810  88.2919235
  14.3493347   7.9671626  89.1737213  23.4570656  41.0401726  74.9744110
  23.7985287  41.8145447  75.4216003  24.2315140  40.5081062  74.7917404
  21.2905788  20.8861389  71.5802841  20.9062443  20.0558167  71.2990646
  22.1422043  20.6446896  71.9445190  22.2584858  46.8658104  89.2525024
  21.9377689  46.1777267  89.8355255  22.4665070  46.4106636  88.4365387
  77.8556519  42.6744652   3.7350669  77.6449814  41.8294373   4.1322756
  77.9481201  43.2716522   4.4773951   0.1513474  37.5128708  50.5840950
  -0.2975824  37.4501801  49.7410278   1.0751898  37.6171455  50.3563347
  72.9596024  41.4932251  32.6018257  72.2246857  41.9026566  32.1452141
  73.1387634  40.6970291  32.1016197  26.1642418  47.7509727   2.0711219
  25.9903774  48.5017548   1.5033829  25.7817020  47.0062065   1.6072019
  24.3843384   7.1666822  37.9522514  25.1443558   7.0275989  37.3872185
  23.9642525   7.9512544  37.5998230  71.9552460  71.4644394  46.6986885
  72.6077499  71.4197540  47.3975945  71.2442627  70.8978500  46.9982109
  50.0231705   1.9681870  20.3109016  49.1839714   1.5869812  20.0527191
  50.6382942   1.6689073  19.6413612  60.8325539  56.8051300  17.4833736
  60.0159264  56.6320152  17.9517593  60.7827568  57.7320213  17.2496643
  19.3892365  37.9836426  15.8284464  18.5495586  37.5604172  15.6494141
  19.1579151  38.7872772  16.2941666  83.8793640  54.2486916  36.9849777
  83.3275681  53.4673271  37.0199203  84.0236511  54.3984261  36.0506363
  58.2797127  49.1015205  55.0676651  58.5042801  48.2663918  54.6573524
  57.5995369  49.4700928  54.5039711  34.9705048  34.9822960  89.0319672
  34.5743828  35.6962471  89.5315628  34.7719231  35.1899223  88.1189041
  66.1365814  40.2664413  26.2218494  66.6900101  40.4921455  26.9695148
  66.7345581  40.2602806  25.4744434  73.4241028   7.5567451  86.6583252
  73.4662781   6.8059449  86.0660858  74.2588577   7.5397310  87.1264420
  72.4043121  20.8252316  58.3137589  72.7363129  20.1847343  57.6846581
  71.9211121  20.3034267  58.9544373  83.4185562  37.1825294  68.2043152
  82.7090073  37.8245239  68.2291794  84.1394958  37.6390190  67.7706070
  56.8121948  32.7470932  52.9267807  57.6822472  32.3772430  53.0766029
  56.4683609  32.2558670  52.1806526   7.1720271   3.7796106  76.5784531
   6.3981128   4.2166348  76.2230682   6.8547001   2.9212339  76.8590317
  10.9514103   5.3374233  67.4875031  11.2371521   5.9694438  68.1471481
  10.2602577   4.8358560  67.9198990  48.8059044  32.0600700   8.7568779
  49.6580544  31.8078575   9.1124926  48.1822014  31.4828415   9.1973705
  57.5704422  66.0845566  81.0932236  58.4061623  65.7241821  81.3897705
  56.9509354  65.8536606  81.7854156  81.3684998  56.5131226  51.7506676
  80.5751877  56.7344627  51.2629318  81.9667358  57.2400169  51.5775528
   2.4522812  18.1167965  32.9535217   3.0279717  18.0741920  32.1899796
   2.1278999  19.0173416  32.9589577  83.7440796  16.2769623  27.2699699
  84.3817291  15.5679045  27.3528862  84.0024109  16.7393684  26.4726753
  48.7808609  11.8321924  57.0285873  48.4699173  12.2159548  57.8485107
  49.4512596  12.4409008  56.7183113  10.4734297  45.8298378  14.9842882
  11.3425722  45.6121521  14.6474848  10.6442223  46.3419991  15.7747021
  55.1282463   2.6230519  34.3862724  54.7471237   3.4116893  34.0002289
  56.0458260   2.8497999  34.5374794  70.2106323  10.0810413  63.7964973
  69.2929001   9.8837633  63.6092224  70.1847458  10.6011953  64.5996170
   3.6026466   6.3493857  24.2042904   3.4403548   7.2603593  24.4492798
   3.5119457   5.8614440  25.0227757  39.8982735  36.4038315  26.0297241
  39.9069595  35.5842552  25.5353050  39.0347328  36.7787895  25.8566952
  18.9600754  35.5949173  83.0875931  18.6782856  34.7518883  83.4427338
  18.5243034  36.2447968  83.6389465  34.3497810  42.5850601  19.8994274
  33.8633881  43.0450516  19.2152729  33.7029419  42.4246254  20.5865173
  15.4181175   3.7482190   5.7150207  15.7051420   4.6014857   6.0402660
  15.2345219   3.8949831   4.7871280  21.7254925  11.5972433  86.2367325
  21.2780151  10.7637119  86.3824081  21.4856110  12.1331873  86.9926758
  78.4201584  57.8588181  38.8622551  78.3574066  57.4757729  37.9872894
  78.3293228  58.8007774  38.7184219  32.7926331  20.6299896  84.3165741
  32.8768349  21.3615208  83.7050095  31.8719158  20.3746071  84.2592010
  62.3213196  15.3328037  76.4114990  61.4036293  15.4665937  76.1744766
  62.7337341  16.1836033  76.2622223  37.6479645  56.3790703  37.3850403
  38.0405045  57.0269012  37.9702377  38.3892937  56.0087547  36.9059525
  17.8379822  43.6340675  85.3192749  17.0704498  43.2933350  85.7786484
  18.5829887  43.3172798  85.8300018  85.3405304  17.2141552  12.2666626
  85.1059418  16.3922062  12.6974745  84.7134552  17.2953968  11.5480461
  31.1562767  56.8093147   9.7225838  31.2427807  57.7625313   9.7337542
  30.2912235  56.6429176  10.0970516  77.0162888  19.0619812  66.0117950
  76.8494949  20.0043430  66.0309219  76.4581909  18.7342300  65.3065720
  86.4920273   2.9796898   2.4494362  86.0764160   3.4345171   1.7168862
  85.8068771   2.9221318   3.1153836  53.3559990  53.8751602  53.5544281
  53.7123909  54.2333794  52.7414742  54.1267357  53.6649208  54.0816803
  60.1929169  42.7705498   4.1133380  60.4942284  42.0869942   4.7118306
  60.9728508  43.2975311   3.9394941  27.3228645  38.1568413  86.5284195
  27.2054577  37.2304459  86.3180771  26.6643066  38.6077538  86.0000153
   3.6512747  43.4784012  63.8218765   3.7166789  44.4236336  63.9578514
   3.0269186  43.3825150  63.1026993  48.5426636  54.3424950  81.6007233
  48.4585686  53.6415825  80.9542847  49.4798126  54.5360641  81.6235809
  49.0745964  44.5114784  82.2709198  49.4988899  44.7937622  81.4606552
  49.7890587  44.1713142  82.8094864  71.9095230  41.9764938   3.5977836
  72.5411530  42.6926079   3.6645572  71.0553284  42.4040031   3.6595759
  63.5391350  31.0005741  36.2149734  64.0569000  30.2528801  35.9164734
  62.9755173  31.2138100  35.4712677  53.5452347  51.0637970  45.7722549
  54.3850594  50.6671715  46.0038071  53.4385033  50.8719139  44.8405800
  78.0876083  50.5514679  40.8115120  77.7566071  50.5958977  41.7085609
  77.3030396  50.5900459  40.2645302  35.5429611   9.6937647  40.7189217
  34.9041519   9.7104263  41.4315758  35.9155464  10.5754356  40.7105865
  28.3946953  52.4323235  35.0877190  27.7469063  52.3640289  35.7891045
  27.9638653  52.0458679  34.3253098   5.7630978  25.6913776  82.2427902
   6.2686949  25.0351334  82.7223129   4.9637389  25.2341042  81.9817123
  77.2649002  42.6665382  13.1714697  76.4704971  43.0129967  13.5778303
  77.8294144  43.4313011  13.0588446  42.2675018  60.3929291  55.4258957
  43.0183144  60.6068268  54.8720360  41.9033470  61.2425842  55.6743126
  82.9970551  14.3619032  54.2330780  82.2898636  14.6157303  53.6400490
  83.7781982  14.3432674  53.6801796  20.0607605  24.8015175  82.2454376
  20.1513805  25.1269531  81.3498306  19.2012691  25.1140213  82.5280075
  33.8591576  51.5146370  54.7222366  33.4603233  51.2751579  55.5587845
  34.4563293  50.7926979  54.5262222  81.2717819  46.3068314  30.0982723
  81.0782013  47.0799522  29.5681419  82.1669388  46.4463005  30.4072533
  76.2192917  13.3933764  40.6329727  75.7367706  13.8831396  39.9669876
  75.5557404  13.1486101  41.2779694   1.4028342  43.6361923  61.8670464
   0.9019896  44.3042183  61.3989334   1.8492106  43.1445694  61.1776352
  85.8516846  31.9130268  25.6752090  86.3604507  32.6488991  26.0156231
  86.1694489  31.1549091  26.1656342  60.2339859  19.8599129  59.9016571
  61.0961075  19.7170982  59.5110435  59.6821136  19.1771717  59.5201683
  63.1135635  27.8904953  26.9485512  62.9680481  27.5930710  26.0504436
  63.9755363  27.5438709  27.1789513   7.6921573  39.0709457  18.1404037
   7.3525071  39.6758003  18.7999649   7.6502442  39.5627060  17.3202534
  81.9897461  13.7297392  10.1301031  81.8581467  14.2468252   9.3354111
  82.5016022  14.2992907  10.7044230  58.3676529  49.8758240  50.9530869
  58.5775223  49.2165985  50.2915649  59.1755142  49.9753647  51.4567566
  54.4219017  10.0448971  30.8592129  54.5909348  10.6569338  31.5755024
  53.7042885   9.4968100  31.1768055  47.7085381  64.5448380  18.4295654
  47.0040894  65.1760712  18.2828617  47.7656097  64.0547104  17.6093502
   1.1427747  13.3345528   6.2764525   1.0800886  12.6940298   6.9849944
   0.4627963  13.9783964   6.4747624  58.4897423  48.7574196  15.5823240
  57.8642235  49.3767853  15.9582777  58.6370277  49.0764618  14.6919584
  81.4274063  67.1492081  77.8548355  81.7604370  67.0833206  76.9598541
  80.5715942  67.5677109  77.7617340  83.9908676  47.5592918  57.5600967
  83.7167435  48.2186165  56.9226189  83.8909607  46.7256317  57.1004677
  10.3963451  27.1093922  20.3372040  10.0738697  26.9938488  21.2310104
  11.1825724  27.6467400  20.4338303  68.8447647   6.2939491  34.5176125
  69.3923721   7.0683212  34.6468658  68.9500580   6.0780892  33.5910339
  67.7204132  57.7752419  40.2364197  67.6388779  57.5935478  41.1726723
  67.3853607  56.9868317  39.8093643  19.5282803  58.7380295  72.2576141
  19.6283588  57.7935295  72.1387177  18.5913258  58.8960457  72.1419373
   1.8163844  56.8072433  48.2706451   2.4563565  56.3699379  48.8322754
   1.0006906  56.3290138  48.4195442  81.7411118   0.4255071  29.5456123
  82.4673615  -0.0036935  29.9979172  81.1264954  -0.2827240  29.3535576
  11.2166605   7.8922648  27.9930019  11.1141357   6.9552155  27.8266926
  11.8715343   7.9416833  28.6893711  60.1112938   7.2927155  69.0101852
  59.5134621   8.0380735  68.9530029  60.4298096   7.3098474  69.9126740
  36.8288078   6.4955559  19.1007137  37.2967072   7.3304062  19.0826054
  36.6426277   6.3053465  18.1812630   2.7480297  33.0732422   3.4885731
   2.7640743  33.9654083   3.1421466   3.6211877  32.7281761   3.3021393
  30.1967793  16.2497368  83.5587006  30.1288872  16.5303020  84.4713364
  29.7806778  15.3878803  83.5414963  74.0533295  27.2614155  51.3289490
  73.2106247  27.0323658  50.9370003  74.6989517  26.7940636  50.7988701
  70.9067688  19.7018452   9.5747252  70.9076462  18.8199844   9.2024984
  71.7576447  19.7806168  10.0060349  50.1776962  54.8571281  59.7204895
  49.7671814  53.9925613  59.7051544  51.0310059  54.7244568  59.3075829
  16.4213848   8.9522619  76.0879593  15.8987656   9.7489100  76.1798935
  15.9822197   8.3117971  76.6475754   3.4138563   1.0638334  75.6920242
   3.9891839   0.4005195  76.0731354   2.9540632   1.4414661  76.4418335
  24.3123894  54.5152206  72.7591400  23.6366196  54.9585075  72.2462463
  23.9591198  54.4883461  73.6483612  33.6459160   0.3870049  76.8793182
  34.3901176   0.8980824  77.1974335  34.0410767  -0.3162981  76.3641052
  84.3208008  51.0936966  75.4301147  83.5732269  50.7229004  74.9612122
  84.4378967  51.9623489  75.0454636  72.2866821  71.0828857  12.9053774
  73.0553894  70.5753174  12.6451931  72.6255569  71.9625015  13.0717516
  17.4723454   0.3718588  71.0531158  16.5162449   0.3679872  71.0988235
  17.7327213   1.1477836  71.5494766  32.7399521  46.5130653  25.3503437
  31.8926563  46.2777100  25.7284069  33.2885437  46.7252426  26.1054993
  56.8578911  69.4084473  57.2502785  57.7759514  69.3213043  57.5067902
  56.3983269  69.6024704  58.0672188  33.7342148  57.2516098   8.5336847
  33.6468430  57.6276093   7.6577706  32.8396225  57.2247276   8.8731174
  84.9466553   3.2767220  58.4432869  84.9713440   3.6201351  57.5501518
  85.8010483   2.8624842  58.5643196  43.9507484  24.0836124  82.2713470
  44.0246925  23.8618889  83.1995773  43.6732216  23.2691841  81.8519287
   7.4407206   5.9473348  14.4987507   7.2640452   5.5767899  13.6340466
   7.1322041   6.8515105  14.4394588   1.8879343  60.6888733  77.9833374
   2.8425834  60.7583618  77.9902802   1.5865396  61.5570107  77.7155075
  73.9328613  35.7397499  23.2487812  73.2691345  36.3349533  22.9003143
  74.5246735  36.3051071  23.7451344  52.3208275  55.8559494   2.3910601
  51.7075920  56.5603523   2.1813238  53.0146561  56.2838898   2.8927555
  37.3150215   6.0636601  26.6148758  37.3037682   5.2973986  26.0413342
  38.1631622   6.0198913  27.0564346  57.9481010   5.5154443  53.3533936
  57.8983116   4.6942792  53.8427200  57.4640121   5.3427906  52.5458755
  49.6946220  54.8736725  11.4322815  50.2789230  54.1251717  11.3115864
  48.8303871  54.5453072  11.1842813  42.5120850  62.4937096   3.2784188
  41.9430275  62.6646919   4.0288644  42.0139961  62.8076096   2.5236988
  48.9714508  70.3363953  79.3285980  49.8181419  70.5588913  78.9415054
  48.4752121  71.1546021  79.3057175  56.1850357  42.6688271   2.9566250
  56.2210464  43.3852577   3.5903919  55.2790947  42.6677284   2.6475973
  19.1588783  10.2080889  12.6490459  18.2041893  10.1655302  12.7037086
  19.4442616  10.3521099  13.5512915  18.7009258  42.3681450   7.2212396
  18.9143925  41.4724846   7.4828811  19.0210857  42.4376907   6.3218546
  70.4531784  13.7822857  23.0188179  71.2910461  13.3216028  22.9743786
  70.1484985  13.6393595  23.9149055   3.7199173  32.1715431  54.7000504
   3.1284192  31.5433617  55.1144753   4.5307398  32.1058350  55.2045097
  33.9221458  40.2408371  79.9427567  33.5473137  39.8172722  79.1705399
  34.4261932  40.9751854  79.5921860  76.3470993  22.2286110  31.8099632
  76.0762558  21.8421078  30.9772015  76.8413391  23.0099087  31.5619030
  51.0531693  67.4104767  85.9952011  51.5513268  67.8189011  86.7031937
  50.9287453  68.1109619  85.3548355  29.5642643  61.4950981  22.9642296
  29.0846157  60.9106026  23.5512009  29.7311325  62.2777824  23.4893894
  42.9960442  21.9272404  81.1500397  42.4149055  21.7297554  81.8845520
  42.8598900  21.2055492  80.5361481  65.4602966  36.9988098  41.4435272
  64.8374634  36.3906097  41.0455322  65.0700989  37.2224007  42.2885056
  76.7298737  63.1053238  18.2984715  77.5465775  62.6753235  18.5521069
  76.2087479  62.4109383  17.8953705  66.5511322  65.6333466  22.3991776
  67.1506653  65.8332977  21.6802845  65.6802521  65.7976532  22.0375061
  29.4358540  50.9943123  58.3846703  28.9524498  51.6073341  58.9385223
  29.3504333  50.1510696  58.8295021  76.1381531  15.0522766  88.3162689
  76.9630432  15.5279379  88.2185898  75.8516083  14.8829241  87.4188004
  71.9241180  41.1873512  21.1145287  72.1457672  40.4865036  21.7276478
  71.8456802  41.9686050  21.6619968  55.1804428  37.4704208  40.6250839
  55.2874222  37.8883057  41.4795761  54.2357674  37.3436356  40.5370598
   1.3728694  29.8862209  43.3723450   1.7370809  29.8522720  44.2568970
   2.0841630  29.5820789  42.8086166  54.8843651   0.5901561  16.6967773
  55.5041885   0.2955282  17.3640442  54.2009087   1.0450444  17.1889133
   8.5159760  64.9377441  17.5065956   8.8335323  64.5065460  18.2999783
   9.0262356  64.5435486  16.7991505  64.3750763  24.0529613  35.6534462
  64.7007141  24.7830906  36.1798515  64.5307693  23.2791367  36.1949158
  13.7015142  15.4966555   3.3426213  13.7049942  14.9664555   2.5456853
  13.7472887  14.8588057   4.0548596  53.4202843  25.5977325  77.9253387
  54.3079376  25.7516632  77.6019058  53.1133614  24.8381443  77.4303055
  84.8122711  30.2471294  10.3478460  85.7094498  30.2835751  10.6794596
  84.8716049  30.5942993   9.4577990  65.9597168  60.3028450  49.0252228
  66.0117188  59.4196625  49.3906288  65.4512329  60.7981644  49.6673546
  64.8506012  20.2608223   8.2353325  64.3605042  20.8723850   7.6857653
  65.3957291  20.8201160   8.7887421  24.7997990   6.2626762  75.4826965
  25.4341984   6.8548813  75.0788879  23.9740334   6.4581690  75.0398331
  50.2332420  19.4338188  41.6821556  50.8297272  18.7921410  42.0677490
  50.2778282  19.2668076  40.7406921  45.4764137  54.3416138  61.0730133
  46.1491394  53.7122307  60.8131142  44.6872864  53.8131447  61.1923027
  70.0055618  53.6285629  56.9883041  70.5776443  53.5236969  56.2280693
  70.5498123  53.3763199  57.7342186  69.9806900  46.4040871  38.4865570
  69.3897552  45.8509941  38.9975548  70.5085602  46.8601570  39.1419830
  67.5930939  51.8596497  25.2508202  67.1466293  51.3008804  24.6146774
  67.4114609  52.7517242  24.9551163   7.0491548  52.7603035  80.3995590
   6.6107039  53.4999275  79.9789047   6.4786997  52.5290756  81.1325989
  65.7641068   6.6021333  88.4489670  66.3590698   6.2007799  89.0823517
  65.1126633   7.0540352  88.9852829  35.0606155  33.6075478  68.6276245
  35.3082619  33.0091934  69.3325195  34.1350136  33.7935257  68.7854385
  67.6490097  70.7319336  84.4042435  67.1909561  70.6882401  83.5648956
  67.8088760  71.6656494  84.5415344  35.9511185  47.5254250  41.3263588
  36.2795105  48.0707207  40.6114845  36.1449890  46.6290054  41.0523415
  35.6063461  20.2948360  75.5890350  35.0420914  20.1136341  76.3407059
  35.4826317  19.5428314  75.0098877  13.1475592  45.6877823  15.0639505
  13.6763840  45.5139046  15.8426304  13.6369743  45.2843246  14.3470612
  42.8538895  53.5201645  74.0139694  43.7640991  53.6704903  73.7587128
  42.3490829  54.1210098  73.4658890  19.0023861  53.4105530   6.6394424
  18.5445423  52.8254929   6.0358572  19.4285221  52.8240852   7.2645006
  74.7106934   4.7865324  40.7293167  74.7345886   4.8284454  39.7733345
  73.8193893   4.5041928  40.9344788  46.5621262  26.3756790  25.4314861
  46.0017128  25.8954239  26.0410156  45.9516640  26.8610439  24.8765163
  81.2360229   1.5976533  22.7971554  82.1696320   1.3890721  22.8302441
  81.1451492   2.1690853  22.0346336   0.1136890  31.8545742  69.4742432
  -0.2322972  32.6797409  69.1342010   0.2073435  31.2975540  68.7014618
  50.5421791  53.6232719   7.8655534  51.3185997  53.0780983   7.9927826
  49.8062820  53.0361862   8.0388012  34.3811874  60.3094559  58.5673981
  35.2796288  60.4759483  58.8525620  34.4738655  59.7381287  57.8050156
  54.7854004  44.4114456  70.5755310  54.4546242  45.1575661  70.0754166
  54.4375534  43.6447258  70.1201477  16.2164230  31.2744675  22.0869312
  15.5480843  30.9612370  22.6963902  15.7634706  31.9221039  21.5468998
  68.2159042  55.6063118   6.6665072  68.6626892  54.9230537   7.1662841
  67.3131180  55.2970238   6.5920029  74.5388870  53.7462387  26.8370228
  73.6251678  53.5126686  27.0006771  74.9746704  53.6128044  27.6787605
  15.7158594  46.5270615  39.4063988  14.7673368  46.4110374  39.3509521
  16.0775051  45.7512703  38.9779243  74.0141678  20.5344505  50.4014053
  73.1448822  20.2602043  50.1092262  74.2974548  21.1713562  49.7454109
  61.4160347  17.7670898  12.5972872  61.1183357  16.8818035  12.8067541
  60.8467369  18.3392467  13.1118431  33.2787933  70.9868317  38.2813911
  34.1998863  70.9534225  38.0231171  33.1407585  71.8922348  38.5596542
  59.0364342  47.8689384  10.4246702  58.7603416  48.5562820   9.8183985
  59.0339165  47.0697327   9.8978920  24.8306732  48.5313110  87.5504913
  24.7147865  48.8327141  86.6493988  23.9399624  48.4008484  87.8758316
  19.8621960  56.1264877  56.2284889  20.6476669  55.8044052  56.6706772
  19.6644115  56.9551315  56.6649132   4.0089760   6.0754495  21.5181618
   4.9421883   6.2066469  21.3504295   3.9504707   5.9560256  22.4660778
  64.5445938  21.7191296  72.5048370  65.3124847  21.5355244  73.0459976
  64.3508453  20.8867683  72.0737076  83.9934540  55.4834137  77.6296692
  83.6225815  55.5938110  76.7541733  83.3511581  55.8857040  78.2143402
  10.9969635  60.6269760  17.1145477  11.6952524  60.7896729  16.4803905
  10.6819353  61.4988670  17.3528709  80.3633423  55.6459198  86.3068237
  80.2294388  55.5316963  87.2477036  79.7678146  56.3550377  86.0644913
  43.2913628  30.8228397  47.9309425  43.1618347  31.7707310  47.8999977
  43.9987946  30.6983013  48.5636063  16.1072502  20.8778400  85.5507965
  17.0496750  21.0091228  85.6548767  15.7323065  21.7542591  85.6376190
  42.7862740   6.7083421   3.6991267  42.8292084   7.6635847   3.6555302
  43.0611382   6.4967022   4.5912538  24.9541950  32.0277710  73.6516113
  25.5065727  31.9871407  74.4322968  25.1583900  31.2251453  73.1716919
  32.0952797  21.6864910   5.2055430  31.7184963  22.5598545   5.0982924
  32.5275078  21.5078983   4.3703699  11.0488749  25.1363792   8.1044693
  11.6669464  25.1167526   8.8351088  10.3888454  24.4813366   8.3314323
  70.2545776  21.3942680  87.1744080  69.8374329  22.2461090  87.0456161
  70.4562302  21.0900936  86.2895050  49.3264427  29.7423630  37.8420334
  49.0308189  30.6132088  37.5765762  49.5015335  29.2874279  37.0182533
  72.3673325  51.5756836  15.0079994  72.5279617  52.5188828  14.9796200
  73.1919022  51.2015305  15.3183746   8.4224949  11.3333359  75.9861450
   8.3916683  10.6520443  76.6577988   9.3400917  11.6047697  75.9622498
  85.1481552  59.0848770  61.2669907  85.8252335  58.7817841  60.6620712
  85.0524597  58.3704643  61.8968239  43.3184700  47.7471046   5.6056776
  42.6684265  47.5878677   6.2900157  44.1412544  47.8665352   6.0800104
  48.8952408  37.9456253  73.0997391  49.3877983  38.4498520  73.7473373
  49.2258797  38.2523270  72.2554398  28.1729469  20.9350777   8.6543407
  28.5242424  21.6976032   8.1945810  27.4139538  21.2713909   9.1308441
   0.0913400  36.2881622  70.4916992  -0.3408947  37.0937157  70.7754059
   0.9184027  36.5818748  70.1096878  20.6904449  35.1926346  81.1249466
  20.7022896  35.9776192  80.5773239  19.9494591  35.3243675  81.7164001
  76.7562790  68.4664917   0.9120660  75.9378662  68.3278275   0.4353987
  76.4844055  68.8350449   1.7525944  67.6001129   3.7753329  16.6410275
  67.0835495   3.3745570  17.3401546  67.0001221   3.8222334  15.8966827
  20.7076473  59.2168007   1.7289722  20.2336063  58.8202553   2.4599104
  20.5264778  58.6414948   0.9857134  44.9212494  30.1586075  17.1344223
  44.6792984  29.4758492  17.7601471  45.0749397  30.9342728  17.6738243
  44.8626556  55.3080101   3.5795939  45.1750259  54.4969559   3.9806540
  44.8722610  55.9468384   4.2923617  86.4556808  46.2381020  88.3338852
  87.1615524  46.1274300  88.9708633  86.2637634  45.3501396  88.0323639
  50.0859566   1.4087430  82.0077286  51.0192833   1.2815989  82.1779480
  49.9870300   2.3558655  81.9107590  57.3959236  53.1556168  71.9516907
  57.0116386  53.6002197  72.7072601  58.2932663  53.4862022  71.9101257
  42.4871445  62.5766449  28.8358288  42.3545914  62.0470810  29.6221008
  42.8660851  61.9701157  28.1996250   6.3230405   9.5730114  55.2599487
   6.1911039   9.8357048  54.3490067   6.8579750  10.2721796  55.6357689
   9.2846537  41.4873428  72.2412949   8.8535767  40.6613388  72.0219269
   8.7362480  42.1588364  71.8356171  84.5029373  34.6101875   5.3890867
  84.3586273  34.6598854   6.3340397  83.6495438  34.8122253   5.0055170
  62.1600723  70.1369324  22.4595509  62.6147919  69.5544739  23.0680008
  61.2480736  70.1217804  22.7498245  57.5174828  54.5014191  74.3553391
  57.2782059  54.2532349  75.2482986  58.4744339  54.5225143  74.3608856
  43.6735077  60.2792130  40.9009056  43.2839890  61.1134682  41.1626701
  44.5687866  60.3167953  41.2375031  83.1075439  29.6691952  39.5249939
  82.7602844  29.5859566  38.6368942  83.9842224  29.2880516  39.4760704
  27.5975971  59.6025810  23.2372494  27.5800114  59.5525894  22.2815170
  27.9815559  58.7704468  23.5135899  43.3531723  70.9199982  47.8794136
  42.4197922  70.7732468  47.7261238  43.4686813  71.8636780  47.7682762
  21.2898540  41.3286247  62.9701767  21.4160480  41.1069832  63.8927727
  20.3411999  41.3027077  62.8452148  50.2591743  49.4481697  24.5848484
  50.5183525  50.3608627  24.7115536  49.9878464  49.1533432  25.4541531
  81.5651093  18.7173710  82.5360336  81.6128998  18.8278332  81.5864334
  82.4013672  19.0532665  82.8586273   4.2087216  38.8481369  44.6559372
   3.6418943  38.2935257  45.1919823   4.4110909  38.3129845  43.8885460
  74.0540085  44.8846474  61.6998177  73.2598038  44.8898163  61.1655540
  74.1892548  43.9627419  61.9189758  84.1712875  21.3056126  40.6315308
  84.6158600  21.4885826  39.8038177  83.5530777  22.0288429  40.7363358
  50.6589394  12.3490124  32.5600510  51.2806740  12.5511065  33.2592163
  50.3848190  11.4489527  32.7360725  18.7156219  40.9976120   9.8885965
  17.8920784  41.3778915   9.5829926  18.9335098  40.3376579   9.2304039
  21.3465195  53.5049324  37.0202713  20.9975986  53.0035477  37.7572212
  20.5719242  53.8585434  36.5830154  71.9801636  68.7754898  85.3456573
  72.8454361  68.9096222  85.7323685  71.3712463  68.8916168  86.0750198
  46.1332664  20.9092655  53.4614334  46.1466904  21.8365936  53.6983223
  46.9210854  20.5470619  53.8668709  75.3768387  51.8761635  20.4990234
  75.7841034  52.1160927  19.6666775  74.5717697  52.3930435  20.5295391
  56.7648354  48.2780533  39.3798981  56.4085464  47.3926544  39.3066864
  56.0464973  48.8486443  39.1066818  51.0438423  54.4082642  65.6502838
  51.8389091  54.0532455  66.0478592  50.8979340  55.2373886  66.1058044
  72.5887222  50.4180412  62.7552986  73.4198990  50.8419075  62.5414886
  72.6709824  50.1819305  63.6792679  31.9233932  43.9437218  24.3245926
  30.9928932  43.7194481  24.3144512  31.9441433  44.8687897  24.5696468
  54.0997543  14.4208860  23.1863632  54.6154556  13.8292255  23.7342873
  53.8047180  15.1063442  23.7858047  84.5317764  69.8278275  34.6225433
  85.4513168  70.0106354  34.8155594  84.1615067  70.6798248  34.3918152
  36.0660439  66.5046158  18.1137218  35.3055458  66.8829803  18.5549831
  36.7283211  66.4287338  18.8006420  49.6878624   5.7394934  60.8037300
  49.2668037   4.9508877  61.1458435  49.8740196   6.2676010  61.5800552
  24.3552704  10.1725311  52.3940086  25.2445316  10.0585775  52.7293625
  24.0394974  10.9701071  52.8187332  22.1886349  63.3996582   3.8934474
  22.9246273  63.3188324   4.5000896  22.3302708  62.7043114   3.2510545
  55.2036667  31.6963711  70.2019272  55.7138176  31.2028332  70.8441086
  55.7740364  32.4226151  69.9499664   9.9450607   0.7837086  15.5054045
   9.1277857   1.0720177  15.0989914  10.1149549   1.4326515  16.1882229
  84.7029114  42.7361069  20.9318066  84.4869995  42.7642136  19.9996986
  84.0965195  42.0928154  21.2988281  78.3096771  68.3501892  22.0845032
  77.6994934  68.5744095  22.7870941  77.9914703  68.8393326  21.3257427
   1.4550383   3.6098099  87.6588516   0.8114819   4.1032591  87.1503525
   2.2117403   3.5331883  87.0776749  57.2517433  31.8101025  27.8126335
  56.5862045  31.1414165  27.6509171  56.9204521  32.5902557  27.3678398
  68.5159454  33.3531799  19.6346722  68.2049866  34.1524887  20.0596924
  69.3817825  33.5826607  19.2971802  83.4900589   3.6323502  52.2516975
  82.8671494   3.6185532  51.5250473  83.4043045   2.7694881  52.6570969
  82.0555649  12.7476645   4.0152807  81.8137589  13.5996141   3.6520431
  82.9145355  12.8916645   4.4123607  45.6296310  45.8972206  77.0827179
  46.0990868  45.1664429  76.6804581  46.3106728  46.5407600  77.2783508
  79.8421860   1.2671411   4.4223776  79.7859421   0.4890048   4.9769697
  80.6664963   1.1633816   3.9470062  48.4149055  31.3213730  16.4064102
  48.4670944  31.7997799  15.5789833  47.6116867  30.8056946  16.3346653
  34.7941284  12.4146128  12.8835859  35.4687004  12.1812582  12.2458296
  34.9823341  11.8639908  13.6436033   4.5443645  29.9203358  15.3945694
   5.3220096  29.3945045  15.2074795   4.4815707  29.9236317  16.3497009
  71.0391769  38.8368797  51.8477974  71.1993332  38.2089310  52.5522575
  70.6545639  38.3143654  51.1440353   6.6658964   8.9449968  41.0333519
   6.0225768   8.4976645  40.4835663   7.3711286   9.1829967  40.4314919
  22.0092564  69.5093460  13.3022556  22.0164967  70.4414291  13.5199852
  21.5298405  69.4602966  12.4752197  28.0915432  41.0236855  81.3651886
  28.1890831  40.0944214  81.5730057  27.5306931  41.3670731  82.0607224
  33.5936089  54.6208305  31.0379639  32.6995125  54.5579414  31.3739185
  33.4869423  54.7442093  30.0947609  80.2823563  26.6266689  75.4774017
  79.9145203  27.4612713  75.7678604  79.8155365  25.9674873  75.9910049
  45.0432053  47.6709900  47.4793968  45.1674690  48.4416580  46.9254494
  44.0946922  47.6064377  47.5906906  56.8918610  11.6137075  89.0110168
  56.1820030  11.7793274  89.6314240  56.4576721  11.5569248  88.1598511
  77.6662903  48.0642128  87.7261200  78.2390823  47.3462677  87.9957428
  76.7923965  47.6748466  87.6955414  59.2524643   3.0767653  24.6472244
  59.7152596   3.8511276  24.3271980  58.7589684   3.3890636  25.4056206
  67.3737183  23.5956745  37.6239815  66.4288177  23.7472019  37.6448402
  67.5130310  22.8679886  38.2300301  55.0366440  59.4409447  44.7738800
  55.5712929  59.1815987  45.5242958  54.2093620  59.7311630  45.1580811
  70.0925369  60.4819908  46.4312515  69.4509201  59.7716637  46.4290695
  69.9934845  60.8968468  45.5743332  16.2406101  28.1807575   7.6192112
  17.0993099  28.0100136   8.0061359  15.6335936  27.6580505   8.1431789
  48.5093460  12.9797573  48.6677933  49.1730995  12.6776791  49.2878036
  47.9397087  12.2214680  48.5384026  65.3167877  57.3929977  23.7034893
  65.1794739  58.3218994  23.8892727  65.4576035  57.3562241  22.7574196
  30.1689472  35.3486366  10.5943336  29.5395088  35.2382050   9.8817024
  29.8890915  36.1486092  11.0392628  40.5053253  36.2311134  16.1858635
  40.7744560  35.6979370  15.4378529  39.6709824  36.6161041  15.9177456
  73.5584717  57.2334595  53.9821472  73.3113632  57.5941696  54.8336525
  72.7718735  57.3273468  53.4448624   4.5729113   7.2334442  11.6889725
   4.8606849   7.9410295  11.1121349   3.6548333   7.4325361  11.8726225
   2.4238944  45.7063980  78.3783875   2.2105060  44.8379745  78.0370026
   2.6210692  46.2278252  77.6002655  40.0545502  18.3387680  88.7795486
  40.2130356  19.2219753  88.4462891  39.3399925  18.4444027  89.4076233
  81.4892960  66.9068909  28.4343185  82.3592911  66.6133118  28.7047844
  81.4810715  66.7884064  27.4845161  49.3024292  47.0457039  36.6485481
  49.6331024  46.1474342  36.6493912  49.5600471  47.3965645  37.5010490
  62.2168350  55.4347801  26.7468662  61.2670784  55.3716583  26.8479366
  62.3422394  56.1062584  26.0763283  71.3888321  41.6192398  51.0350342
  72.1051941  41.7771187  51.6499557  71.2812805  40.6681061  51.0317039
  13.9987936  34.1026917  63.2357292  13.9964342  35.0535202  63.3459549
  13.4757004  33.7754440  63.9675179   1.2384309  70.8608780  68.0229416
   1.4401084  71.1924286  67.1479340   1.3719286  71.6124420  68.6004944
  11.0343904  31.9512177  22.5928192  10.5318394  31.1370792  22.5636330
  10.9131575  32.3387260  21.7260036  13.3785162  56.9473038  77.5415039
  13.7688408  57.8190498  77.4787674  13.6879253  56.4895248  76.7598801
  38.4362450  30.6097527  74.1590881  38.6569252  30.5948277  75.0903854
  39.2265778  30.9388065  73.7309113  66.4434052  13.6696568  37.6954613
  65.8595047  14.1897459  38.2475395  66.0310593  12.8066845  37.6570358
  72.7562027  24.5819588  74.7820435  72.2467728  23.8240299  74.4952469
  72.1190186  25.1477280  75.2180862  20.4967117  41.4033623  69.9337463
  19.5792122  41.1859741  70.0985870  20.9816742  40.6304359  70.2229309
  50.6387520  33.0893707  13.6784630  50.5974274  33.5104294  14.5370855
  50.7053375  33.8156281  13.0585070  59.4389229  54.0097733  49.1050072
  58.5372124  54.2258263  49.3426437  59.4398804  53.0573158  49.0098457
  75.5615845  12.1148281   8.6937408  76.4096603  12.5358334   8.8342896
  75.0593033  12.3187017   9.4826517  26.7182426   7.9577894  48.6937752
  27.4271107   8.5803022  48.8556900  26.5017586   7.6109123  49.5592461
  20.2648468  64.0244827  65.6765442  19.9248981  63.1806755  65.9742966
  19.4861069  64.5686493  65.5596085  59.2399330  70.0496292  19.1562958
  59.2623405  69.8234482  18.2264709  59.2379913  71.0067291  19.1699982
  81.7684708  26.1821156   0.6056591  81.8681412  27.1140213   0.4111127
  80.8923111  26.1088104   0.9840820  30.9937935  34.2149200   1.1893916
  30.9301243  35.1156845   1.5068837  31.7832756  33.8693733   1.6059809
  55.9291458  24.2617092  42.9727707  55.7828293  25.1513786  42.6513519
  55.1005440  24.0164890  43.3844948  73.3488007  32.7852249  39.2383919
  72.5814819  32.9967346  39.7701035  73.0107346  32.2190895  38.5445404
  32.9696388  49.1856689  41.2256622  33.8652344  49.5234985  41.2287025
  32.9211464  48.6426735  40.4388733   8.9582834  60.2340813  32.3423843
   9.6352386  60.6432228  32.8814240   8.4168911  60.9643593  32.0426865
  66.7291565   2.8682785  39.6647835  66.9145889   3.1729946  40.5530357
  67.0128021   1.9540763  39.6610832  27.3791618  25.8076458  17.6806316
  28.2404976  26.1969604  17.8315163  27.5644035  24.9832268  17.2309093
  33.0238495  60.9008217  35.7544403  32.4984283  61.6296654  35.4243622
  33.8779564  61.2884712  35.9453964  81.7109528  25.6488476  33.3403473
  82.5261917  25.6577606  33.8418884  81.0614243  26.0282555  33.9322853
  35.2879448  71.5020065  58.8468170  34.6520729  71.9000092  59.4413643
  35.6975937  70.8082962  59.3637199  20.9891624  57.3197594  12.7205057
  20.5565701  57.0131416  13.5174265  21.2122192  56.5190392  12.2458248
  84.1368790  53.6950684  50.8368797  83.3390808  53.7284012  50.3090172
  83.8268280  53.7279434  51.7418785  35.7851372  11.0377817   0.8066068
  35.6384087  10.8162403  -0.1129700  35.1542969  10.5006800   1.2859733
  45.5789223  30.2552414   3.4862530  45.6459274  30.4980431   2.5627873
  46.3380165  29.6932831   3.6418417  26.5554161   3.9189870  17.8949604
  26.1797543   4.5305963  18.5282402  26.1282272   3.0839694  18.0859718
  54.3563957  41.6869278  32.3474808  53.4344139  41.4548073  32.4583702
  54.7998772  41.2645378  33.0831070  84.6724472   3.8309374  44.1894722
  84.0015335   4.4001937  43.8125687  85.4583130   4.0133128  43.6743088
   0.2744324  55.5636024  77.7606049   0.6360840  54.6782837  77.7199097
  -0.6728018  55.4335289  77.8059921  15.9792061  20.5486870  10.8430538
  15.9617996  21.5030479  10.9146261  16.1389198  20.2443771  11.7364292
  74.5445480  68.6588898  12.3886280  74.9180679  69.3403244  11.8297243
  74.9201889  68.8255997  13.2531147  63.2674713  50.9330864  36.4987106
  62.9865761  50.7716904  37.3994217  63.4607658  51.8701973  36.4723778
  50.9990234  16.7876930  35.4561729  50.3784904  17.2949619  35.9794807
  51.0618019  15.9462643  35.9081535  83.4823380  67.9804764  18.4185925
  82.6596603  67.5462723  18.6442051  84.1338654  67.5691147  18.9865055
  25.4581738  67.5203552  65.7947998  25.3072433  67.4380798  66.7364426
  25.5744457  68.4596786  65.6520386  61.6422195  45.6752625  41.2551918
  61.2713242  46.1007462  40.4821243  61.7045403  44.7512360  41.0132790
  11.6756315  20.5997620  73.7661285  11.9717188  20.2187157  74.5927887
  10.8867445  20.1054668  73.5435104  32.6857948  39.4933777  18.1036186
  32.5020027  38.7803040  17.4920845  31.8343525  39.9030685  18.2566910
  19.0438251  31.5559292   9.6299477  19.4482899  30.8059711  10.0660696
  19.7767353  32.1345711   9.4195919  70.2460098  28.5671120  87.7368317
  70.7943726  29.3233757  87.5280380  70.8625107  27.9006958  88.0402145
  42.8608971   8.5815897  76.2125397  42.7901955   7.7652416  76.7073212
  42.0122643   8.6733894  75.7793808  47.1040535  10.9188614  14.6408548
  47.8452721  11.5185213  14.5558033  47.4436073  10.0746870  14.3436937
  40.7306366   7.6342039   1.1693584  41.5407143   7.1525865   1.0018735
  40.1143608   6.9679027   1.4734635  46.2098961  37.2469597  22.2783451
  46.3842354  36.3230286  22.4577579  45.3364067  37.4002228  22.6385612
  70.0171967  38.2333832  28.7759781  70.4426727  38.9381828  29.2643013
  70.2882843  37.4329796  29.2255306  10.9525528   1.1894181  88.3030624
  10.5017281   1.4842086  87.5118027  10.4841127   1.6180077  89.0193787
  24.3987961  70.1685028  27.3027306  23.8166542  69.5237045  27.7046967
  25.2360611  70.0473099  27.7505398  38.0612488  68.2134171  57.8969421
  37.7115135  68.2509003  58.7871742  38.5564461  67.3947601  57.8684311
  66.0228958  63.5559692  12.7938395  66.2838287  64.0466690  12.0145082
  66.5260620  63.9515648  13.5055685  81.2662506   4.9889531  26.7833176
  81.7500839   5.0551538  25.9600601  80.9753189   4.0776806  26.8175335
  29.7056007  20.4057846  86.4243927  30.4577599  20.0484791  86.8964310
  29.7008934  19.9358559  85.5904999  63.0737534  15.1019402  17.9251366
  62.4144783  15.4418879  18.5301361  62.7302666  14.2521000  17.6494160
   0.1403314  67.0016174  84.0325470   1.0687689  67.2081223  84.1402206
  -0.3162784  67.6990051  84.5030670  35.5744019  55.9075546  32.6322937
  35.2727814  56.5074348  31.9500904  34.7949104  55.4066391  32.8725204
  68.7779846  20.6012402  50.1154785  69.0174026  20.2368832  50.9676247
  67.9397202  20.1893959  49.9058647  37.3550873  46.0066948  59.8227882
  36.8009071  45.2533340  60.0266724  37.8345375  46.1777039  60.6334152
  51.3804245   4.4654374  69.7939835  50.6208611   4.6173944  69.2316589
  51.2204819   5.0098739  70.5648575  37.3983116  25.7028713   7.0710545
  37.6159744  25.0677052   6.3888378  37.3511467  26.5412254   6.6115236
  15.3825102  63.7356033  81.4046860  14.6824179  63.0833397  81.4302979
  15.7772398  63.6976128  82.2758789  72.4899826  38.2859535   1.3837476
  72.3879700  37.5610466   2.0004561  72.4111938  37.8792076   0.5208560
  23.6163692  20.2835598  72.9193115  24.2192268  19.6476536  73.3045578
  24.1413288  21.0767384  72.8119812  63.3259163  29.6853333  24.2917843
  63.2125015  28.7601948  24.5097027  62.4373474  30.0412350  24.2882099
  28.6505032  57.0952911  23.5501137  28.5472755  56.4303398  24.2308578
  29.5569229  56.9999313  23.2576351  52.2057571  58.5221825  35.4640083
  51.5900841  59.2471046  35.5720024  52.4624710  58.5612030  34.5427017
   7.7295260  59.3205948  48.8563995   7.2623701  59.4112854  49.6869240
   7.1053939  58.8835526  48.2770157  36.7674866  28.8603458  89.0072861
  37.5659676  28.3589935  89.1725464  36.5353355  28.6497746  88.1028595
   5.9450006  46.1015663  37.8148689   6.3344584  45.9894142  36.9477043
   5.0149617  45.9156990  37.6855927  29.1513786  24.6055775  20.6211758
  28.5343895  25.3370514  20.6435680  29.4967823  24.6108265  19.7284832
  36.8667145  50.1411400  18.8568172  37.6293411  50.0797844  18.2816010
  36.2485199  50.6923370  18.3769817   4.9642415   4.5676064  55.5311928
   4.7411366   4.8670945  54.6498528   4.1637869   4.7002831  56.0390320
  33.1735191   4.9023900   5.7096758  33.4439125   5.5640736   5.0730500
  33.1367645   5.3724198   6.5427141  74.9478531  21.2720356   6.9129801
  74.8842773  20.7343521   7.7023392  75.8444290  21.1400318   6.6048336
  31.8762531   2.8215294  77.3896637  32.4748306   2.0757630  77.3475876
  31.5106125   2.7856081  78.2735443  17.0378933   2.7561202  15.3742638
  17.5996628   2.2647610  15.9736071  17.2625160   2.4208138  14.5063095
  67.8169403  44.4114876  85.5804138  66.9188690  44.1204414  85.7385178
  67.7343521  45.3429260  85.3758850   2.6710079  39.6834450  58.4611435
   3.4995239  39.2043037  58.4759369   2.1937478  39.3602562  59.2253456
  67.1762314  64.8712082  37.4428177  66.4822540  65.5282593  37.3888702
  67.1238098  64.3987122  36.6120186  13.3004646   9.3435926  37.8280373
  12.6159821   9.7325401  37.2835808  12.8900681   8.5683937  38.2112770
  78.6270981  17.8738518  37.5500298  79.0568771  17.9551487  36.6986122
  77.7999268  17.4314537  37.3595200  34.3123245  16.4626789  75.5093689
  33.5180702  16.7768974  75.0773239  34.0110664  15.7549677  76.0791245
  47.4485397   9.4254627  19.1413326  46.9160156  10.0888281  18.7024784
  47.0441437   8.5931787  18.8963871  19.3062820   2.2396543  18.0786476
  19.9203625   1.9116521  18.7355728  18.4614029   1.8697531  18.3347416
  63.2960968  59.7360420  46.6596909  64.2514496  59.7952805  46.6552658
  63.0993500  58.9959755  46.0853920   1.8313769  41.0673752  43.2620735
   1.3001964  41.3397560  42.5138168   1.3031743  41.2963715  44.0267906
  80.4644470  64.2172470  19.7013569  80.5114517  64.0004272  20.6324921
  79.9164124  63.5298271  19.3227406  36.8295212  24.4549580  16.6214123
  37.1807289  23.9923706  15.8605595  36.7286835  23.7762661  17.2888241
  46.6469154  21.5177174  26.8685818  46.7882576  20.6377983  27.2178593
  47.2344131  22.0751648  27.3788052  53.1618919  14.0017252  26.3784561
  53.6053391  14.8038502  26.6544685  53.8275642  13.5152111  25.8922291
   8.6739111  69.2616730  19.8681889   9.3206663  69.9665604  19.8354301
   8.2792501  69.2580109  18.9961433  13.6180515  26.6264896   2.0137608
  14.0958767  26.1548347   2.6960049  13.9668531  27.5171700   2.0491843
  73.7964401  35.0883980  86.0779190  73.3862991  34.2372742  86.2315445
  73.8472443  35.4898529  86.9453812  72.2982635   5.3395557  23.7312145
  71.5187607   5.8094501  23.4348888  72.0129166   4.4294877  23.8123779
  42.1908989  66.2092972  82.5481110  41.9243584  65.7872620  83.3648605
  43.0964050  66.4786911  82.7021255   7.5714741  47.9154510  64.2034836
   8.2463970  47.5308685  64.7627716   7.8396001  47.6875687  63.3133087
  23.8957634  66.6614609  74.3838730  23.7643261  65.9860382  73.7184753
  23.6641026  66.2337952  75.2082901  39.3677635  32.3689804  22.6967697
  38.6576118  32.1352615  23.2945118  40.0959663  31.8053112  22.9579773
  20.7098179  68.0259171  77.1713181  21.5863800  67.9246063  76.8003616
  20.1831417  67.3621140  76.7261047  70.5775223  36.8105469  49.8222923
  70.7172241  36.1353989  50.4862900  70.5282669  36.3282280  48.9969635
  11.5414295  13.0471449  16.1819687  10.8624382  13.6360245  15.8526917
  11.9560900  13.5341358  16.8940983  12.4160700  36.4870605  80.4995422
  12.9914007  37.2485123  80.5731583  11.6924410  36.6749382  81.0972824
  76.4907379  62.5736694  42.0320435  76.9767685  62.2615852  42.7953300
  76.7972183  63.4713287  41.9035530  23.3913708  46.4071388   8.6136436
  24.2503338  46.1935539   8.2492294  23.1053734  47.1748848   8.1186638
  42.0702896   8.2787161  18.6435223  41.5109711   7.9361930  17.9463348
  41.7329636   7.8731341  19.4422379  35.7025719  50.5610046   9.7229757
  35.8782425  50.9702911  10.5702391  34.9661102  49.9726257   9.8893099
  71.4588318  49.4164124   2.7427049  71.5410843  48.8136711   2.0036731
  72.3535995  49.7113533   2.9119537  20.5342178  64.8714523  30.2003574
  20.3331394  64.5173721  31.0666313  21.2405777  64.3150177  29.8722286
  57.2454910  59.2509956  21.5782681  57.2052155  58.3092308  21.7446804
  56.4488297  59.5992470  21.9786243  86.5781250  19.7373943  59.6923866
  87.4157639  19.6092854  59.2472191  86.2071838  18.8577862  59.7625427
  14.2206879  32.3159370  77.5011673  14.3513517  32.2644844  76.5543213
  14.6241693  33.1463509  77.7538528  24.8534012  28.8031330  76.8631439
  24.8933010  28.3563747  76.0175323  24.2592773  28.2677536  77.3890839
  38.4292641  19.7178478   1.4300377  38.9385338  20.5214024   1.3243306
  37.5173492  20.0026875   1.3707592   5.3871703  58.5519180  47.6193504
   4.8894224  59.2401848  47.1780205   5.0759864  57.7387581  47.2216454
  69.5147324   7.6026978  83.4024734  69.0002060   7.1822081  84.0914459
  69.1443558   8.4823551  83.3299866  54.1297913  17.5436268  46.9005470
  53.6411362  17.0599995  47.5665398  54.6850243  16.8840485  46.4847260
  43.2014160  39.3436470  70.5734787  42.6529808  38.5594711  70.5962219
  42.5799713  40.0687294  70.5079422  83.6869583   0.8546221  56.9480591
  83.7811279   0.1306182  57.5670776  83.1088333   1.4753196  57.3916130
  50.9223404  20.9586201  74.5831451  51.7525826  20.6386280  74.9360352
  50.9163589  20.6575356  73.6745453  13.6570415  69.7282410  40.3027344
  14.4792147  69.3792496  40.6469269  13.8256311  70.6626282  40.1813545
  80.5929794  58.4217453  65.6527100  81.0644379  58.2717438  64.8332825
  80.2543945  59.3136330  65.5744247   0.5181686  20.6504993  33.1854401
   1.3916373  20.9163818  33.4728241   0.3981267  21.0915985  32.3444557
  62.0911713  14.4101276  81.0424957  62.8294601  13.8253059  80.8717804
  61.3264465  13.9290571  80.7262650   2.3776574  63.3004074  81.1620331
   2.3360598  64.1666794  81.5670929   1.4625067  63.0369339  81.0655289
  48.6693916  41.7462616  69.9056778  49.2638016  42.0607491  70.5868530
  47.7953758  41.8616219  70.2785416  78.4708633  32.4689903  29.6081257
  79.3796844  32.6590424  29.8408470  78.1690598  33.2576981  29.1574783
  30.8438396  19.9182854  14.5004177  31.2956085  20.6397247  14.0626268
  30.0498505  19.7837276  13.9830141  82.3548050  42.8317184  80.4953766
  83.1726379  43.2808914  80.2817612  82.3375168  42.0744705  79.9101410
  25.9874706  70.4984512  62.0205765  26.8207150  70.9420395  62.1792107
  25.3316841  71.0713043  62.4180908  61.5470009  51.1911354  16.9558430
  61.6372490  51.1480598  16.0038795  62.3901596  50.8855705  17.2904301
   3.2140694  30.6375084  19.8544273   2.8400187  30.3075714  19.0374451
   3.0380938  29.9476337  20.4942207  51.1448441  57.5313950  82.3425751
  50.8435745  56.7086639  81.9571075  51.6379814  57.9578362  81.6417236
  35.0895386  59.1495056  47.1330986  35.5660591  58.7930870  46.3833466
  35.7313919  59.1571960  47.8431664  54.2942238  70.7925339  85.4186859
  54.1071701  70.9693375  84.4967422  53.6701813  71.3372040  85.8984222
  73.2003555  46.5632744  36.6466637  72.8934402  45.8790588  37.2415466
  73.6008301  46.0865784  35.9196091  74.7834015   7.2288494  82.8160248
  73.8856354   7.0697813  83.1074677  75.3175430   6.6478610  83.3576660
  43.6500206  68.2169800  25.2733383  44.1373901  67.8037643  25.9860477
  42.7370605  68.1887131  25.5595798  41.4281845  70.6546631  72.0802917
  41.6536598  69.7506943  71.8606873  41.3595314  71.0967331  71.2340698
  85.9293900  18.8886375  23.3912354  86.7598724  19.3444061  23.5283794
  86.0715179  18.3636551  22.6035652  65.3127441  49.9006424  63.3294525
  65.8564148  50.6865883  63.2751770  65.8250656  49.2912407  63.8608475
  70.0986176  63.0249825  34.4530334  70.0203323  63.9281197  34.7603607
  69.2283401  62.6498680  34.5877190  80.2551956   7.7821994  48.7450104
  80.3205719   8.5137510  48.1311760  80.4684601   8.1641407  49.5964012
  19.6664734  22.1714191  19.6369801  20.3071022  21.4626808  19.6962776
  19.0959587  21.9184837  18.9111900  22.8819027  59.5898705  25.7711792
  22.8746319  59.2753830  24.8671455  22.9201412  60.5430946  25.6928711
  22.7871189  34.7382736  87.9550476  22.1976776  34.2174568  88.5005264
  23.0566635  35.4635696  88.5185394   0.0181510  21.2845993  30.5266953
   0.0255299  22.2343693  30.4078770   0.6522228  20.9584007  29.8881187
  13.4783020  61.9782448  82.4833679  12.8209248  62.3999672  83.0367584
  14.0409393  61.5061569  83.0972137  19.9280796  27.2560940   0.6507283
  20.0239105  26.8436241  -0.2077097  19.4184952  26.6280365   1.1626846
  24.9489422  61.8599625  47.3960686  25.7877235  62.2741318  47.5988998
  24.5642147  62.4169846  46.7193527  34.4368248  32.3120117  72.8109894
  34.3423882  31.4330711  73.1781082  33.5869598  32.7264290  72.9600677
  47.2745094   1.9969192  38.4421616  47.1858559   2.1114140  39.3883438
  48.1545448   1.6388793  38.3256416  27.3795528   6.3954058  25.8536835
  27.3158951   5.4862976  26.1464329  28.2971249   6.6287160  25.9946041
  61.8856239  23.1461601  34.8245811  61.9166832  22.1909122  34.8772125
  62.7207336  23.4336472  35.1935997  62.6798172  51.2983322  45.7033920
  61.8218956  50.9442978  45.4691658  63.2506866  51.0416451  44.9791985
  64.5675201  67.1700668  45.5260429  64.6115952  66.4461136  46.1506844
  64.3696442  66.7517319  44.6881409  48.8459816  59.8391914  36.3430634
  49.3047638  60.6768227  36.2788620  47.9971008  59.9988136  35.9305687
  64.1053925  69.0336456  60.1013222  64.3279495  69.6786804  60.7726135
  63.8963661  69.5561523  59.3270302  31.8736572  61.1822929  41.1072311
  32.8031883  61.4067574  41.1498833  31.7353172  60.9059563  40.2012901
  55.8249245  51.4898453  33.6250763  56.3011017  51.2822838  34.4290695
  56.4054337  52.0840492  33.1495094  23.4438324  34.6201096  79.3161316
  24.2791691  34.2574387  79.6109467  23.0005474  34.8860970  80.1217270
  19.9768314  23.7215614  68.1020966  19.7925835  23.8318787  69.0348969
  19.7641449  22.8057079  67.9226227  16.8712673  20.0612354   2.6925855
  17.2556534  19.6650200   1.9106057  15.9835167  19.7052193   2.7297747
  17.9909611  10.1811934  55.8920479  18.9110565  10.4441671  55.8696594
  17.5625896  10.8533115  56.4221306   4.1608644  68.3291626   4.3869386
   3.9937584  67.9285660   5.2400675   3.2902226  68.5080490   4.0316715
  61.1842346   4.6225362  23.1717510  61.6346397   4.1643963  23.8813095
  61.8719101   5.1282787  22.7386723  48.0875473  32.5864677   5.9418173
  48.2649765  32.4371796   6.8705068  47.1594238  32.3763580   5.8384981
  73.9304504  68.5147476  39.8683891  74.8594971  68.5068588  40.0986977
  73.7642670  67.6414871  39.5133820  33.7095337  61.8574295  15.6588078
  33.1905861  61.0829811  15.8759651  33.2830544  62.5719109  16.1319447
  24.1423817  47.2659569  78.0067520  23.9281826  47.3416862  77.0769043
  23.3550663  47.5685349  78.4593201   3.2889407  49.3412056  60.4807892
   3.3003888  48.7739944  59.7098312   3.7177107  50.1467590  60.1918640
  65.0075378  18.6771240  54.4648056  64.0706558  18.4821033  54.4859657
  65.4041367  18.0079823  55.0226517  49.2340736  54.8107567  16.6080914
  50.0054207  55.0217209  17.1341629  48.5029564  54.8618889  17.2237873
  62.7769852  30.1304569  45.2828674  62.1505699  29.4673500  44.9928207
  63.5070572  30.0552921  44.6683960   3.0450060  67.6173553  49.4162674
   2.8303344  68.3169098  48.7991982   3.2636757  68.0735321  50.2288704
   6.9094172  17.5775280  67.6199799   6.2857385  16.8665771  67.7676468
   6.4066505  18.3752441  67.7846222  32.5996399  42.5902824   2.2913935
  33.5561523  42.6155739   2.2654190  32.3705635  41.7600861   1.8736279
   6.7728634  65.7277451   3.6293118   6.8179283  66.0032043   4.5449114
   7.3999496  66.2928543   3.1780393  47.3030701  15.4393883  17.5054703
  47.6604614  15.5082607  16.6201687  46.4198380  15.0921049  17.3808632
  19.7195072  61.0403252  17.3817558  20.5001831  60.5434990  17.1369228
  19.1072388  60.3798790  17.7060585  30.7150288  67.2057724  55.4054298
  30.1466560  66.7416458  56.0200653  31.5167828  66.6835175  55.3794708
  64.3812408  45.5539742  72.9046021  64.4168396  45.4465103  71.9541168
  63.8446198  44.8219032  73.2084732  42.8400383   9.4750299   6.7321844
  42.5129547   9.3909044   7.6278238  43.4856339   8.7735834   6.6460953
  54.4330025  19.8064766  20.9622402  53.9588470  20.5632515  20.6177101
  55.3458290  19.9663830  20.7226448  53.5302391  46.9172821  89.1675491
  54.0852203  46.3891907  88.5936661  53.2539101  46.3126221  89.8562164
   5.2734141  35.8149223  46.7886353   4.8513393  36.1806679  47.5660095
   4.5484505  35.5044174  46.2461891  54.5304527  21.9541740  63.8735237
  55.1637802  21.2391148  63.8117790  55.0493546  22.7463989  63.7344246
  25.6909714  65.6879654   4.0162787  25.0262699  65.7189178   3.3282051
  25.3148403  66.1951828   4.7356434  37.3131256  60.6411858  32.2124748
  37.1820679  60.1959877  33.0496445  37.8144951  60.0185471  31.6859989
  73.0955353  65.6107635  75.0205765  73.6924973  65.6446381  74.2731018
  73.6689148  65.6393433  75.7865067  65.9082336  38.7054749  16.0069122
  65.6445007  39.1674538  15.2111387  65.2387390  38.9363060  16.6508999
  67.2298431  50.3236542  48.5637550  66.4288864  50.3262024  49.0878754
  67.8278885  49.7502136  49.0430603   7.4326081  17.6518440  28.3077545
   8.2028093  17.0877094  28.3768501   6.6897116  17.0550404  28.3980942
  85.5804291  45.3300209  66.0268860  85.1261368  45.4335251  66.8630295
  86.1948547  44.6112518  66.1755066  62.4158821   1.9992702  26.1873894
  63.2164917   1.4861649  26.0779171  62.5281372   2.7465773  25.5998840
  84.8877106  62.3141251  25.5793514  84.3121643  62.9447250  26.0121613
  84.3544464  61.9481659  24.8737087   5.7577319  67.3841629  39.0828972
   6.2943797  66.8079453  38.5386391   5.1874743  67.8374405  38.4619484
  62.7697449  42.4495468  65.8449326  63.3356476  41.6835480  65.7488708
  63.3752747  43.1813126  65.9636078  63.7568741   8.0776701  19.8132763
  64.3625717   8.7488775  20.1276722  62.9567184   8.5579128  19.6003170
  21.2935905  49.5194931  38.9105034  20.7172318  50.1482162  38.4760475
  20.8258114  49.2785683  39.7101097  41.5908813   5.8200960  76.3128357
  40.6615791   6.0417867  76.2537918  41.8631477   6.1548042  77.1672745
  18.0951042  58.2281342  36.1195412  18.5379791  57.7523613  36.8222046
  17.7020874  57.5439110  35.5776901   6.6219316  59.7873650  15.2738400
   5.7758451  59.7401505  15.7189693   7.2303076  60.0913391  15.9474192
  55.6778259  22.5208969  82.3648071  54.9365005  22.9049835  82.8329315
  56.1691399  23.2735348  82.0355911  80.7613220  41.4787636  63.9920692
  80.7943420  40.6891937  64.5321808  81.3167114  42.1075821  64.4528885
  62.3195381  27.8348312  83.8424301  62.5644722  27.1108017  83.2662201
  63.1473541  28.1292152  84.2222824  51.8725548  26.0447254   0.9683199
  52.7755547  26.0333652   1.2856500  51.7267647  26.9498482   0.6931275
  27.1002369  60.9191933  16.9995079  28.0001545  61.2012825  17.1632347
  26.5883179  61.7277451  17.0199108  74.8427811   3.0063069  83.6877365
  74.1212158   3.4885209  83.2839508  75.1197433   3.5579247  84.4193420
  34.6728134  40.2737083  14.0867434  35.1675644  40.9591675  13.6377449
  34.7156448  40.5145149  15.0121670  64.4266052  26.5675278   6.6023974
  64.2069244  26.3844757   5.6889071  64.0247650  27.4180336   6.7795777
  30.4193363   4.4275846  53.8627434  31.2949009   4.7252684  53.6157494
  30.0277805   5.1788235  54.3083382   6.4496264  71.1694946  68.4946747
   5.8948183  71.6383743  67.8713150   6.0062685  70.3315125  68.6267471
  60.3777237  38.9207573  51.7084656  61.2340317  38.8719711  51.2835045
  59.7501869  38.7788925  50.9997292  28.5499268  11.2632132  73.1239090
  27.6107712  11.1425238  72.9837189  28.9631004  10.7743940  72.4121628
  15.1955156  63.7500420   2.8928671  15.2633085  64.5576096   3.4022493
  14.8762465  64.0333633   2.0361121  41.0646057  58.5689354  86.9731293
  40.3283348  58.1589394  86.5192108  41.4380569  57.8671608  87.5063095
  29.0406513  41.9985275  44.6818314  28.5831108  42.3581047  43.9218369
  29.9581375  41.9580574  44.4119873  13.6256886  57.8369102  34.4746895
  13.2966890  57.4986267  35.3074913  13.5932703  57.0862350  33.8816719
  21.6561909  70.6165237  34.3971634  22.1357365  69.8198013  34.1702232
  20.9091549  70.3084869  34.9102745   2.9266679  16.9657249  59.8208199
   3.1436362  17.0832882  60.7456627   2.3973770  17.7320042  59.5996933
   9.1268911  31.7874470  12.9967251   9.6705189  32.2410393  12.3525534
   8.4427137  31.3647728  12.4776106  30.7904186  33.8764687  20.2350960
  29.9665318  33.4363747  20.4442883  30.8560658  34.5809517  20.8797894
  63.1544113  50.9942513  79.5563278  64.1040192  51.0538483  79.6608582
  62.9430237  50.0924034  79.7976074  85.2664261  71.0891342  21.8014183
  84.8691025  71.8585815  22.2092342  84.7082443  70.9031296  21.0463886
  38.5056114  48.4736366  65.8591843  37.7683258  48.5563354  65.2543716
  38.6695328  47.5319290  65.9096603  15.7426720  38.3532448  29.9887886
  16.5153103  37.9303436  29.6140652  15.6162443  37.9175377  30.8316460
  79.4125595  47.0517120  42.6515121  80.1051483  47.4867477  42.1542244
  78.8890915  46.6008034  41.9890213  72.6825638  64.6810532  12.2661152
  73.4960861  64.4011154  11.8465328  72.0424652  64.0147629  12.0159807
  36.7648163  70.5010605  43.7864304  36.6749611  71.1350479  43.0749359
  36.0516319  69.8786850  43.6441498  52.2567558  44.2762070  43.5973282
  51.9996872  43.4602356  44.0266762  51.8192329  44.9611015  44.1030235
  45.6698112  45.9686317  85.8860016  44.7500992  46.1966095  85.7504120
  46.1566467  46.6904945  85.4883423  44.0819626  47.6491623  16.0823021
  44.6459045  46.9220581  16.3459721  43.6684151  47.9386368  16.8955765
  31.4563980  46.1669121  34.0604362  30.8994522  45.5745354  33.5553284
  30.8843212  46.5038605  34.7499466  39.1172676  65.2795944   3.8354955
  40.0675964  65.1685486   3.8075550  38.8358269  65.1639328   2.9279456
  41.1045952   0.1985811  19.8479080  41.8902702  -0.1427770  20.2750168
  41.3010292   0.1516241  18.9122581  37.6014252  17.8045959  85.0628891
  38.1965714  17.1420097  84.7121658  36.7298737  17.5040913  84.8053513
  40.8510246  42.2927055  85.8071289  40.4688644  41.9421082  85.0026016
  41.2777557  41.5404091  86.2172318   7.1851063  43.2216873  71.6753159
   6.4836345  43.8241844  71.4280014   6.9599309  42.9434166  72.5630646
  11.9056835  56.5503502  14.8743086  11.3316994  57.2174416  14.4977913
  12.1097345  56.8768730  15.7506523  83.8103027  15.7930145   2.6115501
  84.2242966  16.5567398   3.0135052  84.2039032  15.0439615   3.0590253
  69.7267990  70.8380280  55.9890060  69.4847107  70.1337357  56.5903358
  68.9126129  71.3202286  55.8447266  55.5628128  51.8754234  14.8893681
  56.4901848  51.8332329  14.6560564  55.5578194  52.1781578  15.7974195
   1.7400852  64.4156036  29.1353283   1.6468501  63.7268372  28.4771900
   2.6341758  64.7374420  29.0202026  26.9094410  69.8085785  65.6294632
  27.5407505  70.0248642  66.3156815  27.2507973  70.2390900  64.8456421
  72.7902679  62.7598381  77.2343521  72.0206223  62.8051720  76.6670609
  73.3392105  63.4914742  76.9522018  51.6007004  38.0041161  55.7481384
  50.9908829  37.3108711  55.4956169  52.0925980  38.1931915  54.9490623
  80.3361816  17.0918808  68.8577576  80.3662720  17.7379894  69.5633545
  80.6817932  16.2908382  69.2516022  56.6047554  24.8849850  29.0823689
  57.4830017  24.5128460  29.0022106  56.6078148  25.6360741  28.4889984
  42.3370171  38.2173424  25.8416271  42.0190315  38.9457283  26.3750782
  41.7079468  37.5131264  25.9984226  84.9338837  56.8227234  56.6700745
  84.3074265  56.7004776  55.9567451  85.3302383  55.9599075  56.7912560
   2.9507267  28.1431694  70.2852020   3.7858570  28.4778347  70.6119843
   2.3569350  28.2096863  71.0330124  72.6800613  38.3426170  83.6393127
  72.8156204  38.3750076  84.5863113  72.6814270  39.2598648  83.3656464
  78.4202499   1.1512398  73.8089676  78.8127441   0.9845268  74.6659317
  78.1385345   2.0652010  73.8482666  63.2397346  13.4438763  74.5788422
  62.3728828  13.0781860  74.4025879  63.0686646  14.2173214  75.1161957
  31.9113979  48.2327003  51.1167870  31.1631088  47.8636513  51.5859337
  31.7882004  49.1800385  51.1768265  60.3941956   7.1892042  85.2332840
  61.3273773   7.0161562  85.3576126  59.9991875   6.9945083  86.0831680
  70.5227737  13.6095953  40.7068710  69.5741043  13.6237230  40.8335991
  70.8302383  12.9056139  41.2779274   4.0547128  17.4234161  62.3797874
   4.9046092  16.9878044  62.4442253   3.5539162  17.0822411  63.1207581
  52.6552010  25.8290939  16.6845398  52.4311714  25.8501129  15.7541637
  51.8498917  25.5473461  17.1185055  11.6365986   7.1592131  80.0357208
  10.7854643   7.4908834  80.3217163  11.4278078   6.5178313  79.3565521
  83.6227722   5.1184797  33.1023598  83.1842041   5.3532090  32.2845612
  83.9514465   4.2321339  32.9520340   1.9065573  32.6605988  73.0360184
   1.7831544  31.8320541  73.4991760   1.0330660  32.8901329  72.7189026
  30.1318626  61.4282074   2.4212570  29.2317963  61.4466400   2.0960279
  30.0433903  61.2785873   3.3625424   0.1966990  12.9658623  48.0404587
   1.1310861  13.1210794  48.1785202  -0.1664329  12.8899899  48.9228477
  29.8862915  53.5249596  71.3758774  29.1712132  53.7671890  70.7874756
  30.6499443  53.9843712  71.0265808  24.2704906  48.6503258  68.3426971
  24.9083939  49.2023849  67.8904343  23.8204517  48.1800957  67.6408539
  52.8836555  33.1397133  73.9775162  52.7990799  32.7118187  73.1254730
  52.2479439  33.8548164  73.9505692  71.5400696  16.4599934  26.1884346
  70.5852051  16.5199375  26.1587772  71.8382416  17.0373497  25.4855938
  81.9732361  13.1846104  66.1971741  81.5491714  12.3361444  66.0686951
  81.2518234  13.7888470  66.3723831  33.9544067  29.7872448   0.9559290
  34.4516716  30.2553425   1.6266326  34.5673218  29.6907101   0.2270610
  84.6327209  35.2694702  37.1502190  85.1849289  35.9396019  36.7474480
  84.2958908  34.7613678  36.4122391   7.9008403  54.3715057  18.8701038
   8.7122145  54.3401146  19.3769741   7.2874975  53.8291893  19.3660221
  44.9401512  51.7747993  16.9196892  44.8814926  51.6187515  17.8622589
  44.6866035  52.6915550  16.8124542  13.1842394  70.3053284  84.9677887
  12.4432306  69.9619598  85.4670258  13.6695900  69.5271454  84.6937408
  48.4858742  52.9974365   2.7303107  48.2819443  53.8909225   2.4540381
  48.2282410  52.9669380   3.6516838  62.2891121  55.0034599  42.0211678
  61.5586128  54.5469093  42.4384995  61.9708824  55.8969612  41.8922615
  41.7674942   8.9317627  70.2930984  42.5292015   9.3282433  69.8702087
  41.8811951   7.9909902  70.1579971  61.4473267  24.1096497  43.1630363
  62.4014511  24.0374393  43.1887703  61.2049637  23.7745438  42.2997894
  66.9287033  53.9552345  82.9479904  66.9663544  54.5342445  83.7092819
  66.4365234  53.1923828  83.2513809  21.0053844   3.9146285  77.1627655
  21.6782646   4.5942473  77.2025452  20.1861095   4.3953500  77.0447540
   5.3179393  68.3905029  85.4256363   5.9464550  67.9689865  86.0117493
   4.7270842  68.8657150  86.0098343  58.7618217  50.2833252  68.7758255
  58.6755676  51.1391754  68.3559189  58.4471817  50.4220200  69.6691284
  61.5582199  65.5774155  56.0578499  62.3519135  65.1067352  55.8033943
  61.8368454  66.4893799  56.1410332  46.7472992  22.3168755  13.6814890
  47.6539230  22.0375481  13.5540419  46.3003006  22.0538750  12.8769655
  55.5660934  11.6084766   4.9346604  55.1685066  12.2894106   4.3919969
  55.1708260  10.7937660   4.6244345  73.8369370  20.8040562  24.6775894
  73.1222610  20.3655014  24.2159157  74.1847916  21.4293118  24.0417538
  63.0163231   9.0892687  72.4747162  63.2491379   9.3232489  71.5762253
  63.8382187   8.7928104  72.8656464   1.7338500  66.8928146  16.9438953
   2.4036329  67.5743637  16.9996490   2.1672432  66.1672897  16.4944267
   4.9387975   8.6588163  82.5117569   5.5714817   8.0167952  82.1896515
   4.4879179   8.2121067  83.2282715  75.2521744   8.2825146   3.1139884
  75.5952759   8.8518114   2.4252131  76.0238647   7.8356700   3.4619176
  52.9643173   4.4492512  82.5387878  52.9330788   3.9442120  81.7262650
  52.1561890   4.2171621  82.9962769  13.9727869  38.2437248  71.3035583
  13.0212040  38.1668739  71.3729477  14.1146507  39.0932312  70.8858948
  77.0988617  65.1948776  41.6428070  76.2822571  65.6268921  41.8932953
  77.5965729  65.8712997  41.1834869   2.4074740  26.6024876  16.4812832
   1.7367451  26.4686222  15.8116302   3.1643484  26.1098137  16.1640358
  66.1911316   9.3223944  12.0155220  65.3188858   9.5794783  11.7166500
  66.7877274   9.8967876  11.5355463  42.7658463  12.1145725  46.1557655
  42.6305618  12.9635983  46.5765839  43.6643028  11.8750687  46.3830147
  16.3381042  23.3039360  11.0687771  17.0590687  23.2526512  11.6963215
  16.7664680  23.3250027  10.2130365   8.4646101  56.5189819  16.8244591
   8.7605686  57.3572159  17.1794300   7.9699221  56.1175995  17.5388851
  21.6925640  15.5476217  85.6232834  20.8579578  15.5035706  86.0898895
  22.1956482  16.2117729  86.0944977  83.8440857  42.9413185  57.4194069
  83.3310547  42.1425323  57.5417252  83.8426666  43.3609848  58.2797012
  34.9340401  28.4704685   9.3274040  34.7181015  27.7056198   8.7939157
  34.4325485  29.1853008   8.9352951  82.6303482  46.4912682  65.9284058
  83.0639572  46.8627815  66.6966400  83.3462219  46.1604805  65.3858871
  66.2604828  39.4140854  21.9712906  65.3199005  39.4029007  21.7940636
  66.5693130  40.2285500  21.5744286  48.3364754  21.4115524  71.0171814
  47.4865608  21.4896603  71.4505157  48.5345688  22.2985401  70.7167740
  64.5199203  37.1433868  62.2439499  64.5551376  36.9189911  61.3140907
  64.2542114  36.3317795  62.6762962  49.5478783  50.5915985  87.7038193
  48.6682014  50.9193497  87.5167923  49.4048920  49.8254318  88.2594986
  27.4721375  59.5106468   4.6407628  27.7525215  60.3899155   4.8947420
  27.8789845  58.9335060   5.2869925  77.8790665  28.1139641  27.1490936
  77.5564117  28.7777958  27.7585602  77.8832474  27.3033237  27.6580906
  53.7990685  13.8523998  12.9047289  54.3195457  14.5661011  12.5359964
  52.9575920  13.9110756  12.4522820  67.1016464  45.2448311  33.3627472
  66.4962540  45.4791183  34.0661964  67.7734909  44.7147713  33.7915764
  48.5442543   7.6732631  33.9999390  48.2989960   6.9788861  33.3884506
  47.7986412   7.7416306  34.5962791  86.7352295  49.4511528  36.9121017
  87.0612411  49.1788940  37.7699051  86.0128021  48.8505554  36.7287750
  13.4726772  42.6408997   3.6329527  13.6744337  43.2791672   2.9487441
  12.5492468  42.4283943   3.4974911  18.3165417  36.7313805   9.5106249
  17.5424290  37.2705421   9.6727438  18.7460213  36.6663246  10.3635883
  76.2798157   5.5454035  13.7792559  76.8553314   5.4627314  13.0188742
  76.1597900   4.6472025  14.0875759  36.4844322  54.1369858  12.9855003
  36.6755028  54.7420311  13.7021914  36.1112900  54.6894836  12.2986641
  76.4583054  33.0668564  23.8619194  76.8745041  32.2230186  23.6859837
  76.8671875  33.3712997  24.6720791  72.9864655  19.6402531  86.2996216
  72.4098129  19.0366344  86.7679596  73.7418747  19.7469540  86.8777237
  74.8972778  27.7174759   8.0013952  75.1398621  26.7975044   8.1064653
  75.5239105  28.1940918   8.5458183  77.0710297  65.9013062  77.7858429
  77.6415939  66.1146011  77.0474701  77.5304794  65.2008820  78.2490311
  48.2143326  23.2567406  84.2252960  48.1859894  24.0850086  83.7463379
  48.0018120  22.5931606  83.5689926  19.3587914  69.1823349  43.2852745
  19.7322598  69.4025574  42.4318962  19.7247028  69.8348236  43.8824387
  69.7491837  61.3980637  65.9437485  69.9924393  61.1184273  66.8262787
  69.5268402  60.5862122  65.4880142  80.3945770  37.1880341  14.8552961
  79.9334946  36.6619873  15.5086765  80.1995850  36.7595787  14.0218487
  75.2334061  16.4882469  61.5486603  74.5217819  16.8141022  60.9976120
  75.8118820  17.2421741  61.6634827  50.4759102  48.2767639  83.6065063
  49.8888092  48.9785614  83.3253937  49.9154205  47.6797142  84.1020966
  15.6213455   2.0088871  75.7086487  16.1641769   2.0476272  74.9212112
  16.2487049   1.9902104  76.4313583  78.5585403  43.8247108  35.5914803
  78.1787415  42.9764671  35.3624191  79.3781281  43.8611832  35.0983505
  77.5872116   6.7599416  17.6055737  78.0513916   6.7381358  18.4424095
  77.3938217   5.8420634  17.4149647  76.2476196  14.1082983  27.2248344
  75.7764969  13.8965235  28.0307026  77.0988693  13.6824427  27.3260937
  11.5693579  23.3296413  73.5326004  11.5996943  22.3980865  73.7505798
  10.6444540  23.5051003  73.3594055  60.3111191  33.0405998  11.7106895
  61.0022278  32.9201012  12.3619032  60.4036369  33.9506760  11.4288492
  21.3122005  42.8578949  54.1213989  20.4711628  42.4741516  54.3696480
  21.2148552  43.0678177  53.1925888  47.8369675  25.8309822  82.8695831
  48.5302200  25.8553658  82.2100067  47.0261421  25.7826881  82.3631592
  33.7087097  36.3428040  20.8121471  33.1327934  36.4407845  21.5704041
  33.8170013  37.2328606  20.4770317  60.6444626  47.6978951  16.6073036
  60.2816467  47.3011742  17.3992691  59.8985443  48.1324654  16.1937923
  24.9663849  30.2883949   7.7801890  24.9810791  29.5334911   7.1918554
  24.7986221  31.0359821   7.2064300  61.1428375  69.6581116  52.1392059
  61.9598618  69.6891327  51.6414680  60.9604301  68.7241058  52.2421761
  36.6114044  35.2818489  22.4331608  36.5875397  34.3501625  22.6513863
  37.5435028  35.4981804  22.4081230  43.0458069   2.8046434  44.0240288
  42.3791733   2.5061657  44.6426888  43.2925758   3.6742377  44.3388977
  28.9188938  60.8563194  66.8204193  28.2261467  60.2951202  67.1688309
  28.6713238  61.7397957  67.0931931  25.8529911  12.3471184  11.4358873
  26.3216019  13.1391201  11.1725082  25.5864773  12.5158730  12.3396149
  39.6749878  49.3430862  18.3675842  40.2831726  49.3548241  17.6285267
  39.4605751  48.4178391  18.4866505  35.9498825   0.9035629  82.2889557
  36.8734322   0.6692408  82.1974106  35.5061302   0.3994227  81.6069336
  60.4977493  39.7692451  68.0794830  59.7188950  39.7179337  67.5254288
  60.6839142  40.7058907  68.1448364  45.4701958   5.6804781  83.5810165
  44.5717697   5.9901886  83.6956558  45.7017097   5.9417372  82.6897354
  27.0783520  32.9212685  85.7171021  26.2153416  32.5685692  85.9340134
  27.1337814  32.8496208  84.7641983  34.3372498  44.1837234  32.2695999
  35.0636597  43.8148804  31.7670898  34.1769333  43.5441780  32.9635086
   2.6307318   7.3301044  14.2751169   2.9288783   6.4278727  14.1597090
   3.2561512   7.7121181  14.8908672  73.5127869  55.3062210  72.6514740
  73.4068222  56.2528801  72.7454834  73.1892776  55.1152534  71.7710724
  82.8342743  62.8674698  81.5693741  83.4998093  63.2603607  81.0046310
  83.2917786  62.6904182  82.3913040  78.6151199  37.6091499  25.7430210
  78.6795959  37.2468834  26.6266689  79.2473145  37.1050148  25.2307625
  38.9086838  60.9081764  54.3449821  39.6407166  60.2938499  54.3993759
  38.3296928  60.5327072  53.6816406  25.3294067  58.0126839  45.9807243
  25.4532948  58.3364868  46.8729324  24.5511303  57.4579163  46.0331764
  13.3939037  34.5830040   6.1821384  14.0861692  33.9360619   6.0462337
  13.7772665  35.4093513   5.8881831   7.4326448  38.9419479  39.4048004
   7.6997175  38.0267868  39.3188591   7.4344902  39.2771950  38.5082321
  36.1533241   3.7905457  71.0209961  35.3535500   3.5774145  71.5017929
  36.7188568   4.2087159  71.6702576  25.4742012  16.2458458  14.0645247
  24.9688950  16.3567371  14.8698826  26.0730171  16.9925137  14.0527620
  26.3047657   4.1299033  10.8834610  26.7556477   4.8735967  11.2832823
  26.6656799   4.0786433   9.9983931  43.1829605  31.6316719  69.0301208
  42.7847290  32.3912468  68.6050415  43.5390129  31.9751091  69.8495789
  65.2918320  61.4543076  38.9120445  64.7795944  61.9727936  39.5325432
  64.6417007  61.0852661  38.3142357  83.9879608  13.1204185  64.4317627
  83.3863297  13.5247612  65.0568848  83.5665131  12.2946768  64.1935120
  67.4871063  59.1386452  59.7871056  67.3056488  58.2226868  59.9976463
  67.8910675  59.4911766  60.5800552  61.8962822  10.8893871  75.7226868
  61.4815178  11.1384230  74.8967438  62.1334610   9.9696827  75.6038513
  26.3806267  37.1616440   1.8179246  26.3288193  38.0660362   1.5086970
  27.2058964  36.8333778   1.4609853  45.3193130  63.5969238  68.6105881
  45.9737740  64.0058823  69.1768646  45.0728874  62.7942619  69.0701981
  32.2492752  67.7709732  22.9164467  31.5332680  67.6000290  22.3046093
  32.1177559  67.1376419  23.6220131  21.5710506  50.0010490  50.1763840
  21.1070843  50.7378654  50.5739632  21.1512871  49.2251358  50.5478554
  19.0828152  29.2047901  58.8277740  18.5328007  29.2615623  59.6091156
  18.7381248  29.8794041  58.2426987  59.6833038  58.5247955  33.7841873
  59.8607368  58.2687531  34.6892815  59.3294106  57.7342911  33.3766403
  87.1176453  11.4281063  69.6122131  86.8409500  10.6422052  69.1410141
  86.4843521  11.5156603  70.3246078  40.1939240  54.7541161  18.2445335
  39.7208977  53.9219666  18.2468090  40.7611122  54.7093124  19.0142879
  41.3124466   5.9854593  12.7493200  40.7502670   5.6137414  13.4290333
  42.0509796   6.3613248  13.2284107  48.7435150  57.9791794  78.2862167
  48.3892479  57.4288330  77.5877533  48.5574417  57.4947433  79.0905380
  37.0587234  45.8490372  26.4149818  36.9019737  45.2559242  25.6802177
  37.8663673  45.5266151  26.8149681  78.5298309  33.9128799  11.9840736
  79.1328049  34.3917427  12.5527067  77.7989120  33.6764107  12.5550976
  16.5649796  39.3818321  68.5754395  17.1181145  39.8077240  67.9205399
  16.2484226  40.0990906  69.1245880  69.1929855  25.5621548  21.5316849
  68.6803284  25.1477814  20.8376331  69.0156555  26.4977417  21.4344101
  75.9633942  62.8476067  55.7154427  75.9568481  61.9194984  55.4813423
  75.3237686  63.2477226  55.1263657  15.6831932  44.5457230  34.7595940
  15.9808674  45.1627464  34.0910873  14.7282476  44.6055450  34.7325325
  78.0487518  11.2277613  71.1937561  77.3222351  10.9149942  71.7328110
  77.6715546  11.9348764  70.6703568  19.6905041  64.7988968  47.7497368
  19.5844059  65.7239914  47.9714890  19.3333225  64.7221832  46.8649940
  84.2042389   1.1488686   8.8709621  83.5222397   1.1016375   8.2009773
  84.0862350   2.0096824   9.2725906  58.8726692  15.2519207  31.9248772
  58.5383568  16.1451225  32.0064697  59.6302605  15.2254133  32.5093307
  18.1197033  31.2537918  73.8862381  18.1352386  30.4872932  73.3131180
  17.7683182  31.9555302  73.3382263  75.2716599  43.0657845  83.9852829
  74.4339828  43.3907356  84.3153381  75.4617081  43.6194344  83.2279282
  72.4433594  50.8079300  83.2999420  72.8815689  50.1600761  82.7481384
  73.1568069  51.3196259  83.6812286  38.2097626  43.6231499   0.0077756
  37.7270508  44.4472923  -0.0555378  38.9920769  43.8420715   0.5140249
  56.5301704  24.7470818  81.2265472  57.4691734  24.6734962  81.0559845
  56.1369362  24.8526764  80.3602600  77.9619522  48.8855286  82.0353699
  77.7401810  48.4959602  82.8811111  78.6850891  49.4821243  82.2287140
  44.6885300  26.0496540  75.1679993  43.8905449  25.6691055  75.5349274
  44.4227066  26.3833103  74.3111191  14.0976734  67.1632843  54.1189919
  14.2751703  67.5513992  53.2621956  13.1580210  67.2906570  54.2496071
  59.9823647  56.4331131  73.8900681  60.9124374  56.6434860  73.9733429
  59.8393517  56.3487396  72.9473801  84.0852356  17.4497471  74.8509140
  84.2091980  17.4274788  75.7997971  83.2307129  17.8639412  74.7306595
  74.8079834  41.6947250   5.4414825  73.9816971  41.2375145   5.5978112
  74.9664459  42.1854935   6.2478738  74.7167664  43.0644226  45.5950546
  74.8278580  43.8088875  46.1863747  73.7746124  42.8954010  45.5971451
  78.7767181  12.8609562  67.9540253  79.0858231  13.6241922  67.4660187
  78.0594940  13.1953726  68.4925385  33.7177353  38.1788902  85.8790588
  34.5026169  37.7367554  86.2026443  33.7516632  38.0627174  84.9295349
   5.6326809  46.3672981  45.2089539   5.5100727  45.9073219  44.3785172
   5.3007069  47.2500114  45.0451088  67.3224640   6.5100470  63.4079475
  67.7555389   6.5930882  64.2575226  68.0351486   6.3432770  62.7911034
  49.6929321  65.9728851   3.2528393  50.5766907  65.6179810   3.1566782
  49.3116417  65.9066086   2.3773639  20.4339638  37.3284492  25.5381851
  20.0818844  37.3644524  24.6488152  20.7305393  36.4242897  25.6419582
  38.7132607  48.9318962  24.5593090  38.2750664  48.3831635  23.9088402
  38.0088387  49.2301598  25.1346893  79.0342407   7.2814670  24.9691544
  79.8591766   7.4287357  25.4317856  78.7228317   6.4379597  25.2974052
  76.6488113   6.6175780   6.3826385  77.0187988   6.7349634   7.2576032
  76.5491257   7.5070906   6.0434313  80.5278702  25.1801987  67.4271622
  81.3800735  25.6105824  67.3581772  80.7354813  24.2491722  67.5066605
  20.8815498  53.1736450  31.7348633  20.8257999  53.4447594  30.8185558
  20.9637394  53.9931793  32.2225456  56.8115921  43.1385384  37.5012398
  55.8781013  43.3458481  37.4582138  56.9544487  42.5261459  36.7795792
  13.2763062  23.2448940  82.7737045  13.9125681  22.6226616  83.1261673
  13.1694870  22.9856873  81.8584824  54.7157784  53.8395767  17.1348286
  54.9973793  53.7219086  18.0420704  55.4724045  54.2306366  16.6979980
  78.5702209   5.8696346  47.9761810  79.1560974   6.4748702  48.4307938
  79.0422058   5.0369005  47.9722557  40.0287247  -0.1425927  49.2302246
  40.4944344   0.4394475  49.8307076  40.5657082  -0.1486680  48.4378586
  48.2291451   5.0287580  75.9224014  47.5889702   4.7692966  75.2597656
  48.5242424   5.8956809  75.6438370  49.0388031  60.2255516  44.1704102
  48.4497147  59.4950943  44.3591881  49.9060440  59.8247528  44.1113701
  27.0485821  65.0539780  75.6750870  26.6121235  64.3080444  75.2636032
  27.7232552  65.3128357  75.0473633  65.3148727  55.5800056  73.8633728
  66.2393646  55.7933731  73.7368088  65.1835175  54.7762833  73.3603745
  76.8487549   1.3366872  45.9804039  77.6611023   0.8310605  45.9547005
  76.9015503   1.9136590  45.2184639  76.5727615  41.5382309  38.1217079
  76.0938339  40.9490318  38.7045517  77.4215851  41.6585274  38.5474586
  63.7244415  57.3141785   0.7614601  63.5965500  57.2276382  -0.1832020
  64.2283936  56.5383072   1.0069996  81.5571365  30.0392284  45.4679451
  81.8175049  30.0573578  46.3888741  80.9934845  30.8057575  45.3632660
  51.2231064  31.2427921   5.0143528  51.4689865  31.9574184   4.4269133
  50.6951599  31.6621475   5.6937966  16.2847137   3.4227128  88.6785431
  16.9397678   2.8306274  88.3089905  16.7618580   3.9260447  89.3382645
  69.4200974  25.8772106   1.8040514  69.2708740  26.4876308   2.5260997
  68.8061295  26.1554394   1.1244425  39.2781525   9.4612560  22.4136696
  38.5026321   9.2039843  21.9150600  39.0571594   9.2573385  23.3224106
  66.8280334  27.2652779  50.2678757  65.9294357  27.3988247  49.9663429
  67.3346634  27.1443405  49.4648018   8.9126892  39.7005539  34.0478973
   9.7359638  39.4331779  34.4565086   8.8223610  40.6261482  34.2744865
  71.4190674  35.4496117  52.1733742  71.4130173  35.7730293  53.0742607
  71.8062363  34.5763779  52.2349815  53.1603928  16.7040195  24.7173882
  52.8775024  16.8322392  25.6227970  53.0076904  17.5501213  24.2966442
   4.8650346   5.5344367  61.2612915   5.5201206   6.0299673  61.7527618
   4.0611172   5.6275911  61.7724380  80.0601807  32.2771454  45.2042542
  79.6545181  32.3477669  46.0683594  80.6461487  33.0322456  45.1523170
  85.2842026   5.4699793  46.7610435  85.0708618   5.0674911  45.9191895
  84.5340042   6.0320315  46.9547729  51.2775726  36.7580070  29.7957020
  51.5335274  36.9818649  28.9009361  52.0946999  36.7884979  30.2933006
  15.5515938  19.4053078   5.9741836  15.4836416  18.9663162   5.1263032
  14.6523590  19.6543350   6.1877093  72.0949249  63.1139908  56.6619148
  72.5334015  62.4360924  56.1476860  71.2587738  62.7212334  56.9125404
  52.4218216  19.1775761  17.2975960  53.0478401  19.9016094  17.2874680
  51.6446266  19.5268154  16.8614407  28.3487320  67.2174072  47.9342499
  27.5480766  67.2837906  48.4546089  28.3837357  66.2996368  47.6646118
  44.8257370  10.3032560  77.3473816  44.1707077   9.6686850  77.0567169
  45.6485367   9.9855547  76.9754944  40.1244888  42.1084747  62.9203110
  41.0224991  42.1855927  63.2425919  40.2110176  42.1118164  61.9670372
  44.5105820  13.6500654  16.9495850  44.8104515  13.2833996  16.1177998
  44.0300331  12.9352217  17.3670807  53.3484497  34.9017448  33.0430489
  53.6312180  35.1253967  32.1563377  53.5587730  35.6766472  33.5641251
  82.7988968  55.8357620  19.6147366  82.7420120  55.5204544  20.5167217
  83.6442032  55.5140228  19.3014069  78.2542801  21.6411610  52.9613419
  77.9036407  22.4659977  53.2973824  77.5741959  20.9956722  53.1538544
  29.1228619  19.9948826  16.7763824  29.1280785  20.7471619  17.3682270
  29.8529549  20.1554146  16.1785316  29.7323666  29.1610413  52.0275993
  28.9021168  28.8737679  51.6476135  30.0448036  28.4029198  52.5214272
  55.1708412  36.4057999  49.2078896  54.6903725  36.9459648  48.5805130
  55.2882614  35.5672760  48.7614288  50.8543472  38.4869957  37.0043221
  51.5159073  38.8588448  37.5876732  50.6573944  37.6294785  37.3812904
  52.2815819  69.9733582  19.6518059  52.4948845  70.0516205  20.5816498
  52.9229622  69.3501129  19.3105812  56.4688187  39.2979469  83.9886475
  56.1836510  39.1263580  83.0911713  56.0377045  38.6211433  84.5104828
  61.0985260  18.2111301  40.0052414  61.2846794  18.4071350  39.0870018
  60.2141953  18.5486221  40.1476746  36.3434448  34.5109558  77.1300278
  36.5340080  33.8046837  77.7473602  36.1163826  34.0623550  76.3155136
  56.6877594  20.9483109  38.2614212  56.3404465  20.0808964  38.4692612
  55.9598846  21.5454540  38.4341927  54.7825851  33.2790642   7.3733735
  54.0855637  33.0589638   7.9913950  55.2397728  34.0150871   7.7801652
  42.5268097  55.0500870  64.8852768  43.3502083  54.7617340  64.4914474
  42.7900162  55.5010757  65.6875000  77.6285782  29.4182644  57.6946220
  76.8678665  29.0443954  58.1393471  78.3350677  28.7949181  57.8635483
  71.1917267  28.9606953  52.2820702  70.7103348  28.1476669  52.4353065
  71.9605331  28.8942089  52.8484077  17.1873913  68.3005142  35.7075386
  16.3279305  67.9395142  35.9248848  17.0659657  69.2491150  35.7481308
  80.5082932  51.6059799  45.1616364  80.3690491  52.5464821  45.2725067
  80.6026535  51.2710648  46.0533562  19.9576283  17.5911026  78.9793167
  19.3892155  18.0399857  78.3535004  20.4497051  18.2943058  79.4031067
  13.2852335  56.0525894  62.3853264  14.1964655  56.2508965  62.6011047
  12.7777739  56.7091751  62.8624115  86.1479034  49.6398735  83.8995743
  86.4072266  49.2473984  84.7332001  86.9467392  49.6318855  83.3722916
  23.6266308  66.8230743  85.7765198  23.9043484  65.9290771  85.5768051
  24.3107224  67.3762741  85.3993988  34.2869835  19.2298870  77.7526855
  34.8869019  18.4930096  77.8681946  33.5273705  19.0069294  78.2907410
  56.4032402   9.6948166  48.9921494  56.1301537  10.1177826  48.1780510
  55.6776009   9.8487091  49.5971298  24.0771599  22.9172325  50.1130981
  24.2309322  22.5274277  49.2524948  23.6731949  22.2163525  50.6247749
  60.5814705   8.5326710   2.6708806  59.6637039   8.5414286   2.9426539
  60.5592308   8.2337093   1.7618377   0.2643659   9.5232058  61.5882683
   0.8912374   9.2369814  62.2526054   0.1346617  10.4546118  61.7668533
  31.3136902  49.0697403  24.5298100  30.9883194  49.4571991  23.7172565
  31.6760941  48.2246552  24.2638664  69.6079636  38.5216484  19.8480301
  69.0072174  38.1305275  20.4823513  69.1365585  38.4822998  19.0158882
  78.8381882  65.8378525  23.4024391  78.3924942  65.2547760  22.7879429
  78.5628815  66.7166443  23.1413441  84.9293213  26.9068356  38.4814835
  85.3079987  27.7105789  38.8376160  84.4584045  27.1906452  37.6979485
  17.2757111  13.5691099  65.1536026  17.4437828  12.8869171  64.5035248
  16.5190735  14.0450306  64.8112106  57.2333641  27.9379826  76.5417328
  56.3259773  28.2375622  76.4857635  57.7528877  28.6965218  76.2753830
   6.1731591  69.8583069  80.6098938   6.4107161  68.9382095  80.4949341
   6.9691339  70.3408661  80.3867493  25.3340282  25.3705063  50.8793564
  24.9062271  24.6765862  50.3776665  25.3630695  25.0351524  51.7754173
  11.9567766  16.2409363  27.1468945  12.4928274  16.5573463  26.4197311
  12.4057798  15.4516907  27.4497471  80.4975128  50.0469360  40.0747643
  80.8890152  50.8728561  39.7904816  79.6514053  50.2979774  40.4453354
  60.5784950  59.0767059  24.0979900  60.4850578  59.4898872  24.9563503
  59.8209000  58.4958572  24.0280285  21.8071995  61.7598038  69.6241226
  21.6824322  61.8446388  70.5693512  21.6118965  62.6304665  69.2776566
  54.6139984  12.7946539  73.3017273  54.5189323  13.0056925  74.2305222
  54.5287628  13.6368141  72.8548126  47.6293030  67.4644928  40.4233246
  47.8332863  66.5459671  40.2474480  48.2437859  67.9550705  39.8774529
  18.6163235   8.2162752  21.3680477  17.9200172   8.1032124  22.0150452
  19.2812653   8.7356510  21.8200817  72.0403137   8.4070902  29.6812229
  72.9153214   8.0762272  29.4784412  71.7076492   8.7328300  28.8448830
  49.1556168  52.9981651  14.4916019  49.3371353  53.4350815  15.3236980
  50.0150604  52.7210960  14.1740780  48.2047768  19.0555172  20.2833328
  47.8974419  18.6607285  19.4672928  48.2840691  18.3196983  20.8903904
  62.7688332   3.7502453  77.2181854  63.1028328   4.2446299  76.4696808
  63.3356819   4.0055218  77.9460220  68.0466385   6.4452362  19.8370934
  68.1466980   7.2000442  20.4171677  67.5176392   5.8255482  20.3394699
  43.2483025   5.0476189  51.2291451  43.6008911   5.8649383  50.8771477
  42.4566650   5.3107648  51.6985016  63.1484604  45.2372932  59.6324577
  62.7184448  44.3857841  59.7115250  62.4798584  45.8688126  59.8977699
  11.7806950  31.3241653  83.5664749  11.5726452  30.3914375  83.5120163
  12.0674715  31.5575428  82.6835632  18.7066612  66.1635742  63.1482773
  18.5512295  66.1248093  64.0919800  18.9128456  65.2617950  62.9022636
   5.2828512  26.6780396  77.6505661   5.3610997  26.0973969  76.8936234
   5.8943877  26.3179379  78.2928925  11.9555569  48.7937126  83.3794403
  12.4902859  49.3501205  83.9457474  11.0692167  48.8750572  83.7315903
  47.0255966  38.8418503  84.6476212  47.7238617  39.4863930  84.5326233
  47.1076469  38.2621498  83.8903656  24.7019291  57.4169044  58.0653381
  24.7486210  58.3404922  58.3124008  24.4771328  56.9628029  58.8774261
   1.3486758   5.3019133  84.4332428   1.3836750   6.1096535  83.9208374
   2.2643161   5.0408854  84.5317307  36.1349640  32.0982094  70.6856537
  35.5011826  32.2899170  71.3768845  36.1924133  31.1428375  70.6716232
  39.9430237  30.1765385   6.7815328  39.3233109  29.4492817   6.8388572
  40.7865334  29.7592220   6.6066985  54.3869286  36.4038773  80.5980988
  53.5681534  35.9090805  80.5662003  54.1678619  37.2542801  80.2172318
  73.7298431  20.6954556  29.9224148  73.0605316  21.1913109  30.3939953
  73.4770660  20.7672672  29.0019913   1.1524286  49.2238541  62.1867180
   1.9157320  49.3185883  61.6169586   1.5190731  49.0108643  63.0448761
  61.5238457  43.3118706  39.9503174  62.3479996  43.3263779  39.4637070
  60.8523026  43.1841278  39.2802811  15.1114950  41.3460426  18.1570492
  15.5963736  42.1471901  18.3552628  15.0627813  40.8825073  18.9931068
  15.3482361  24.4735184  21.0885925  15.4132051  25.4201412  20.9624310
  16.0823078  24.2575970  21.6636982  21.4666538  21.0861511  58.0131989
  21.2472076  20.1554985  57.9689026  20.8493195  21.4477959  58.6490784
  68.8129349  54.4859772  18.9722786  69.2626877  53.9632454  19.6361370
  68.3884735  55.1871758  19.4666290  85.0941620   1.6045755  69.3695297
  84.3265991   1.2872990  69.8453674  85.7368774   0.9004114  69.4549561
  75.5872726  45.5027962   1.6320024  76.2839279  45.9399300   2.1217077
  76.0478668  44.9755936   0.9792066  69.6527939  21.2345123  36.0277557
  70.0454865  20.3798599  35.8500137  69.6583939  21.6813774  35.1812859
  58.7772522   0.4840343  70.9770889  57.8818283   0.2014174  70.7911453
  59.0560226   0.9359864  70.1806870  62.6213799  50.8807297  39.1346893
  63.1036835  50.6259079  39.9212494  61.7041016  50.8883629  39.4081459
   0.7111707   6.5859213  23.6358261   1.4961780   6.0480971  23.5321865
   1.0430872   7.4490185  23.8830624  37.8780365  26.0740852  25.7853050
  37.4038124  26.7506542  26.2686253  38.7893143  26.3668404  25.7952766
  53.0995827   0.7953007  10.6349154  53.8696136   0.4596469  11.0938501
  53.3644180   1.6610720  10.3242149  63.4351463  58.5400734   3.0723317
  63.7193298  58.1886978   2.2285259  64.2467499  58.6724091   3.5622568
  67.1732635  23.5477066  64.8593750  66.4179459  23.3728447  65.4207535
  67.2919312  24.4963703  64.9061356  61.8440170   3.7914300  67.2467804
  61.8930244   3.6081257  68.1849823  62.5433960   3.2627504  66.8625946
  50.0518646  46.7252159  80.1773987  49.2493782  47.2140198  80.3599319
  50.6704941  47.0226860  80.8445129  85.0025024  49.2703781  80.9756775
  85.0632172  49.6149445  81.8666458  85.1845551  50.0241165  80.4144592
  79.0727768  45.9082146  27.3721752  78.8838959  46.6881981  26.8504696
  79.3106689  46.2487106  28.2345562  21.3425293  24.8815651  22.1943474
  20.5417461  25.0348911  22.6958141  21.9111805  25.6176872  22.4201584
  29.6588383  68.3880768  18.1286335  30.1355610  68.8173676  18.8390408
  29.9032478  67.4653244  18.1995106   3.3868091  37.0863953  62.7097511
   4.0811734  36.8514366  63.3252869   3.3720274  36.3664284  62.0791473
  75.6782455  54.5428696  70.2577515  74.8148575  54.9555969  70.2366486
  75.6276550  53.9185791  70.9815826   3.5722973  24.5711708  81.5372467
   2.9335685  24.0791264  81.0213470   3.3556225  25.4891815  81.3743362
  46.4518661  60.6438370  64.8206863  45.5438614  60.5115585  65.0932007
  46.6765289  59.8465538  64.3409958  14.6639881  34.2116013   2.2995305
  14.4144020  34.9523087   1.7469984  15.4895573  34.4807243   2.7023199
   6.0468855  19.1400185  16.9906616   6.6185684  19.4818764  17.6780796
   5.9830351  18.2031384  17.1761684  21.4999199  42.2374382   9.1761351
  22.3070469  42.3332329   9.6817055  20.8523598  41.9363785   9.8135214
  38.2012215  69.6830292   6.8736019  37.2961922  69.9829559   6.7887807
  38.7047348  70.2820969   6.3224039  46.1191635  33.2913513   0.7311893
  46.5446739  33.4648476   1.5708758  46.1919632  34.1161041   0.2508581
  77.9494019  71.2537613  87.5374527  77.2239609  71.7384949  87.9311447
  77.7334671  71.2143402  86.6057587   6.6395817   9.3987923   0.3376160
   6.1663055   9.6100540  -0.4671265   6.6204977   8.4428482   0.3827714
  21.0303993  32.4422073  23.8813152  21.1297989  32.1963539  24.8010483
  20.0979710  32.3227959  23.7008991  40.2617493  49.7356033  10.5401945
  39.4898224  49.3214188  10.9259548  40.9958344  49.1982880  10.8379259
   2.4399340  18.1912861   0.0384890   2.3788760  19.0711555   0.4104178
   1.7150729  17.7111778   0.4388700  43.0444183  44.8384552  76.5112762
  43.9331741  45.1914062  76.4692001  42.4851913  45.6089249  76.6106415
  26.5662098  45.7198067  89.3940735  27.0296555  46.5129280  89.6631622
  26.8084526  45.6007729  88.4757156  50.0124016  14.6480083  58.6349831
  50.0581322  15.1308250  57.8097382  50.1116295  15.3186932  59.3106842
  72.6071396  19.0719013  71.3378906  73.2524414  19.1086941  72.0439148
  72.6289062  18.1622734  71.0406799  38.0812683  50.0095139  37.9816589
  38.2382393  49.7034569  37.0883942  37.8007965  49.2274437  38.4569855
  63.5860214  41.0480080  69.1739502  63.7698479  41.3473206  70.0643692
  62.7661972  41.4829369  68.9395218  66.9336624  19.0529747  46.6992645
  66.6845016  18.9962463  45.7768059  66.1054993  18.9913578  47.1752777
  81.0844955  56.9246025  43.2978020  80.5123520  56.3771629  43.8355675
  80.5303345  57.2083397  42.5707321  54.0180626  62.6119461  28.1809959
  53.0695648  62.5269127  28.0842915  54.1428986  62.8803940  29.0912628
  10.6869488  61.8876076  67.8455582  10.0077944  61.2829933  67.5465164
  10.3564644  62.2265472  68.6775055  19.3530407  43.5314598  29.2155476
  20.2199764  43.7839661  29.5331860  18.9402943  43.0997047  29.9635201
  69.0312042  62.8202324  86.3899155  69.5752716  62.8328743  87.1773529
  69.4203033  63.4829674  85.8192825  79.5389328  24.1610832  72.8271255
  78.7061462  24.6075459  72.9799957  79.9457169  24.1101933  73.6920929
   8.2159157  70.6593628  62.2344666   8.5445862  70.0318527  61.5906944
   8.4053316  71.5161896  61.8521042   2.7859840   6.3186812  73.3054276
   2.0402718   6.1654625  72.7251968   3.4684069   5.7325974  72.9782562
  50.5490608  51.6612892  84.5483017  50.3109970  51.0015793  85.1997147
  51.3720932  51.3444138  84.1762238  30.4066563  39.9440727  85.3441162
  30.3685188  39.1893463  85.9316177  30.1806889  40.6908836  85.8985901
  65.7640991  15.2741938  43.5088692  66.3316269  14.5149021  43.6416092
  65.6588974  15.6502819  44.3827782   4.8404694  41.0383911  -0.0770131
   5.0568333  40.9395943   0.8501640   4.9633827  41.9711037  -0.2535753
  22.8936043   2.3208213  84.8747482  23.1102676   1.3940353  84.9765091
  23.7418919   2.7590930  84.8072357   5.6992350  20.1372833  76.8431702
   6.2987938  19.8236046  77.5202026   5.3473144  19.3401985  76.4468918
  46.6163139  42.4308853  24.4128590  47.1576080  42.6853485  23.6655426
  45.9264565  43.0936470  24.4456329  24.1032143  52.3445168  42.1816597
  24.1715336  52.2161102  41.2355728  23.2308083  52.0200920  42.4050179
  63.6581383   4.3516235  57.7229042  63.0964584   5.0744419  58.0026855
  64.2253571   4.1839132  58.4754791   8.7933817  65.0351639  27.2305031
   9.0626707  65.0697861  26.3126163   9.2888708  64.3032913  27.5980339
  69.2748108   7.4600472  65.5582047  69.5121002   8.3868551  65.5273285
  70.0230713   7.0081120  65.1682205  54.6098785  25.7370014   5.6745477
  53.6533432  25.7151337   5.7027793  54.8811073  24.9361420   6.1232009
  48.5056267  49.4669266  56.8061447  48.5419083  48.7320251  57.4183846
  48.5275841  49.0588608  55.9405632  24.1536961  26.7952232  85.8359604
  24.0411015  27.5948620  86.3498993  23.7651844  27.0003853  84.9855499
  56.9508438  11.1492720  58.0079231  56.8620262  12.0775948  58.2237015
  56.2521286  10.9825058  57.3752975  16.6155186  23.5748005  83.7760849
  16.9161568  24.4811478  83.8422852  17.2549438  23.1515942  83.2031479
  44.8291855  40.3019753  32.7764320  45.1505013  40.9468346  32.1462402
  45.6207085  39.9501801  33.1838188  70.3795013   8.0051317  31.7976456
  70.8394775   8.1032038  30.9639606  70.0919876   7.0921764  31.8066120
  28.2555923  32.6571388  78.0757523  28.5075665  32.5796013  78.9959335
  28.6905651  33.4548874  77.7747192  63.2182846   5.2032094  10.9364748
  63.0756683   4.6425204  10.1738987  63.3622246   6.0752659  10.5690098
  82.8010406  25.5971947  15.5157309  83.2424927  25.5610619  14.6671753
  81.9259720  25.9300423  15.3164892  12.9102144  69.9325562  49.6595230
  12.9396572  70.8352814  49.3425865  13.5995579  69.4841309  49.1696777
  79.9611206  31.3243523  42.4842377  80.2086563  31.8212185  43.2640343
  80.0435181  31.9506130  41.7650452  77.1819153  50.9862480  36.8868103
  76.4242935  51.3612862  36.4378204  76.8970871  50.1099625  37.1460876
  53.9084244  39.4895210  64.1940994  54.6910248  39.3072319  63.6739693
  53.7351723  38.6719246  64.6607437  62.3647270  16.8985138  82.2276535
  62.1234474  16.1066494  81.7470627  61.5577965  17.4121304  82.2635345
  82.1623993  40.8707619  46.5391312  81.7255859  40.0583153  46.7947693
  81.8465118  41.0437317  45.6522675  20.8069134  70.2533798  67.5557251
  21.0627251  69.6164932  68.2229309  19.8945084  70.4595871  67.7587662
  17.7594757  25.4414082  61.6030197  18.2439213  24.6312008  61.4445572
  16.9367962  25.1548901  61.9996758  40.9114075  40.0737381  67.6407471
  41.6140938  39.4443359  67.4785309  41.1830864  40.8623352  67.1711349
   0.1824825  10.0247278  23.5615673  -0.5138974   9.4997282  23.1670265
   0.3552334  10.7141266  22.9203815  59.0582695  67.3378830  26.9263077
  59.9505310  66.9913483  26.9306240  58.5010643  66.5637589  26.8457756
  21.2619629  50.1257858  44.7000465  20.5651073  49.4777374  44.8032837
  21.2086754  50.6627998  45.4906197  31.4075527  27.1434555  15.9686661
  31.7639427  27.4621906  15.1394339  31.5123138  26.1930141  15.9248400
  10.6030464  18.8188457  28.8931007  11.4554090  19.1404171  28.5993290
  10.7917900  17.9688129  29.2906590  41.2905960  22.4841709  43.2579994
  41.0760841  23.3075867  42.8195915  41.1377640  21.8122158  42.5936584
  56.0289192  58.6548576  41.8797302  55.2290573  59.1315956  42.1014900
  55.7280235  57.7753258  41.6514320   5.5227699  48.0391693  48.2798119
   6.0490685  48.0143738  49.0789528   5.5208139  47.1348190  47.9661560
  30.9610767   9.9466438   2.1991282  30.2213364  10.1320486   2.7776093
  30.5778275   9.4619865   1.4680612  53.2893791  16.7659283  85.9049149
  52.6352768  17.3374729  86.3070602  52.8116112  15.9621964  85.7000122
  53.6040039  66.1048126   4.0608459  53.2420044  66.5771484   4.8105702
  53.0993462  65.2923203   4.0232635  50.7366447  69.9722061   9.5079212
  51.2344437  70.4753189  10.1523600  49.9621773  70.5068436   9.3330164
  11.9221258  55.1208725  22.5578270  11.9902010  55.0644379  23.5109348
  12.2749557  55.9844055  22.3432178  48.9641418  37.0605011  64.2460709
  48.1203728  36.9353027  63.8117752  48.7439499  37.1645622  65.1717682
  52.3250923  45.3719597   1.8567140  52.2009964  45.9461670   2.6124358
  51.4384193  45.1934853   1.5433561  73.9785156  50.2349586  41.6597824
  73.2390213  50.8419724  41.6295815  74.4195023  50.4355812  42.4853210
  79.4452744  27.6444798  45.1414032  79.9447479  28.4339199  45.3500824
  80.0901947  27.0454750  44.7652283  49.1572151   3.7316580  22.9302292
  48.5882492   2.9738245  23.0651321  49.5485573   3.5870149  22.0687408
  17.5522690  23.5642109  86.6330719  18.4206085  23.7121983  86.2584839
  16.9891663  24.1993999  86.1907196  17.6013756   0.4836731  40.1138687
  17.0452366   0.2139884  39.3829689  18.4792290   0.5444474  39.7371597
  67.9179077  67.4213333  75.4343643  67.9492340  66.5415726  75.8102188
  68.8004990  67.5680084  75.0941467  75.9991608  17.5311699  45.3117485
  76.5751724  18.0299416  45.8911209  76.3980408  16.6621628  45.2675896
  61.7103195  36.1127930  72.3263321  62.1222038  36.2171440  71.4686127
  60.9188614  36.6490440  72.2788010   0.7127301  32.6226997  29.9814911
  -0.1923053  32.6210861  29.6698170   0.9818504  31.7050343  29.9403515
  24.8574276  19.6295776  78.1795654  25.0056057  20.5329494  78.4592056
  24.9769192  19.1100903  78.9746017  68.5206375  67.2977753  23.8429546
  67.9340515  66.6278152  23.4918060  68.8518753  67.7550659  23.0700397
  12.4507809  70.7006149  27.1309948  12.1747141  71.0002670  26.2648373
  13.1744394  70.0987778  26.9568233  14.3798494  12.3605375  76.4143982
  15.0286446  13.0630474  76.4565430  14.7189751  11.6857176  77.0024796
  63.2171516  51.8039436  30.3978252  63.3929520  51.4671211  29.5192604
  64.0762939  52.0620308  30.7317410  46.8765678  31.9667397  29.9932098
  46.5833359  32.5346565  29.2806683  46.1934280  32.0456963  30.6590271
  28.6791382  55.2908783   4.7427239  28.8653831  56.0577545   5.2844310
  28.2026234  55.6397629   3.9894333  58.8100739  25.7845078  66.1257248
  59.2767220  26.5280609  65.7441483  59.4609871  25.3508377  66.6775131
  71.9654770  53.5582008  65.9341660  71.5485992  53.9573555  65.1705399
  71.5505981  52.6990852  66.0118179  62.3624763  48.6604652   8.4600105
  62.1093521  47.7384949   8.5061874  62.7830009  48.7508469   7.6048946
  60.2951241  68.6982040  35.9364319  59.3818779  68.6245575  36.2135391
  60.2589188  68.6634445  34.9805489  84.6424332  14.0376616  34.7794113
  84.1623077  13.6654310  35.5191154  83.9757919  14.1766634  34.1067276
  80.4348450  23.5708504  75.4088669  80.4015808  22.7022038  75.8095856
  79.7541733  24.0693913  75.8609314  85.7401657  43.7327194  87.4793625
  85.6265640  44.2141991  86.6599121  84.9824753  43.1493073  87.5213852
  19.0869656  27.6792355  33.1340065  19.1644306  28.1387978  32.2979240
  19.9559441  27.7520180  33.5287323  72.7749252  26.1011810  58.9296570
  73.3067856  25.3182278  59.0722542  72.9617081  26.3563347  58.0261955
  83.8777618  34.9315453  20.3923721  84.6579971  35.3180199  19.9947586
  83.1643219  35.1694412  19.8002148   1.5868795  12.8730326  73.8890457
   0.6995792  12.8617105  73.5301590   2.0692859  12.2418404  73.3550873
  85.5635147  36.3484306  44.9916306  86.3520279  35.8162308  44.8856239
  85.8823318  37.2509727  44.9946213  74.4835968  11.6037111  38.1165581
  74.6852264  12.5347872  38.0234261  73.8144684  11.5707684  38.8002357
  25.1552277  54.8721237  86.0249481  25.3799820  55.7281151  85.6602631
  24.2072830  54.8045006  85.9106674  49.1613350  62.2868614  39.2280159
  49.2154388  61.5517426  39.8386726  49.9543800  62.2157669  38.6967354
  50.2507286  42.8867912  23.1269569  50.9551201  42.8671837  22.4791298
  50.3195801  42.0470200  23.5811272  80.5043106  32.3727455  85.1377487
  80.7215805  32.7052803  86.0086365  79.6024323  32.0622711  85.2180481
  46.8985329  56.8135490  60.9042778  46.4547157  55.9993248  60.6670036
  47.2310028  56.6563644  61.7880135   7.7970281  22.3453960  66.8004456
   6.9090252  22.0716743  66.5707474   8.1104488  21.6655865  67.3969803
  46.3592186  48.3609200  33.1501389  46.8134880  47.5435600  32.9456902
  46.0771866  48.6974144  32.2995758  26.7185631  40.8157387  64.7962341
  27.0069695  41.1884117  65.6294022  25.9846478  40.2472076  65.0294189
  84.6903458  42.8478127  62.5860291  85.3219070  42.2096252  62.9178047
  85.1380692  43.2685394  61.8520241  28.1725407  15.4481354  10.8677645
  28.8049278  15.3950577  11.5843534  28.3940659  14.7117329  10.2977905
  70.3959274  67.7388611  81.9659882  70.8799286  67.7823257  82.7906570
  69.6325684  67.1965790  82.1645813  32.4358902  62.7592010  73.4090958
  32.1938629  63.4386101  74.0384216  31.6086330  62.3308830  73.1890488
  18.4813938  17.1153698  60.2496147  19.3083878  16.7989769  60.6132202
  17.8096390  16.7329102  60.8141518  32.2169914  60.2972374  62.9020462
  31.8952713  59.9895248  63.7494202  33.0057068  59.7788162  62.7426834
  26.6713390  39.2888832  89.2678680  26.8450432  40.2262306  89.3541260
  26.7746677  39.1111794  88.3330002  82.6506042  44.8528633  18.3031178
  82.4759216  44.6580887  19.2238674  82.8869476  45.7803917  18.2951717
  56.8135109   9.5875540   6.8890009  57.1915359   9.9790258   7.6764517
  56.7562904  10.3115072   6.2654228  46.4809761  20.8840942  21.2331142
  46.4519081  20.8274670  22.1881962  47.1095276  20.2109509  20.9722919
  73.7823944  36.3369865  50.3186646  74.3108063  37.1066399  50.5299683
  72.9698334  36.4624138  50.8088150  56.1884575  70.3414612  35.4957809
  56.4843292  70.1720428  36.3902016  55.8413773  69.5015717  35.1951866
   7.0194974  57.9789467  25.9311504   7.8199396  57.5258904  25.6660748
   7.2268910  58.3494759  26.7890129   1.4665265  20.9765091  64.4731598
   1.6482017  20.3124943  65.1382217   1.1637031  21.7365551  64.9700089
  44.4719429  57.0081520  15.7873888  43.8741455  57.6730080  16.1292038
  44.9594269  57.4568214  15.0965300  49.8681946  62.7478981  51.2926750
  50.1574364  63.2788773  50.5506325  49.0788727  63.1876450  51.6086311
  85.9916229  13.0417671   1.8034360  85.9066849  13.1753817   2.7474511
  86.4912186  12.2295141   1.7204955  44.3457413  45.6145706  62.9141464
  43.6456718  46.2428932  62.7371101  45.1424942  46.0534744  62.6161842
  31.9456997  15.7277660  87.7879105  31.8128357  15.4292803  88.6876221
  32.6544342  15.1771660  87.4550858  76.8091888  42.0391541   7.9461231
  76.6709747  41.9234505   8.8861990  77.3508377  42.8254700   7.8786631
  83.6626282  47.0517578  75.3463898  83.3118439  46.3366623  75.8772583
  83.9157181  47.7205734  75.9826736  55.5500679   6.4848456  43.6914368
  54.9381676   6.2900724  44.4012756  55.8203583   7.3893590  43.8496475
  71.1886749  62.1446953  43.9197807  70.9572144  61.6105614  43.1599426
  70.4740372  62.7770805  43.9946594  65.8862610  28.7204266  64.0246048
  66.3269653  28.2993069  63.2865906  65.1054688  29.1198349  63.6411018
  21.2235451  49.9854584  47.4692116  20.2677078  49.9524040  47.4302826
  21.4194298  50.1765938  48.3864517  75.1849442  37.6615028  75.9772263
  75.6019974  36.8259659  75.7670441  74.2598495  37.5256691  75.7723618
  22.8860703  53.7700272  81.8861694  22.3386555  54.3966675  82.3593445
  22.3364925  53.4711113  81.1617126  66.7795105  27.8062592  61.3102989
  66.5037537  28.4412346  60.6492424  67.7350616  27.8019028  61.2543144
  29.8192482   0.6283336  31.0474911  29.0887775   0.9632134  31.5675888
  29.7196026   1.0511117  30.1945190  34.8441467  48.3202400  88.8488464
  34.2064896  48.8779259  89.2945099  34.7382965  48.5296936  87.9208603
  65.6252823  18.5834923  73.4281082  65.2660599  17.6963272  73.4394531
  66.3101196  18.5560722  72.7599258  86.3179016  19.4005833  68.2605667
  86.2304459  18.6454582  67.6788712  85.6834641  19.2396393  68.9590073
  10.5930557  52.2444572  52.8536720  11.4695339  51.8623276  52.8090248
  10.1689148  51.7867699  53.5795212  49.4140167  40.1764946  83.9611053
  50.0552788  39.5276871  84.2510376  49.7315750  41.0046043  84.3211288
  62.2464828  18.1884823  37.2415314  61.6223869  17.4689674  37.1464996
  62.9445457  17.9837933  36.6194038  48.4535141  63.3339767  60.4647675
  48.4757042  63.8250656  61.2860909  49.2964592  63.5204468  60.0513611
  41.2261848  14.5377636  14.1788464  41.1364403  15.3982067  14.5885000
  41.9581451  14.6374655  13.5701370  11.8796482  37.3904533  68.7423782
  12.3958273  37.6374817  67.9750671  12.3775740  36.6804161  69.1475372
  58.5559921  20.3759632  40.7536469  58.8487740  20.8441868  39.9718056
  57.9029999  20.9538689  41.1484413  86.1951828  31.9378052  84.7887955
  85.6896362  32.6840363  85.1109695  87.0157166  32.3205528  84.4782181
  15.8039465  15.4653578  22.5071297  16.0383282  16.3797379  22.6658916
  15.8355780  15.3718328  21.5550346  56.5670624  51.0664711  87.1355591
  55.6954269  51.4493370  87.0360718  56.4565315  50.3895226  87.8032074
  51.1564140  20.3267479  33.2714386  51.2180290  21.2375488  33.5593224
  50.3341827  20.2849979  32.7831459  46.0516891  34.7357941  19.5676975
  45.9986649  33.7919998  19.4171314  46.3251686  34.8175850  20.4813461
  55.9965134  14.5573521  82.5807037  56.0989990  13.7284441  82.1131134
  55.7197151  14.3031149  83.4610291  60.0665054  24.7271309  54.1070099
  59.5421448  24.9714241  53.3443832  60.9467278  24.5876732  53.7577400
  77.1170654  57.9189644  73.3637543  76.3678284  58.5136795  73.3983002
  77.3685684  57.9039574  72.4403076  65.7144852  58.7725601   4.9352865
  66.2756729  59.2750473   4.3446898  65.6092834  59.3353767   5.7023597
  42.8223991  11.6489267  85.3122559  43.1353455  10.9171047  85.8439789
  43.4173851  12.3688717  85.5217819  18.2801991  16.0162373  84.6140823
  18.8869591  16.1780357  83.8916626  17.7203331  16.7923450  84.6350250
  80.4822769   7.3613825  17.1117153  80.8315506   7.3193326  16.2215061
  79.5323105   7.3324699  16.9978962  24.7075405  69.3061676  59.9068451
  24.1682110  68.6844864  60.3955879  25.0803223  69.8786392  60.5773239
  17.6595192  37.3046227  84.7186508  17.5814590  38.1645203  84.3054657
  16.7609863  36.9776306  84.7627487  80.6034393  28.8586540  84.6912079
  80.9536057  28.2840881  84.0104065  80.6338272  29.7339153  84.3049088
  66.0249176  42.4499626  62.8073311  66.0660400  41.7358322  63.4433784
  65.0905457  42.5604362  62.6313362  85.3025742  25.3100128  59.2358322
  85.5846710  25.6785603  58.3986778  85.7960892  25.8015499  59.8923874
  71.9120255  64.9237061  30.4309368  72.7221069  64.9204254  29.9210415
  71.9740448  65.7094650  30.9740448  61.6742897  37.6717072  35.3563538
  61.3980103  37.2623253  36.1763000  62.5883179  37.4070930  35.2526169
  75.2281647  39.7943993   2.8687201  74.5167236  39.5431328   2.2796943
  74.7911453  40.2331123   3.5986342  10.6672096  56.5368462  70.1994781
   9.7886887  56.7876778  69.9139709  10.7457323  56.9013367  71.0810776
  59.4201241  60.6772575  29.3864822  59.4850883  60.5587196  30.3340893
  60.1705360  60.1993599  29.0333157  66.4071960  34.7495613  20.7662487
  65.7800751  35.2635994  21.2748966  66.7231369  34.0841560  21.3775120
  33.8339958  47.6217766  27.9799519  33.2140846  48.3027344  27.7187271
  33.2895050  46.8511429  28.1408424  14.8644238  37.5358963  80.1107101
  15.0007420  36.5889359  80.0804062  15.7091970  37.8907433  80.3876114
  41.3005867  38.0737953  76.1856689  41.7330360  38.9049377  75.9896469
  40.5503044  38.3163261  76.7283401  67.6699600  40.3712196  23.9837017
  68.6219482  40.2799492  23.9433861  67.3480377  39.8503036  23.2480049
  72.1110535  33.9654541  71.2726364  71.5285568  33.7645187  72.0051422
  72.0165176  34.9091606  71.1433487  49.9083977  24.1299553  71.5736084
  50.8650436  24.1475639  71.5463028  49.6452866  23.9930305  70.6635208
  45.9642715   2.2050905  41.1788330  46.0698433   3.1561153  41.1535683
  45.0195618   2.0670724  41.1102295  64.7960434   2.9508753  17.3141842
  65.1335907   3.8263927  17.5032883  64.8347244   2.4927645  18.1537495
  37.2931366  64.3752365  77.8588333  37.1835175  64.4099655  76.9085617
  38.1937904  64.0768051  77.9852905  63.8837013  44.4039307  27.3421860
  64.6638031  44.4738617  27.8924465  63.8948555  45.1986275  26.8087387
  27.9481754  25.6502609   7.0698171  28.2195244  26.3920364   6.5291033
  27.5599117  26.0503864   7.8478794  36.6447563  42.5277023  21.3849945
  35.7881470  42.5672226  20.9596863  37.0925140  43.3228683  21.0961037
  53.9629402  32.0980453  25.6769524  54.4291420  31.4150600  26.1590500
  54.4453735  32.1825180  24.8545456   1.2519280  43.1562538  46.8795471
   1.8114015  43.7129669  47.4211121   1.7763380  42.3712578  46.7214203
  79.3323135  38.4073715  30.9464149  80.0378418  37.7666779  30.8571796
  79.7817078  39.2394600  31.0944233  62.5851212  12.3767834  17.2374706
  63.0831871  12.1662550  18.0273075  62.0932274  11.5786047  17.0446396
  86.2094650  69.6334610   1.3210732  86.5224762  70.5372849   1.2843140
  87.0006256  69.1021652   1.2314802  44.6102524  19.5210094  67.8565674
  44.4226303  18.9572010  67.1061325  45.1474609  18.9793549  68.4347153
   2.3595185  45.8464699  67.6639557   3.2321358  45.5798645  67.3746567
   1.7680972  45.2150040  67.2544327  58.6707306   1.5731080  27.7766304
  58.3614426   1.1377375  26.9822598  58.0576782   2.2964878  27.9074688
  16.2908287  58.3147812  53.9824104  16.0895176  58.3468628  53.0471725
  17.2435799  58.2304268  54.0195732  74.8321152  47.3364830  23.4688835
  74.9891968  46.5344887  22.9705238  75.7033768  47.6223450  23.7435017
  19.6776638  43.3307648  72.0923996  18.8447647  43.2141647  71.6353302
  20.2960720  42.7853889  71.6062241  47.7900352  10.4462376  84.5872879
  47.2378578   9.7119837  84.3185883  47.3582497  10.7983522  85.3656311
   5.0959158  12.2608833  85.0174942   5.8159857  11.9456491  85.5637131
   5.3986340  13.1065931  84.6867828  63.0202408  46.5847206  13.0863609
  63.9761887  46.6193504  13.0517368  62.7382622  47.4490967  12.7870731
  79.2825165  34.4419022  35.8728867  79.9584045  35.0449944  35.5635681
  78.5582657  34.5580025  35.2578926   9.0651264   9.8017092  69.8695755
   9.7395468   9.8389654  70.5478134   8.8981724   8.8669376  69.7489166
  47.8949089  62.3739357   9.8923006  47.8145142  63.0427399   9.2122488
  47.2171974  61.7325706   9.6787806  82.9751434  52.5660286  85.3902588
  83.2594223  53.4012527  85.7614899  83.3808441  52.5386086  84.5237198
  82.2217941  57.9660759   4.9972787  83.1756210  57.9940720   5.0725260
  81.9224548  57.6674385   5.8560238   7.8755746  43.9469757  62.1432343
   8.5467567  43.5063477  61.6220894   8.2439947  43.9845200  63.0258942
  46.4756508  64.4360962  27.5981808  46.1787949  63.6732101  27.1020870
  46.2091675  64.2542725  28.4993801  46.3195953  57.9692574  51.3140259
  45.6267700  57.9000778  50.6571846  46.9632645  57.3104248  51.0535202
  37.3579636  26.9761143  75.0825653  38.2936745  27.1234608  74.9448471
  36.9754753  27.0306320  74.2068024  32.8086319  60.7196198   7.5815392
  32.7063065  61.5368881   7.0938544  33.4863358  60.9108505   8.2299080
  51.3246765  51.1466331  49.7721672  51.7188721  50.5230484  49.1622620
  51.8645058  51.0847893  50.5601959  15.8935232  31.0589790  26.6640511
  15.9795809  30.1256371  26.4698925  16.7912769  31.3568611  26.8108044
  52.0641479   0.7940845  85.9185028  51.4520416   1.5207639  85.8023300
  51.5413857   0.1033594  86.3257523  80.5896988  54.3219528  44.7240677
  80.1245651  54.9558830  45.2699776  81.4878311  54.6509476  44.6873016
  59.4457512  52.9323730  80.5183487  58.4943581  52.9307518  80.6236115
  59.7115517  53.8205719  80.7564240  56.8787613  12.5812168  30.2481098
  56.1876373  13.2104445  30.4546394  57.6904182  13.0824022  30.3272038
   1.7879307  54.9606628  82.3109436   0.9373503  54.9103088  82.7470703
   1.6949097  54.4019012  81.5393448  75.4071198  11.2636681  80.8638382
  76.2430267  11.2845316  81.3297272  74.7647705  11.5543404  81.5112457
  77.1996307  30.4029655  79.8541870  77.0782089  29.9652576  79.0116272
  77.4571152  31.2960072  79.6252441  71.2589493  66.4027252  24.7659645
  71.6912384  67.1503677  25.1787510  70.3784943  66.7179031  24.5617657
  49.0360527  51.4980774  70.2440796  48.8244286  52.2225990  70.8327332
  48.1957016  51.2484741  69.8597183   5.6567106  34.1579971  83.0030746
   5.0412440  33.9593124  83.7087326   5.3516788  33.6317635  82.2639771
  57.6010971  54.1373596  33.4876595  58.1775131  54.4958725  34.1625290
  56.7404213  54.5055122  33.6874924  68.2674484  57.1199150  13.4237003
  67.9943161  56.6389885  12.6424580  67.8747711  56.6376343  14.1513290
  64.5128708  43.2675934  35.0525208  64.5489349  43.8175774  34.2699280
  64.5743561  42.3724136  34.7192001  17.9967937  54.2456245  79.8111954
  17.3985538  54.8717384  79.4033737  17.6006451  53.3908119  79.6421051
  12.7593155  60.9848328  35.2519951  13.0594187  60.1260414  35.5497284
  12.9968328  61.5810089  35.9622002  56.6002731  25.2013245  78.4462967
  56.6644897  24.7319126  77.6145706  57.3672142  25.7739468  78.4579697
  76.8623352   0.3008341  37.4778175  76.4600525   1.1669930  37.4132538
  76.3773041  -0.2358486  36.8509636  75.7619247  55.0327034   0.0505290
  76.4840088  54.4567719  -0.2007412  76.0906448  55.5107422   0.8118790
  13.2323847  21.4832554  23.1398869  13.0991898  21.8549957  24.0118389
  13.3731794  20.5495186  23.2965469  38.2930984  70.5265808  46.3638916
  37.8358688  69.7591476  46.7077217  38.2187920  70.4436417  45.4131889
   4.8309956   0.3551460  84.9302216   4.4255199  -0.2422984  85.5586166
   4.3202710   0.2423096  84.1285629  56.5536919   2.4402668   8.4761028
  56.7545624   2.8205729   9.3312349  56.4884415   3.1930816   7.8885283
  30.8631363  69.6099854  79.8406143  31.5680561  69.6098633  79.1930618
  30.9973831  68.8050766  80.3409500  71.4279861   5.4205279  44.6041412
  72.1424713   5.7573986  44.0635338  71.8090057   5.3341708  45.4779816
  53.5409584  29.8486423  36.4095802  53.2724838  30.6966515  36.0559807
  53.6920853  29.3040161  35.6370659   6.5424175  52.5157738  28.4421577
   5.9741988  51.9508743  27.9184704   6.0916142  53.3600159  28.4583950
  83.7352905  31.7151051  55.5276031  84.0414963  31.4054604  54.6751976
  83.3557205  32.5752296  55.3477592  81.2966309   2.5185645  57.7416611
  80.3721542   2.3001091  57.6239853  81.3423309   2.9030731  58.6170464
  14.4614048   3.5538301  44.2775345  13.6314869   3.9572854  44.0231895
  14.8874683   3.3389113  43.4477692   5.5703869   6.3166728  39.5109100
   6.0691514   5.5006547  39.4711571   5.6068325   6.6633263  38.6194305
  14.5061436  40.6474419  76.5566406  15.3092957  40.1927605  76.3027802
  14.6591330  40.9161301  77.4625244  15.1344585  63.8451614  10.3696671
  14.9771624  63.8422852   9.4254837  14.3124609  64.1567001  10.7484722
  79.3880692  31.5719318  56.7192574  79.5617447  31.6476574  55.7809982
  79.0771255  30.6738892  56.8335686  85.1882706  64.4236679  68.4431381
  84.9037704  63.5107918  68.4873428  85.9253235  64.4745789  69.0517349
  76.9025726  15.6385517  66.8090820  76.1228027  16.1893826  66.8782196
  77.2339630  15.5790052  67.7051086  51.2279892  70.5780106  47.3460808
  51.9781609  70.0279236  47.1205215  51.2774620  71.3129196  46.7347717
   4.5052037  50.7211113  24.5849781   4.5341954  50.1758194  23.7988167
   5.4128504  50.7541275  24.8871689  59.4961166   5.0191088  40.0883751
  60.0707359   5.7086225  40.4209671  59.0806503   4.6556525  40.8703728
  73.3675308  44.2340317  32.1009560  72.8132858  44.6899796  32.7343178
  73.3459702  43.3184280  32.3792381  78.6018448  27.6561394  20.5869884
  78.6395874  28.5589867  20.2712708  78.9558411  27.1353245  19.8661098
  34.8435593   0.6344189  25.7186623  35.4116440   0.9857574  25.0330448
  33.9886589   0.5430871  25.2979012  62.4926872  34.6492081  83.9231415
  62.5531921  33.7190742  84.1409073  61.5609856  34.7971306  83.7610321
  71.7972794  13.7087622  26.1962242  72.4962158  13.6022787  25.5509491
  71.8037643  14.6430368  26.4043598  35.8850479  41.7176170  71.7716141
  36.1691055  42.6227531  71.8991547  36.6944389  41.2071228  71.7942734
  59.1563263  51.7008934  87.2374954  59.4686470  51.1876259  87.9826431
  58.2178917  51.5168304  87.1963806  56.8554726  54.1530304  25.0192833
  56.8549728  53.6511726  25.8343716  55.9346352  54.3669014  24.8691292
  26.4235821   5.9738550   7.6284184  26.0273438   5.1975303   7.2327590
  26.9422169   6.3632565   6.9244184  27.0564518  46.5182915  21.1440830
  26.6565971  47.1796341  21.7088623  26.3834705  46.3211060  20.4925900
  15.2291422  63.0972137  42.5504913  15.4608173  62.2360535  42.2026939
  14.5838289  62.9140587  43.2333221  43.5779800  26.9014664  29.9138832
  43.5040245  27.4574814  29.1382484  43.2022095  26.0633430  29.6444798
  71.5204697  71.5985260  58.0974770  71.1400299  71.4662018  57.2291489
  71.4152527  70.7543488  58.5362511  15.9358072  68.8117599  65.0330887
  16.7810135  68.6564407  65.4546738  15.9978285  69.7047043  64.6939163
  14.8796434  12.6655693   2.8781242  14.6953096  13.1241083   2.0583711
  15.5712376  12.0429192   2.6539924   0.5409832  69.8636932  87.1802673
   0.4507229  70.1232910  86.2633743  -0.1590033  70.3345566  87.6325302
  77.8787918  52.5718918  13.9843245  78.5665741  53.2101974  14.1734114
  78.2332764  52.0423393  13.2700787  13.9724302  63.3295631  61.8258820
  14.9147825  63.4814606  61.7542572  13.7044392  63.0675163  60.9451180
  23.0304909   9.2819939  14.8042650  23.0437031   9.4151850  13.8564692
  22.9634247   8.3332310  14.9118919  73.6686859  59.6479340  21.5362778
  74.3572235  59.1785126  21.0653362  73.9287186  59.5950775  22.4559612
  41.0731812  11.5386381  20.9825344  40.3666077  11.0846653  21.4417686
  41.8751297  11.1625032  21.3453522  30.9097042  33.4075394  76.7776871
  31.8256187  33.6484108  76.6387177  30.5170231  34.1816673  77.1811218
  85.3679276  60.4211884  86.3181763  85.7518005  60.8741417  85.5673676
  85.5625381  60.9876862  87.0647888  79.3280563  67.2472610  55.4585114
  79.1324692  68.1193008  55.1156960  78.5657043  66.7197189  55.2202950
  30.7379456  48.2559586  48.6141090  31.1048183  48.2039719  49.4966812
  30.8139343  49.1802597  48.3772011  47.1910362  64.7043533  70.0247116
  47.8740654  64.0619965  69.8321457  47.6369438  65.3837967  70.5304337
  11.8397198  61.5822868  86.5642853  11.9512711  62.2941284  85.9341507
  11.3538675  60.9115524  86.0843964  50.3346634  25.0654278  40.8231659
  50.5206566  25.9294472  41.1907387  50.5090828  25.1608696  39.8868446
   0.7365087  23.5959473  45.4410934   1.1266668  22.9526653  44.8493195
  -0.0855812  23.8432178  45.0177040   9.8169966  21.2797108  33.5505714
   9.0623131  21.7662926  33.8821144   9.4812346  20.3980637  33.3887215
  75.1622086  31.4444580   9.6401043  74.8372192  32.2140388   9.1728115
  75.2214203  30.7642269   8.9692755  42.1446495  29.6327477  87.5776367
  42.8522072  29.2432823  88.0913620  41.5090752  29.9272156  88.2299881
  73.7107086  66.5086899   4.3827662  74.2570419  67.2928085   4.3287272
  73.7975845  66.2183609   5.2907262  69.0898666  24.4039421  61.6916924
  69.2886810  23.4685116  61.6507912  69.9351578  24.8343010  61.5632019
  31.9329319  49.8030090  69.2898712  31.4280205  50.1008835  68.5331879
  32.3930016  50.5854111  69.5938644  72.7758484  59.5596771  64.8687515
  72.7488556  59.1971931  65.7542496  73.0665741  58.8309593  64.3204041
  36.9684486  52.2027321  26.2374992  37.0205345  52.1454353  27.1915607
  36.6438141  51.3449898  25.9634113  53.2789383  52.0613518  58.5078392
  52.7876740  51.3917580  58.0318794  54.1597023  51.6965103  58.5937080
  43.3926125  33.0260468  88.6462860  44.2191544  33.4161949  88.9306107
  43.6200714  32.5293274  87.8603058  32.9916077  52.9600945  74.2486191
  33.1770134  52.9385490  75.1874466  32.6656380  52.0826035  74.0486603
  78.0229111  41.6136780  64.7360001  77.8978195  42.3619308  65.3196945
  78.8976746  41.7401695  64.3685455  67.3519211   6.9366808   6.0866413
  66.8425217   6.6985831   5.3120093  66.7824554   7.5319214   6.5741210
  65.4994965  37.7109871  55.3535576  66.4419250  37.6365166  55.2034874
  65.1764832  36.8115845  55.2990608  84.2484665  38.5580444  57.1999168
  84.7466354  38.2137947  56.4585991  84.5674286  38.0620117  57.9538689
  64.3722839  36.0978165  47.4963875  64.8100586  36.0122719  48.3433037
  64.5771866  35.2831650  47.0374870  62.7744331  67.1748810   4.5998459
  62.8143425  67.9682388   4.0657821  61.8703766  67.1419296   4.9126205
  48.1318665  31.4350662  57.8302269  47.4392052  30.8727379  57.4834709
  48.0839043  31.3168564  58.7788887  15.4696674  14.5033970  19.6541367
  15.8530474  13.9903507  18.9427757  14.5781403  14.1655931  19.7395725
  59.9784508  12.1934290  82.7302704  60.7185402  11.6661139  83.0309906
  60.2682991  12.5581408  81.8940887  42.8451080  64.0352325  34.1375618
  42.3764114  63.6712456  34.8886108  43.7301674  63.6782875  34.2116470
  75.4997559  24.4960957  75.7324600  74.5755005  24.5309467  75.4859467
  75.9148483  25.1764603  75.2023315  18.4029560  38.1877632  27.4287224
  18.3225060  37.6345482  28.2057114  18.6766987  37.5878716  26.7348766
  72.1412888  39.8123474  70.6428299  71.2566299  39.6507263  70.9706879
  72.0747375  39.6775169  69.6975174  82.3987122  11.3957157  53.6021690
  83.1770020  11.8007784  53.9848213  82.1732178  11.9609585  52.8633308
  10.5182695  60.6187935  65.0091858  11.4683256  60.5954781  65.1235657
  10.1730299  60.1700287  65.7809753  81.3214874  48.9036865  65.3183594
  81.4701843  47.9630470  65.4148865  82.1063919  49.2260323  64.8753586
  53.5547829  46.3096046  26.1310616  52.9661026  47.0550957  26.0130482
  53.0873146  45.7278137  26.7304134  47.5256348  55.3315697  50.5698013
  48.1353607  54.7048569  50.1803169  46.7572365  54.8082237  50.7976303
  80.2397766  52.8746185   7.1070199  80.7535324  53.0263863   7.9002728
  79.6348190  52.1717873   7.3442783  85.1752243  30.4122696  82.7649536
  85.3715820  29.4914455  82.9374771  85.5384521  30.8796291  83.5172043
  28.9410572  70.5851288  63.2743263  29.8873138  70.7227020  63.3179970
  28.5722713  71.4675827  63.2355423  50.5585556  19.6114349  53.9533234
  49.6520805  19.3957691  54.1724548  51.0186119  18.7726269  53.9846573
  49.8837738  12.0447168  60.0320625  50.0026398  12.1298923  60.9780273
  50.0861664  12.9139214  59.6860123   1.8508183  35.4299469  66.5518570
   1.8314745  36.0389671  67.2900620   2.6248500  34.8888893  66.7079468
  46.9369278  61.5797539  76.1475449  47.0543442  61.8492126  75.2365875
  47.6286850  62.0386505  76.6241150   8.3912354  60.6137733   8.1936846
   8.3792171  61.3159828   8.8440609   7.4688148  60.4622345   7.9877515
   3.4275758  59.1260452  65.7545624   4.1548719  59.5533218  65.3021164
   3.6343315  59.2219810  66.6842270  49.1478386  25.6251621  77.8041229
  48.4394836  25.8626480  77.2057419  49.9334373  25.6250801  77.2572479
  77.2886505  59.6157799  65.2942200  77.5200424  58.9024200  64.6994095
  78.0894394  60.1348419  65.3686600  34.1865997  70.8836670  50.5720139
  34.5232811  70.1690140  51.1125221  33.2591553  70.6783218  50.4540558
  75.4541779  23.8427372  56.3596840  75.0268555  24.0471821  57.1914444
  76.2905045  23.4502640  56.6101875  31.7605362   1.0843779  27.0072746
  31.1336918   1.7737324  26.7879848  32.0592575   1.3041497  27.8897133
   4.1223469  52.2956467  16.4095230   3.6345055  51.6555672  15.8913155
   4.3371449  52.9923019  15.7892284  85.3906097  43.4716759  36.3092766
  84.5221252  43.6465759  36.6717415  85.3206863  42.5945396  35.9324760
  35.6566658  69.5100479  20.4013214  36.2890739  69.4344788  21.1158695
  34.9826126  68.8628082  20.6085949  74.8107376   6.0207748  57.8890038
  74.1126938   6.6672721  57.9939346  74.5798492   5.5464959  57.0902672
  59.9521446  14.5195475   5.5890994  60.2641449  15.1291475   6.2578845
  60.2824020  14.8781567   4.7653513  32.1169548  70.0936966  66.7922363
  31.4547310  69.5651398  67.2375641  31.6417274  70.8672104  66.4888153
   2.1793361  66.2769318  71.1976624   3.0213568  66.0124817  70.8271179
   2.1642818  67.2292709  71.1025009   9.6937666  64.3821564  56.6213417
  10.2951155  63.9632301  56.0056229   9.1980400  65.0028229  56.0872383
  24.8951168  47.4922791  53.1542549  24.3977280  47.6550713  53.9557114
  25.7511482  47.8875618  53.3191643  34.6781540  57.3098259  30.5545807
  34.3357201  56.4888458  30.2010822  33.9232216  57.8981514  30.5680828
  84.9395370  29.9595757  86.7337875  84.7556915  30.7531891  87.2363968
  85.5595779  30.2405090  86.0608444  68.1965714   3.6810186  77.5126114
  67.6281433   2.9763811  77.2017975  68.9585190   3.6468234  76.9342575
  80.1985474  22.6649971  70.5401459  79.4292145  22.6644382  69.9706116
  79.9667969  23.2576904  71.2551498   4.1774774  31.9703293  59.7374268
   4.5792270  31.4364185  60.4228210   4.6408000  32.8066902  59.7828636
  65.9167633  32.9506149  31.6375828  65.8386154  32.0073776  31.7805099
  65.0661926  33.2105331  31.2837524  55.7139893  45.4386520  39.3183136
  55.0790024  45.1607437  39.9784584  55.9161682  44.6408157  38.8296280
  76.3576813  35.1410637  85.0516815  76.5778503  36.0670280  84.9499512
  75.4759445  35.1440544  85.4241943  64.2784653  20.9713230  50.6088409
  64.0709076  21.7630444  50.1125298  63.4260483  20.6165237  50.8612862
  49.6854286  61.3199081   4.6166644  49.1254044  60.7996216   5.1927743
  50.5252991  60.8607407   4.6204672   8.4579010  53.2237015  36.1830215
   9.0593004  53.5508652  36.8519859   8.2889252  53.9806442  35.6220284
   6.9906769   8.1423168  57.7224236   6.5767193   8.4893217  56.9321976
   7.5425420   8.8580360  58.0377388  57.6565590  63.2565994  28.8785229
  58.1324730  63.3527832  29.7034378  57.2886658  62.3737106  28.9157925
  67.7700806  50.3866463  19.4500332  68.0277863  50.9223671  18.6998196
  67.4921951  49.5549431  19.0662594  56.8217468  58.6119881  31.8226738
  57.2155991  57.7405510  31.7813435  56.7069054  58.7787971  32.7582054
  86.1982880  41.0153046  10.5765381  86.0219345  41.8420868  10.1275835
  85.7272034  40.3588524  10.0633326  59.5481606   3.2658191  29.9461803
  58.9367828   3.1935756  30.6791382  59.4167709   2.4612823  29.4444942
   0.4153326  63.1984215  77.5923157  -0.0248419  63.1578484  78.4413376
   1.0961207  63.8614616  77.7069244  18.9993954  42.6825333  87.5359039
  19.3801804  42.9552307  88.3706894  18.4723778  41.9135017  87.7528839
  28.8663063  53.6559639  42.3864250  28.5063705  54.2682648  43.0281143
  29.8109627  53.8079338  42.4140167  53.0408401  35.0881386  63.5848808
  53.0355835  36.0222244  63.7938881  52.1155548  34.8528900  63.5160599
   9.2843809  41.6314774  38.4441299   8.3816690  41.7796021  38.7259140
   9.4511147  42.3214531  37.8019714  72.2389526  45.8017044   8.2034855
  72.0861588  45.2327652   8.9579353  73.0405121  46.2776184   8.4208364
  14.2041883  58.1253433  88.1899490  13.2962790  58.1323853  88.4930725
  14.6696358  58.6813545  88.8147964   7.1081462  66.7751236  23.1359673
   6.6188154  66.1592484  22.5905399   6.9293151  67.6321640  22.7490101
  55.3557396  63.9201965  68.5437088  54.8578606  64.7242050  68.3956528
  56.0907936  63.9778214  67.9332886  15.2797441   0.8045370   8.3076954
  14.6363325   1.3985381   8.6942387  15.2809010   0.0427079   8.8872185
  63.8770142   9.2446594  53.6360092  64.2264099   8.3774767  53.8413086
  63.7803841   9.2446499  52.6837006  39.8731956   2.0973191  36.5025978
  40.4375267   2.7532938  36.9118156  39.0603714   2.5657122  36.3124504
  27.6591263  52.9236259  66.7742844  26.7210598  52.7853928  66.6433029
  28.0775738  52.3547745  66.1281128  29.0053310  31.5985985  75.2114182
  29.2443485  32.1316452  75.9696808  28.8481903  30.7259674  75.5720520
  41.5974693  57.7389679  55.9667587  41.4770393  58.6775436  55.8225060
  42.5416489  57.6035423  55.8866577  27.9560146  69.2652206  82.7310715
  28.3780174  68.4062881  82.7116699  27.3756523  69.2641907  81.9698868
  50.5815544  31.3496819  33.5347099  49.9954758  31.1317348  34.2594452
  50.9486809  30.5086880  33.2623520  55.5865173  57.6395645  51.8882942
  54.6878624  57.4692001  51.6061058  56.1268158  57.3582611  51.1499329
  68.9982986  21.2365646  23.6504726  68.6442719  20.6447010  22.9867001
  69.5245514  21.8643932  23.1553726  42.0013046  18.3469677  75.0645142
  42.4529076  17.5681210  74.7394257  42.6827888  18.8507195  75.5095367
  59.5251389  29.3577080  40.8977737  59.3194466  29.7469826  41.7477074
  60.0594864  28.5918941  41.1080971   8.1129293  10.3547544  59.3967209
   8.6854315  10.8925295  58.8496666   8.7002258   9.9571238  60.0395317
  59.3057175  55.4232979  35.4687767  59.9241524  54.7704697  35.7967796
  59.7170181  56.2643051  35.6682014  69.6299591  30.4917469  60.5621185
  69.7858963  29.6685581  61.0250206  70.3207474  30.5291042  59.9005699
  64.8406296   8.7229643  51.0063095  65.7827530   8.5575390  51.0419083
  64.6017227   8.5522022  50.0952682  35.8915100   9.6311464   4.0401678
  35.8567467  10.5837393   4.1272850  35.1491165   9.4149847   3.4759369
  12.9625063   0.1852377  17.9020176  12.7288074  -0.6922995  17.5994530
  13.0415363   0.7019257  17.1001320  63.6111069  48.6180534  33.4294014
  63.6901093  47.9116554  32.7883186  62.7720566  48.4570503  33.8610306
   0.7772210   6.5454845  70.7707138   0.1495641   5.8793416  70.4904785
   0.2359704   7.2485089  71.1299286   7.4269423  57.4080009  14.5637684
   6.9235229  58.2066956  14.7215204   7.7841878  57.1767807  15.4211750
  32.4556808  33.6789589   9.6972208  32.2700233  34.6060982   9.5482969
  32.0240707  33.4786606  10.5277777  76.7510757  16.5644054   5.2709064
  76.3349609  16.5236549   4.4098506  77.6776657  16.7131042   5.0823374
  41.2825661  15.4585810   8.3964529  41.7412491  14.7423792   8.8356524
  41.6929550  15.5122395   7.5333586  52.5608215   9.9456463   7.0344419
  53.0820045  10.5828123   7.5229278  52.9424362   9.9466810   6.1566033
  80.0793610  53.6473351   1.8414199  79.3176956  53.4043388   2.3677773
  80.6247253  52.8607483   1.8318897  57.3251801  52.1460876  27.3209152
  58.0517540  52.1573906  27.9439697  56.8754005  51.3187447  27.4924698
  80.4723206  70.5177917  20.6992111  80.7968903  69.6353531  20.8785992
  80.9513855  71.0779495  21.3099136  13.6259527  12.1398268  43.8922005
  14.5225191  11.9614601  44.1760788  13.6611605  13.0249720  43.5295563
  11.3210926  25.9279480  25.8344746  12.2539520  25.7430992  25.9432678
  10.9212685  25.6317158  26.6521645  70.0431519  19.0497913  72.4271851
  70.8880692  19.4988022  72.4001389  70.1037521  18.3839035  71.7422409
  49.0091171  42.8377075  85.5085602  48.7578049  42.5021782  86.3690796
  49.5022659  43.6360550  85.6974487  11.1571627  55.1702003   3.1102445
  10.7739248  55.5325584   3.9090297  10.7266302  54.3222542   3.0013335
  11.1715298  44.9328499  40.3185692  10.4565859  44.9178772  39.6822815
  11.7289629  44.1955185  40.0698891  75.8542938   7.4215264  73.3110046
  75.8787766   7.0218601  72.4415741  74.9233627   7.4615335  73.5300903
  71.3369522  45.2082748  87.8286514  71.2465134  45.7845268  87.0697098
  70.9039383  44.3961296  87.5656738  38.0109634  40.3332176  13.3625755
  38.5104942  40.1012764  12.5796928  37.5340652  41.1257820  13.1163168
  19.6160240  31.9404087   0.7470116  20.1230278  31.3881454   0.1518767
  20.2326126  32.6150398   1.0314814  31.8413181  69.2608109  36.3862038
  31.1667995  69.4550705  35.7354202  31.6478863  69.8504639  37.1149864
  70.0773087  39.9673805  31.0596237  70.7582550  39.4343109  31.4699707
  70.1476593  40.8191338  31.4906654  35.5145493   6.0457110  11.4651499
  35.8434601   6.2239923  10.5840912  34.5909462   6.2947540  11.4309578
  70.1664352  47.6526451  36.1912537  69.3197327  48.0886612  36.2872086
  70.3253250  47.2477379  37.0439186  53.1873360  62.1957932  39.5194855
  53.0698853  63.0448914  39.9454842  52.4751282  62.1472015  38.8818092
  35.4014206   8.8704948  12.2147522  36.1047554   9.3894529  12.6049252
  35.8154831   8.4218044  11.4775553  15.8296261  65.9012451  18.1696033
  16.2310734  66.7085800  18.4909763  15.6975746  66.0553055  17.2341576
  58.5581093  69.9996262  27.9812260  58.5312958  69.1014404  27.6514034
  58.8985329  70.5135956  27.2489872   0.3230643  52.1451035   7.9964466
   0.2668689  52.7843857   7.2862387   1.0665826  52.4375076   8.5236225
  33.0341835  27.2079487   0.3753755  33.2666740  28.0697346   0.7210687
  32.7134361  27.3833103  -0.5092717  76.4307938  27.9635544  16.0623760
  76.1275787  27.0659504  15.9259872  75.8389893  28.3180523  16.7259483
  19.6702938  69.1132355  35.2594566  18.8548794  68.7009659  34.9742165
  19.8717785  68.6925278  36.0953026  82.4899139  23.6075134  38.3868256
  83.4398346  23.4981670  38.3429222  82.1491928  22.7158108  38.4575729
  24.7477627  68.1237106  12.7900915  24.0287189  68.5146484  13.2864571
  25.3348045  68.8559723  12.6018972  30.1240101  59.4052429  75.4514313
  29.6023979  59.4939384  74.6537628  29.6066170  58.8280220  76.0129929
  83.9924698   9.0630550  31.9147949  83.8189545   9.5990725  32.6886215
  84.5972214   9.5880356  31.3904839  48.0945511  60.3897896  66.8924866
  47.5325394  60.6695480  66.1699142  48.9784164  60.3970528  66.5251160
  60.9170723  62.7159920  67.9920349  61.7472763  62.6090240  68.4563065
  60.5779533  61.8256721  67.8994980   2.9713316  42.2701721  34.4572296
   2.8400981  42.2246132  33.5101662   2.4037902  41.5853004  34.8108940
  34.3637123  44.6795502  75.5571136  33.4466362  44.4101830  75.6084976
  34.8582344  43.8661156  75.6571350  10.5945234  42.5731316  65.8947220
  10.9204426  41.6731987  65.8831711  10.3576050  42.7303429  66.8087234
   6.1642046  71.6132202  54.5814018   6.9467883  71.5688858  55.1307907
   5.5456195  71.0123367  54.9967613  58.4264336   9.2663822  69.1795959
  57.6129837   9.4742012  68.7198715  58.9343185  10.0770369  69.1460724
   4.0299697  65.5194244  28.3156910   4.0840373  66.3666992  28.7577763
   4.3260856  65.6958771  27.4227104   5.0962138  54.7366447   7.1809115
   5.4717603  55.3845558   7.7770743   5.7935658  54.5594788   6.5496078
  84.2992935   1.5847064  60.9765968  84.4894943   1.5650728  60.0386887
  83.3537140   1.4467454  61.0321655  56.9662018  57.3453217  81.6527557
  57.6078568  58.0502281  81.7400436  56.9509621  56.9273415  82.5137405
  26.6376476   7.7652001   0.9303015  26.0601234   8.3501892   1.4206945
  27.0777149   8.3358736   0.3002985  28.6859837  64.7752228  19.9022274
  27.9783802  64.7584534  19.2578297  29.4243660  65.1683578  19.4369640
  14.6680555  25.5190201  17.4055519  14.0469217  25.9838257  17.9662495
  14.1862888  24.7503223  17.1002045  75.3286591  57.9189796  59.9512520
  75.8049622  57.0934563  60.0399857  75.4984970  58.3828163  60.7711525
  23.2871380  52.6620255  23.8601856  23.5678101  53.2917442  23.1961784
  22.4277267  52.9766846  24.1405983  10.3272238   6.5005574  58.0785675
  10.1076937   6.0462275  57.2651672  10.8051252   5.8510079  58.5942497
  81.3512802   7.8079100  67.9755020  80.9767303   7.5064502  68.8031845
  80.9145050   7.2787099  67.3081131  27.2116470  41.9553413  88.7510223
  27.5894566  42.2104836  87.9093628  27.9155102  42.1003151  89.3833160
  41.9421387  23.2964268  26.0105572  42.8918228  23.3453426  25.9012966
  41.8109207  23.2744408  26.9584656  23.8613758  34.9559174  19.1681843
  22.9777622  35.2870598  19.0075493  24.4367352  35.6819229  18.9271374
  36.3737869  53.5319672  68.3420029  36.8854332  53.4547272  67.5367126
  35.7929726  54.2766991  68.1862411  61.1991501  47.0645561  60.4692345
  60.5991707  47.4648933  59.8399620  60.6482201  46.8490372  61.2217369
  60.6901054  28.5006561  44.6973991  60.7177963  28.0617733  43.8471947
  60.7065659  27.7875443  45.3357010  37.8711357  43.0492516  86.2553177
  38.1647263  42.1397247  86.2024765  38.1997681  43.3583527  87.0995255
  20.1905174  34.7584114  73.7935181  19.8675823  35.0635719  72.9456787
  21.1161919  35.0019798  73.7990112  12.7742605  18.9605408  75.6758194
  12.4997940  18.6324215  76.5321121  13.5918398  19.4272442  75.8489761
  27.9562054  33.9962234  80.8092880  28.9120827  34.0457840  80.8179703
  27.6738777  34.8654747  80.5248108  31.0246258   4.9682875  61.6497269
  30.9476128   5.0755696  60.7016830  30.5424747   5.7102909  62.0146828
   3.0566065  54.9108925  65.4806976   2.6551647  54.0884399  65.2002563
   2.4389958  55.5865250  65.2008667  80.6375885   0.9457527  50.3966446
  81.5197372   0.6229655  50.5806465  80.6524658   1.8593156  50.6819763
  28.5274181  36.6425934  75.1969910  29.0230122  36.2814522  74.4620132
  27.7058430  36.1514244  75.1962738  74.2820511  65.2340698  68.4291916
  74.4805603  65.9711838  69.0066681  74.7681656  65.4212646  67.6261444
  14.2647429  19.6026859  13.1297369  14.9282045  19.1077652  13.6104689
  14.0678616  20.3502560  13.6941910  55.2820435  43.0765800  88.0971909
  55.4314537  42.4980164  87.3494110  54.8422775  42.5240784  88.7433929
  64.6511002  30.4030075  32.2092476  63.6987648  30.3088512  32.1884613
  64.9788895  29.6202507  31.7664452  27.3748837  71.2091522  20.1755257
  27.1801395  70.9991684  21.0888786  26.7246246  71.8701324  19.9378338
   3.7456694   3.5277884   5.3992767   3.7120216   4.1259313   6.1458187
   2.8825579   3.1141984   5.3846536  43.1480751  60.7331200  86.9564133
  43.0675888  61.5066719  86.3984070  42.7001877  60.0401459  86.4712143
  82.9195633  65.9700546  69.2558289  83.6824265  65.4934616  68.9285126
  82.1758881  65.4054489  69.0451126  12.7088070  32.8558083  24.6248817
  12.1013117  32.3559914  24.0795708  12.7073755  33.7333450  24.2425709
  20.3226337  16.6371975  82.7001953  20.6281033  17.5058460  82.4387207
  20.8448982  16.0313473  82.1744461  37.7683487  53.7538567  51.7975807
  37.3664513  53.1676865  51.1563988  37.2920952  53.5827637  52.6100731
  19.0163765  61.5021973  81.3641434  19.1987324  60.8045387  80.7346649
  18.4202881  62.0917549  80.9022675  22.1367874  58.1108017  82.4061356
  22.9259281  58.5900421  82.1535110  21.4418983  58.7689400  82.3914871
  32.3423080   4.1528449  73.3570404  33.0767479   3.5461376  73.4504929
  31.7552700   3.9314380  74.0799484   1.4438770  10.9214334  58.6358566
   0.4946134  10.9096727  58.7583008   1.6603526  11.8478880  58.5307274
  40.5379372  15.1163387   2.5470934  39.6228638  15.3883028   2.6171143
  40.6722488  14.5329685   3.2940013  28.6302948  43.1721153  79.5858231
  28.6925373  42.5036087  80.2680664  28.0995445  42.7661781  78.9004364
  56.8798447  49.0416679  73.9126129  57.3681602  49.3832855  73.1635666
  56.1450653  49.6464386  74.0154877  85.1171494  23.1945305  42.8588028
  84.5186615  23.5275879  43.5274696  85.3744659  23.9699306  42.3600273
  82.4452209  58.8603172  50.6047783  81.7262497  59.4146919  50.3014870
  82.8297806  59.3450623  51.3350945  54.7984352  56.0074158  43.5137291
  55.2746086  55.8674583  44.3322067  54.8186607  55.1562462  43.0763092
  46.9084587   0.2471536  44.5246201  45.9674950   0.2965578  44.3561783
  47.1978035  -0.5272915  44.0421829  76.8464737  47.6649323  72.2691574
  75.9808044  47.5640488  71.8733292  77.0204391  46.8196869  72.6833115
  56.1523018  71.4246140  45.3229218  55.9104195  70.8963623  46.0836296
  55.5104828  71.1881943  44.6532936  50.2748146  70.0527802  62.1810112
  50.9488754  70.7105179  62.0099831  50.0941696  70.1328888  63.1175919
  57.9777794  36.2684021  36.0128021  57.1364899  35.9272118  36.3162041
  58.6156387  35.9228554  36.6372719  69.5436478   3.2933567  52.2526588
  69.7284546   3.7581167  53.0687943  68.5890350   3.2287874  52.2246819
  56.7003670  39.6499176  89.1309357  56.4180298  39.5749474  88.2193985
  56.0506516  40.2240639  89.5364609  76.3549194   9.4606180  67.3925323
  77.0240479   9.1629810  68.0088959  76.7120056   9.2480230  66.5302505
  23.0977058   7.4231615  81.9129410  23.4404507   8.2869577  82.1423187
  23.5381851   7.2007813  81.0927200   1.4208335   7.2432580  58.1022720
   1.6099510   8.0138302  58.6376991   0.8429011   7.5675163  57.4115601
  86.1966019  25.2804432  80.8987885  85.6478577  25.3018513  80.1147919
  87.0126495  24.8726959  80.6089096  12.6136322  59.9028931  43.5897026
  11.9832411  60.2133789  42.9397507  12.0906315  59.7500534  44.3766861
  68.0068741  55.6256561  73.9081268  68.8013763  55.8782539  73.4378204
  68.3233795  55.2629166  74.7354584  82.8113251  19.9207115  65.7401733
  83.6201096  20.0053673  66.2450867  82.7203445  20.7610474  65.2909622
  43.2591667  46.0592537  22.1165695  43.4828415  45.1584435  21.8826008
  43.4978600  46.1330299  23.0405903  11.5159626  57.4442215  63.9021683
  11.1507359  57.1219292  64.7261658  12.0860243  58.1686554  64.1599579
  43.4124222   0.1894746  78.3913651  43.1690941  -0.2751451  79.1920853
  43.1937256   1.1041994  78.5693588  51.9100189  14.9814920  38.5078011
  52.4534683  15.3694019  39.1936760  51.0571136  14.8520288  38.9225578
  15.4650660  59.2834625  36.0376282  14.9977961  58.7383041  35.4046249
  16.3774929  59.0026054  35.9681549  85.0974960  61.2304573  28.4557705
  84.8282700  60.4079247  28.0468769  84.7113647  61.9101677  27.9033890
  38.1770020  15.1767473  11.1320992  37.4036903  15.3255005  11.6762400
  38.8893089  15.6064463  11.6056089  69.4077911  29.6544304  11.6062088
  69.9826508  28.8896179  11.6349592  68.6787262  29.4279060  12.1836052
  37.7879066  48.7218552  11.2684679  37.2337532  48.0356712  10.8965807
  37.2369843  49.5045853  11.2616434  24.4620037   7.3456044   9.0873289
  24.6608582   7.9621711   9.7919807  25.3167133   7.1118755   8.7252865
  80.0504684   6.5898523  70.2365875  79.8810272   6.0685835  69.4518585
  79.2926102   6.4295163  70.7988815  59.9800491  40.7909088  30.0165024
  59.9490128  41.0498466  30.9374905  60.8379097  41.0878677  29.7129898
  23.6873474  29.6600723  66.8680496  24.1913490  30.1974297  67.4791641
  24.0333748  29.8896809  66.0056229  37.7147713  61.0441360  36.7695656
  38.0144958  61.8658676  36.3807793  37.5132561  60.4839935  36.0199928
  73.9645081  33.0592461  69.1434097  73.4784546  33.3514099  69.9145355
  74.2584152  32.1759071  69.3660431  86.0236359  13.3647566  72.9362717
  85.4118347  12.6315203  72.8707275  85.7995911  13.9304295  72.1973267
  70.6178894  60.1303101  35.1674423  70.9468842  60.2109985  36.0626984
  69.8595963  60.7136841  35.1374435  49.6512680  52.2487831  39.4822578
  49.1542168  51.5455589  39.9001694  50.5332260  51.8909645  39.3805313
  40.5299988  39.2282982   5.5882258  41.2570877  38.7454834   5.1952004
  40.6141930  40.1151009   5.2379098  52.3252907  47.5899620  81.8463898
  53.0496559  47.3225288  82.4120789  51.6487007  47.8941689  82.4512939
  49.4962120  10.6976099  75.1502762  50.1459465  11.2237339  74.6841583
  49.0728722  11.3140364  75.7478027  61.0525856  66.9012451  45.9290123
  61.4096107  66.1070786  45.5314560  61.7658997  67.5373077  45.8756752
  11.9942493  46.4918518  79.0798721  11.3247461  46.4137573  79.7594986
  12.5196791  45.6967087  79.1687775   2.6314385  43.4709435  82.0153656
   1.7925529  43.2211037  81.6279602   3.1664805  42.6792336  81.9591446
  32.7130928   5.5510445  53.4221992  33.5316963   5.9562864  53.7083740
  32.7946930   5.4927058  52.4702682   8.3415508  35.1443481  64.4105453
   8.7479763  35.9430847  64.7468109   8.9579782  34.4481125  64.6374893
  85.4358368  47.8450661  12.7696218  85.1709671  47.7850304  13.6874847
  84.8721695  48.5256195  12.4017038  18.6177082  23.0202217  12.3659077
  18.1416264  22.5978336  13.0808668  19.5333900  23.0018902  12.6441555
  29.7377453  63.9124908  67.0113831  29.9976921  64.0623245  67.9203415
  30.5629616  63.8898964  66.5268860  62.3136978  17.4330540   1.2871640
  61.5384674  17.2893429   0.7443953  62.1345329  18.2523708   1.7485203
  70.9743347  62.0928345   7.1747541  71.6985168  62.2210999   7.7874031
  71.2961044  62.4474678   6.3459425  16.8864422   1.6694456   6.2997313
  16.3520241   2.2592609   5.7679911  16.3778706   1.5419160   7.1005573
  14.1613455   7.1642370  76.1500931  14.7775784   6.5294919  76.5155869
  13.7487850   6.7040234  75.4191818  20.5782356  51.7563782  21.3194752
  21.3027954  51.4473763  21.8633194  19.8453770  51.1853523  21.5498581
  80.7725296  11.9998989  43.0961418  80.5595856  12.9331093  43.0983734
  81.5164719  11.9254150  42.4984589  83.6038589  10.4963331  79.7474365
  84.0116501  10.2911921  78.9060974  84.1104889   9.9963341  80.3874054
  65.9354324  10.8901606  15.0138502  66.4292374  10.0847607  15.1678734
  65.8893509  11.3107605  15.8724566  63.8719025  36.3643875  37.5993385
  64.7986526  36.1764526  37.7478447  63.4083405  35.7341537  38.1508369
  51.8674355  38.2506142  46.2750130  51.2834854  38.8248940  45.7795944
  52.4317703  38.8483162  46.7654343  42.0257721   6.9518919  78.7463531
  42.3867302   7.6178961  79.3314896  41.4811745   6.4052119  79.3127365
   0.8037305  10.9839745  78.9364319   1.0126083  11.0225906  78.0030975
   0.3884412  11.8257589  79.1239548  11.2841406   0.1977530   7.2359018
  10.8140602  -0.3569319   6.6133418  12.1750336   0.2453145   6.8890882
  33.3150826  64.2574768  47.9790039  32.7653465  63.5646935  47.6128387
  33.5615845  64.7918167  47.2240601  22.0089893  69.0855179  74.7135620
  21.1190910  69.1229553  74.3629684  22.3447914  68.2370300  74.4245224
  59.0542717  59.4671135  10.1456842  59.3094139  59.2614708   9.2463255
  59.6097679  58.9057541  10.6865482  74.8959579  34.8335648  36.8170013
  75.1725311  34.8211594  35.9007149  74.0913162  34.3153152  36.8313484
  61.4305916  10.1057596  33.5503883  61.5237541   9.8002396  32.6480522
  62.3127823  10.3776274  33.8034935  27.1239815  53.0126228   0.6620028
  26.2616348  52.8800430   1.0557181  27.0506382  53.8479156   0.2003343
  77.5011444   2.0641804  67.2060394  77.1608887   1.2066790  66.9507980
  77.2319489   2.6491637  66.4978333  52.5321579  11.0705137  27.2370491
  52.5773621  12.0265160  27.2212582  52.4970016  10.8477297  28.1672974
  50.8496170  67.2201920  61.7226486  49.8966942  67.1352844  61.6916962
  51.0014343  68.1444473  61.9199791  44.1079521  49.9758186   1.7401761
  44.3616829  49.5661049   0.9131388  44.8176346  49.7563324   2.3438394
   3.0894334  42.0541840   5.7046409   3.5141342  41.5730247   4.9944682
   3.1099079  42.9680290   5.4205565  60.6471825  12.5588932  28.7284985
  59.9287872  12.7926521  28.1407051  60.2882309  12.6839771  29.6069851
  37.9206505  60.4872246  86.0341187  37.1452904  60.9180374  85.6743317
  38.6496544  61.0509834  85.7753525  80.4847107  57.5430794  13.7875519
  81.1090851  58.0853653  14.2695436  79.6470566  57.6962013  14.2247200
  47.8145485  67.8449249  79.7418747  47.6023636  67.8024750  80.6742935
  48.0980530  68.7483597  79.6016464  11.2726097  54.7185707  55.1353378
  11.6016874  55.2868347  55.8317680  10.3989477  55.0583572  54.9417114
  82.2987671  55.7555084  16.3045712  81.3589706  55.8229179  16.1358337
  82.3769302  55.8257980  17.2559814  50.4522209  57.4672890  48.7673759
  51.3790054  57.6791306  48.8788261  49.9970207  58.2949257  48.9224358
  80.4690628  35.2133141  43.3643646  80.6211777  35.5391045  42.4772568
  81.2423935  34.6847076  43.5612679  71.6999054  44.8528786  10.6856375
  71.0259781  44.1739120  10.6530685  71.5703125  45.2785225  11.5331402
  66.8772888  18.6237087  14.5176525  67.1696243  17.7122822  14.5089483
  67.3704758  19.0266094  15.2322626  59.9535294   7.7502928  24.5168190
  59.0958099   7.6958151  24.9382153  59.7604446   7.9921203  23.6110210
   5.7884383  27.6500778  58.5053444   6.3736711  26.9033241  58.3784866
   5.8197904  27.8217754  59.4464989   7.6961446  29.8176708  65.8074417
   7.6818304  30.4124031  65.0575562   7.6914201  30.3948593  66.5710297
  72.7160950  65.6605072  22.7159195  71.9811096  65.7245331  23.3257866
  72.3098679  65.6716003  21.8492680  50.2441711  18.1913605  66.7983322
  50.2283058  18.5847721  67.6707993  49.3382492  18.2465401  66.4942017
  29.4550419  38.2826614  27.9478989  28.6887531  37.7284813  28.0959473
  30.0218849  37.7608185  27.3799171  60.7860794  22.2049828  50.7778397
  61.1089554  22.3972759  51.6581841  59.9156189  21.8323402  50.9180603
  73.8467026  16.7512512  38.8438606  73.4477158  17.3570385  38.2193108
  73.1588898  16.5841141  39.4882317  53.5434914  70.7078629  30.8575649
  54.2425346  71.2748337  31.1833134  53.2132378  71.1575470  30.0797844
  38.0786095  41.1303864  41.8450584  37.2873573  41.0520668  42.3779945
  37.7728462  41.0202484  40.9447212  64.0236893  36.5710030  44.9620934
  64.2172318  36.5607109  45.8994675  63.4579811  35.8109550  44.8259735
  62.0807762  37.3210907  28.4666481  61.2344589  37.7564163  28.5690022
  61.8819160  36.3884277  28.5492592  76.4115219  50.3900757  59.2395325
  75.6624146  49.8621864  58.9631386  77.0614166  50.2641182  58.5481529
  56.4623985  47.1456947  36.0479546  56.0008850  46.6015015  35.4099159
  57.3567429  46.8045692  36.0513191  15.8424721  26.5554390  88.7842102
  15.1080608  26.2412586  89.3116150  16.0568180  27.4104633  89.1573334
  68.2078476  47.0929527  69.1486588  67.9394531  46.5317841  69.8761826
  69.0124283  46.6913834  68.8206100  26.3209171   3.7355020   2.6874413
  25.5836296   3.9904084   3.2421155  26.4177170   2.7947311   2.8351283
  29.6203270  12.2384186  19.9587498  29.7403812  12.7325392  19.1477871
  30.2284069  11.5030308  19.8834000   1.9147239  58.4920883  88.8584824
   1.9009881  57.8782921  88.1241150   1.3069922  59.1857948  88.6022339
  85.3608856  11.5072069  30.2709599  84.4243240  11.6904583  30.3451633
  85.7389069  11.8623648  31.0754433  25.8662224  65.1730881  53.8340073
  25.3047352  65.7597427  54.3407593  26.5405769  64.8930893  54.4529419
  73.6495667   4.5638719  56.0493774  73.0385361   4.0235071  56.5502625
  73.4391174   4.3778982  55.1343079   0.3002357   1.5044640  58.7034760
   0.3940695   1.4733953  59.6555595   1.1176336   1.1344440  58.3700447
  45.6033249  69.9956894  31.1956215  45.2665443  69.6519165  30.3681965
  46.5305557  70.1622467  31.0260944  47.9046173  49.8721542  61.5185814
  47.5974731  48.9665833  61.5614548  48.8590431  49.8008995  61.5035973
  60.7915764  26.7352123  86.2305679  61.7461624  26.6699390  86.2576599
  60.5469284  27.0333347  87.1066437   6.0564985  27.9027195  71.7607956
   6.2485223  27.8325500  72.6959076   6.3477378  27.0682812  71.3932037
  46.6110382  53.7275047  21.1816196  47.5262604  53.4471588  21.1842480
  46.3761444  53.7697525  20.2546501  85.0973282   2.0260582  88.4930344
  85.2729187   2.8022773  89.0249023  85.8852768   1.4902198  88.5838699
  55.5797157  43.7543678  44.8131943  55.4481010  43.0289192  45.4236336
  55.7939110  43.3316956  43.9815102  50.6413155  20.5817394  78.4517288
  50.2038231  20.1001720  77.7496414  51.2386551  21.1764431  77.9981384
  39.9136162  51.1839218  39.5710258  39.9518814  52.1071548  39.3212090
  39.1137123  50.8572884  39.1590843  73.6392975  60.1721230  35.6645432
  73.5918045  59.2870178  36.0258789  73.3989944  60.7422142  36.3949394
  42.0747032  46.9211884  46.3572502  41.7906418  47.1932945  45.4846115
  41.3777733  47.2216759  46.9405365  68.4112549  32.5664406  61.9009361
  68.6220398  32.4868469  62.8312378  68.8435364  31.8164711  61.4923897
  40.2427597  32.3248253  33.0070114  40.8570061  32.9179573  32.5744286
  39.4291687  32.8253975  33.0680771   6.6901536  19.1980858  70.6286316
   6.4815135  18.2691746  70.5295105   5.9740758  19.5492496  71.1579208
  29.5945110  62.7328300  16.4788189  29.0945415  63.5437584  16.5718613
  30.4742413  62.9577560  16.7816658  20.8762550   9.4943228  17.1830444
  21.7606411   9.1548424  17.3203239  20.3873119   8.7521534  16.8275871
   6.3842201   5.2775755  11.6075954   6.2474561   4.8594928  10.7574577
   5.6890616   5.9329228  11.6668139  34.2314835   4.3891969  23.2505646
  33.5167465   4.2201085  23.8643990  33.8405952   4.9425211  22.5743484
  59.6985092  46.3963280  27.8940468  60.3435631  45.8734703  28.3702374
  59.2319794  45.7627602  27.3489094  52.9657135   5.3740420  24.2982025
  52.8974380   4.7074428  23.6146717  52.1470146   5.8660231  24.2355938
  53.0050011  65.0743866  58.9996300  53.1575394  64.5090256  58.2424431
  53.4400711  64.6260223  59.7248306  59.4891319  31.3185673  35.2448387
  59.0647125  30.5071907  35.5237122  58.8163528  31.7814026  34.7454529
  51.5521545  23.1163177  77.7509842  51.4109192  23.4998722  76.8854446
  50.6976662  23.1698608  78.1790237  32.6940460  50.3678284  27.5745068
  32.8811836  50.6253738  28.4772148  32.4577255  51.1853561  27.1362877
  72.4859543  48.4885483  14.6285076  72.8540955  48.2208252  15.4705467
  71.5418396  48.3685760  14.7308588  34.7148628  71.0078583  85.3110962
  33.9959450  71.3787308  84.7993851  35.4672585  71.5620499  85.1037216
  74.6539078  20.3200417  20.1880264  74.8815765  21.1770153  19.8274784
  74.2349243  19.8582745  19.4617615  58.3377991  48.5526695  80.6122742
  58.6425018  49.1294212  79.9117432  57.9617271  47.7998390  80.1561508
  44.2774734  57.3494339  38.1502495  45.0628967  57.6625862  37.7016144
  44.5105591  56.4735146  38.4579315  56.5907898  53.5068130  80.7028351
  55.7090302  53.3391571  81.0354309  56.4595222  54.1045456  79.9668198
  34.0752411  49.6638603  62.1504936  34.5924911  48.8756104  61.9851074
  33.3008385  49.5626640  61.5970612  66.8681412  12.0188646  43.4901695
  66.0901947  12.1979208  44.0183449  67.3530960  11.3640242  43.9923935
  72.8940506  65.7645340  82.0728989  72.6395187  65.4356537  81.2107620
  72.7655945  65.0201035  82.6607285  47.8950348  33.8587189  62.5520287
  47.1998711  34.0033417  61.9101105  47.4322586  33.6444321  63.3620605
  62.4017677  23.6475487   3.0989702  62.7183113  22.7516727   3.2148871
  61.4547043  23.5848675   3.2229667  66.9152908  28.9149113  52.4229393
  65.9907532  29.1616688  52.4469452  67.0054321  28.4016647  51.6200180
   1.0864210  67.8539276  24.8905277   1.2429982  67.4463425  25.7423439
   0.7110599  67.1544418  24.3556862  86.6823196  48.6054459  86.3249817
  86.9013290  49.3730583  86.8532181  86.4542313  47.9313354  86.9651260
  34.7616158  56.3921738  53.7638435  35.4470634  56.7223549  54.3446846
  34.3804665  57.1780319  53.3722076  16.0487328  44.1477966  45.6091652
  15.7770395  43.6100159  46.3529434  16.2694950  43.5160408  44.9247818
   1.5693130   3.5076864  61.0903397   1.5187832   4.3465362  60.6320686
   0.8842614   3.5573318  61.7570267   3.8282623   2.0529690  62.1468391
   3.1901841   2.7291012  61.9189491   4.5050836   2.1258104  61.4739037
  26.4300747  70.0718613  34.5559158  25.9994335  69.3172455  34.9575844
  27.0477066  69.6909409  33.9316902  53.0381889  47.4237671  58.3570671
  53.0060234  46.9502029  57.5258446  52.6882477  48.2908821  58.1524048
  68.2431717  65.7188568  32.1417122  67.5562439  66.2903290  31.7985268
  68.2181396  64.9475250  31.5754414  63.9462013  63.1776962  60.7788086
  63.7836609  64.0192184  61.2050285  64.2119064  62.5958939  61.4909439
  68.5840378  30.2755566  80.1323700  69.1376038  29.6944962  80.6540680
  68.2421265  29.7173500  79.4339905  68.7510910  49.8957138   8.5887117
  69.2673035  49.0916481   8.6456232  69.2954102  50.4940681   8.0769300
  37.8113861  59.6482315  22.6146183  37.7623291  59.0589714  21.8618908
  37.7369385  60.5249481  22.2377205  10.6080904  24.3598900  19.2509232
  11.4177370  24.2864075  19.7561989  10.3135891  25.2584152  19.3997650
  37.0017700   3.8154502   6.9369864  37.6334381   4.2475967   6.3621125
  37.0940666   2.8839438   6.7369628  53.6922913  62.4791641  54.6581688
  53.5401344  62.1568909  53.7697868  54.6379318  62.3993797  54.7832108
  34.2043800  45.7115860  65.7018280  35.1010590  45.4216080  65.8694992
  33.6558990  45.0490112  66.1218185  53.8756142  21.8608170  24.8087463
  53.3227844  21.9400463  25.5861359  53.7505150  20.9578152  24.5169067
   1.9932870  26.4608574  79.5094833   2.3958077  27.1595078  78.9936371
   2.3351996  25.6529713  79.1265411  22.4427681  62.1536713  24.9888992
  23.2594051  62.3866081  24.5472202  21.9929981  62.9888763  25.1168423
   0.0822403  66.2734909  27.0258446   0.7103919  65.9906235  27.6904068
  -0.5448892  66.8156433  27.5043964  80.7503510   8.4321737  73.0290146
  79.8676605   8.0713882  73.1122131  81.2274017   7.7816586  72.5137634
   7.8134089  52.8630524  15.2026024   8.1275301  52.1603928  14.6335411
   8.4671412  53.5561523  15.1105204  70.9967499  52.0893936  11.0236483
  70.4772873  52.8331337  11.3290052  70.9412155  51.4505768  11.7343225
  80.3275452  52.2074623  52.0442009  80.6701508  51.4563179  51.5598068
  79.5302887  52.4520569  51.5743217  27.9577942   5.9934497  11.8318748
  28.8132591   5.5658498  11.7922440  28.1421623   6.9151959  11.6512537
  12.0133972  65.3954544  36.6276665  12.4416704  64.9857178  35.8760452
  12.2743235  64.8570709  37.3748550  58.4650764  41.6665726  20.7441196
  59.2641258  41.1971130  20.5046215  57.7748146  41.0052643  20.6947079
  25.4935913   0.3640345  31.3755417  25.6786156   1.2788768  31.1632652
  26.1073265  -0.1356266  30.8371201  56.1292191  65.7433472  18.1592770
  55.4170952  65.1578751  18.4168262  56.2807503  65.5441895  17.2353687
  24.6287632  13.0590677  78.4630356  24.2211437  13.4155912  77.6737518
  24.7587566  12.1311703  78.2672348  25.7125511  57.3479576  31.9772892
  25.6540413  57.7543030  32.8419800  24.8090973  57.1199417  31.7581730
   8.3554335  32.5896301  88.9226761   9.2970591  32.6466789  89.0848999
   8.0278702  32.0135269  89.6133575  31.7358150  55.9876328  36.4060745
  31.6403103  56.9399948  36.4168510  32.5594406  55.8242950  36.8656349
  23.0706291   0.8292732  17.4049168  22.2979012   1.2055815  16.9835930
  23.6372700   0.5700707  16.6783047  49.3829613  41.6901703  53.8252373
  49.1576462  41.0106544  53.1898460  49.5817337  41.2100067  54.6290779
  54.0944214  10.9365387  69.0020752  54.2792816  10.5635862  69.8640289
  53.4128342  11.5886917  69.1644516  44.4779282  35.2632103  16.4855843
  45.0062523  34.8916092  17.1919937  44.2133102  36.1234512  16.8114681
   2.0129211   1.6185528  69.1369781   2.1222532   2.3734934  68.5587540
   1.3287715   1.8845044  69.7513351   2.7449188  43.4629440  86.6061249
   2.6955612  44.1979980  85.9949799   3.6116700  43.0851822  86.4568939
  11.7737207  30.4970779  62.6508484  11.2950449  30.0712147  61.9396935
  12.0822544  31.3204231  62.2725067  78.7185745  60.3360023   1.9751039
  78.8468704  59.3874397   1.9748547  78.9048080  60.6031189   1.0749933
  29.7438297  17.1439171  86.0820694  29.6708660  16.1958199  86.1917191
  30.5037441  17.3883362  86.6102905  25.0679646  50.2737274   1.0209211
  25.2989769  50.5211067   0.1255613  24.7824039  51.0910759   1.4291223
  22.2949524  39.1350517  11.5967569  21.9072151  38.8070564  10.7853937
  21.5502853  39.2580338  12.1854668  66.5799561   1.2659526  16.0483036
  66.0205765   1.4730569  16.7969227  66.3173523   1.8912648  15.3728390
  54.7559547   7.7555637   6.9532247  54.4310646   8.0454283   7.8056660
  55.2870941   8.4868526   6.6380439  29.3134327  52.3944588   7.5673132
  29.9896393  52.7792931   8.1248798  29.2024994  53.0248337   6.8555870
   0.7943630  20.6350594  38.2845764   0.5367777  20.4088593  39.1782837
   0.0421094  21.1100979  37.9314690  51.8927307  58.7904816  22.2692471
  51.1213112  59.1081543  21.7999649  52.1729698  58.0198555  21.7754555
  44.3248711  67.4009323  15.8376999  45.2545280  67.1739960  15.8160582
  43.8715363  66.5618057  15.7565050   4.7900229  33.6319809  32.0902252
   4.4850407  34.2552872  32.7495499   4.8076081  32.7905159  32.5461388
  67.5358887   0.3496007  55.2594566  67.1901016   0.5271063  54.3847237
  67.3028183   1.1244079  55.7709084  54.8706589  17.4554386  78.5007248
  55.6498833  17.8185673  78.9216461  54.6564522  16.6809158  79.0207825
  12.2562771  12.8883381  82.5126038  11.7131920  13.6463585  82.2965088
  13.1542368  13.1901197  82.3753891  58.1901436  33.8163681  79.3147659
  57.9642220  34.0163383  78.4063568  58.3069725  32.8664284  79.3289719
  44.2230415  16.0463486  18.5448742  43.8387718  16.6710415  17.9297924
  44.1768646  15.2045765  18.0915298  49.7154694  43.8227844   6.2819014
  50.1322784  44.4122467   6.9104223  49.7503281  44.2957535   5.4504466
  46.2797318   4.5242453  69.3922195  45.4296036   4.0981374  69.2829208
  46.0675316   5.4419494  69.5625763  46.4833946  43.7786751  52.7081108
  47.2939720  43.6522255  52.2149506  46.7585640  43.7801323  53.6249046
  68.7267914  63.0768242  40.8220444  69.3306961  63.1184273  40.0805550
  68.5655746  62.1416740  40.9474640  15.3340588  19.2188702  66.8810806
  16.1755238  19.6743717  66.8548584  15.5646410  18.2954502  66.9828568
  72.4981918  68.3827972  72.7073898  73.0591125  69.0918808  73.0217133
  71.6872330  68.4797134  73.2065735  15.5854549   2.6065907  69.0163040
  14.6874075   2.8501513  69.2408524  15.5286970   1.6834738  68.7695923
  72.7204361  37.1282310   5.0596566  72.8807755  36.8433151   4.1600194
  71.7686996  37.2117729   5.1184134  26.3120174  38.2964325  70.6503067
  26.0569611  38.9417267  69.9909363  25.6259270  37.6301079  70.6112976
   8.1426077  42.9319992  21.5053883   8.0390530  43.5942802  20.8220940
   7.6926446  42.1604195  21.1612511  79.5657501   7.5924311  30.7463131
  79.3432846   6.8644619  30.1659698  80.3781204   7.9470901  30.3850632
  36.1162186  53.1244087  35.7064209  35.5273514  52.4310913  36.0043793
  35.6170425  53.5909615  35.0360603  11.7833710   1.0263137  32.0251122
  12.4202929   0.8656846  31.3288631  11.9110422   0.3023955  32.6381989
  70.0571365  59.7849693  38.4708061  69.3083572  59.8781052  37.8818283
  70.0879135  58.8498917  38.6730652  13.3427906  37.3707924  34.9273376
  13.4838419  36.4590530  35.1824265  14.1340218  37.6095505  34.4444542
   1.9786000   9.3454762  17.7748356   2.4690597   8.5870485  18.0918026
   1.0882217   9.2069168  18.0977287  13.4699764  29.4200439  12.3114271
  13.0348959  28.8145199  12.9116583  14.3715963  29.1023617  12.2625332
  78.3069000  65.0517044  73.5811615  77.5269089  65.2018433  73.0470200
  78.9946518  64.8455429  72.9481277  76.3242874   5.0448356  49.3612900
  77.1402130   5.4486737  49.0656433  75.7872314   4.9838738  48.5712967
  52.6294327  60.7754974  45.3333054  52.4980812  61.4853745  44.7047729
  52.2719917  60.0013351  44.8984070  75.4827881  45.7454338  17.8226986
  75.0783615  45.6555634  18.6855965  75.6693192  44.8468056  17.5508423
  11.2334251  53.5516510  77.7352371  11.4743958  53.2682457  78.6171951
  10.7285757  52.8208771  77.3784027  12.3453140  44.4183197  64.4383698
  11.9763613  44.8990860  63.6974487  11.6069927  43.9243965  64.7949600
  20.6158066  19.8459606  14.4357557  20.6077251  20.2153759  13.5527496
  19.9715500  20.3641567  14.9180822  59.9416389  65.7457962  74.4891434
  59.6647263  64.8936234  74.8258286  59.1803284  66.3120956  74.6153946
   7.3389769  38.9724007   6.5084100   6.6743364  38.8178139   5.8371515
   6.8469286  39.0094032   7.3286242  75.1662979  20.4152298  88.6581650
  74.2342148  20.4857998  88.8642502  75.4234924  21.3018856  88.4053345
  33.4356766  71.3243332  81.1048126  33.5907135  70.7712860  80.3390808
  33.3312607  72.2057571  80.7464676  36.6370239  68.0637589  47.0224991
  36.6898956  67.1108170  46.9494286  37.2795181  68.2883835  47.6955338
   0.4465051  59.1670456  66.0086136   1.3864570  59.0264931  65.8947449
   0.3549459  59.4483414  66.9189529  54.7381668  54.1620636  73.2463989
  54.4624672  54.4356270  74.1212616  55.6026192  54.5572128  73.1332016
  23.9818363  53.2834778  50.5226517  24.0740318  52.7401466  51.3052902
  24.3636570  54.1257973  50.7695045  76.1546173  19.8678493  41.5061073
  75.9693222  20.7298565  41.1334953  77.0325317  19.6540585  41.1902237
  16.5357571  42.9869804  74.1693039  16.3479500  42.2033234  73.6527405
  17.2116032  42.7098122  74.7878799  74.3802719  12.8913755  25.3606339
  75.0494003  13.2397699  25.9497986  74.1783829  12.0247087  25.7132835
  56.3850288  46.2096634  49.3883324  56.2308502  46.8722343  50.0617294
  55.5820312  46.2062798  48.8673592   4.5591254   9.9733019  80.1200790
   4.2824593  10.8894510  80.1390152   4.3420529   9.6395102  80.9905319
  82.2665253   6.7949142  14.9107780  82.7096939   7.6419902  14.9586849
  81.4682236   6.9700966  14.4125280  60.0732574  43.0314293  34.9117203
  59.9342613  42.2806816  34.3344078  60.7555771  42.7439690  35.5183792
  51.3897896   4.9574180  43.3483582  51.7689400   5.3625669  44.1283150
  50.4539871   5.1490760  43.4097748  58.1706047  69.9748993  76.2001343
  57.8772812  70.3967819  77.0077286  57.6431885  70.3812408  75.5124207
  20.3449650  60.9147415  12.9768915  20.4891491  60.9173508  12.0306168
  19.7283173  60.1974106  13.1232319  13.1392479  64.1612167  73.6310501
  13.4556656  64.5317917  74.4549408  12.2095947  63.9933624  73.7853241
   1.4504730  55.1932030  28.2270775   1.3857145  55.2927818  29.1768780
   0.7621394  54.5664024  28.0044823  30.6241837  45.0897903  66.0157089
  30.2336807  45.9327621  66.2462234  30.5242786  44.5559998  66.8039474
  64.1944580  56.5561333  78.8437271  64.1728210  55.8413506  79.4800034
  63.3055382  56.9110680  78.8519058  72.7282867  32.7533722  87.1473999
  72.0627975  32.0778923  87.0166779  73.5584259  32.3074341  86.9793777
  29.8482628  -0.0035893  51.6793633  29.8266773   0.9374831  51.5057297
  29.0022564  -0.3242715  51.3668480  70.8049469  65.9956970  45.3292007
  69.9115677  65.6576233  45.2674065  70.9318848  66.1678467  46.2621956
  44.5877075  61.0578346  54.3712692  45.2259140  60.4349632  54.0234871
  45.1063271  61.6583633  54.9066505  82.0029068  49.5161705  74.8438416
  82.3887558  48.6744614  74.6012039  81.5133667  49.7879372  74.0674896
  24.6341152  69.8199997  16.8016796  25.3239632  69.6814041  17.4506264
  24.5364666  70.7710800  16.7553215  79.1618118  45.8647232  31.8838139
  79.8045349  46.1330490  31.2272015  79.5605621  45.1084328  32.3142281
  12.0308352  48.5342369  87.2333374  11.5804558  48.3091240  88.0474167
  12.8595743  48.0573730  87.2783432  49.3256798  26.6629429  13.7879572
  49.3024559  27.4762325  14.2921906  48.4640083  26.6130180  13.3741226
  66.1309738  41.2866325  65.1477127  65.8000946  40.9354477  65.9744034
  66.7302170  41.9863815  65.4074860  61.3001671   1.6809331  76.5760345
  61.7192993   2.4878867  76.8750076  61.9366417   1.2873820  75.9791641
  82.3501587  67.2368088  14.7936068  83.1759109  67.5900803  14.4626093
  81.8197556  68.0095825  14.9878092  44.0642853   0.0491164  43.5226936
  44.0948410  -0.1610615  42.5893555  43.8383217   0.9788147  43.5515747
  27.1014118  71.6941071   2.9032369  27.1131382  71.7686157   3.8574605
  27.3441143  70.7843399   2.7310348  37.7268753  37.0695305  65.2761993
  37.5451508  36.4968796  64.5310287  37.2906647  37.8929901  65.0574265
  49.4096718  33.8243523  80.5134888  49.0651512  34.0014648  81.3888016
  48.9986191  32.9988976  80.2568054  46.3063240  60.4731712   9.0909376
  46.3398476  59.7510147   9.7183161  45.4129715  60.4511642   8.7479153
  45.4937515  23.0545998  79.7616959  44.7116241  22.5637321  79.5095901
  45.3412971  23.9375324  79.4249115  59.1730156   6.0160217  76.6511688
  59.8540764   5.5744100  76.1438522  59.1902390   6.9206352  76.3387451
  25.7636909  43.3443794   1.4858564  26.1099796  42.7067375   0.8615707
  25.8579597  44.1880608   1.0436535  79.4886475  69.4337616  25.2447357
  79.4847794  70.3843002  25.1320782  78.6838760  69.2465744  25.7279968
  29.2754555  48.7098961  13.9769793  29.8388844  48.2916451  14.6280146
  29.3702812  49.6474380  14.1450815  50.6157913  46.8944473  48.5473366
  50.7256088  46.0637970  48.0845337  50.3016739  47.5020180  47.8776932
  52.0409470   6.0006862  75.7282181  51.1700897   6.3714385  75.5854340
  52.1167870   5.9268327  76.6795425  58.0051727   9.2371073  52.9359703
  57.9280663   8.3437719  53.2709885  58.9017906   9.2923927  52.6054382
  71.9187012  31.2430077  67.7130432  71.9892426  32.1965599  67.7577133
  71.9330978  31.0453835  66.7765808  72.4804535  39.8611603   5.3506761
  72.5389404  39.1812935   4.6794157  72.1601562  40.6325111   4.8830643
  55.9487991  68.1621857   0.9970663  55.0734978  68.1647110   1.3844615
  55.8705902  68.7224426   0.2249104  59.3892365   6.0874424  37.2009926
  59.2941704   5.5801673  38.0071335  60.2818031   6.4312081  37.2381783
  56.5225830  68.2286682  19.1789017  56.4514084  68.0665054  20.1195774
  56.4594994  67.3604889  18.7807484  33.6184998   3.3070431  64.3668900
  33.7475662   2.5454495  64.9321747  34.4997673   3.5414898  64.0759735
  80.4197540  62.5618248   7.9739714  80.9257660  61.9498901   7.4394417
  80.4075394  63.3717957   7.4640446  38.4090691  54.9610863  49.2151527
  38.3426781  55.9040680  49.0647736  38.2407990  54.8554382  50.1515045
   9.0853014   4.6918263  80.5701675   9.0334797   4.6009803  81.5216370
  10.0236559   4.7123027  80.3822784  25.1842575   3.4470448  58.3743401
  26.0087719   3.1119256  58.7266235  24.8776875   2.7576568  57.7852821
  83.7711563  34.9283752  79.1883392  83.6879730  35.8676796  79.3527145
  84.3005295  34.6037102  79.9167480  22.3881721  66.6753616  27.9115505
  22.7772522  66.9512482  27.0816498  23.1113014  66.7084503  28.5378246
  30.6700344  56.2988472  46.6968384  31.3798351  55.8202515  47.1250458
  30.4311256  56.9830399  47.3221664  45.5637245  49.7139969  15.1203470
  45.3298569  50.5483971  15.5269423  45.1704750  49.0519524  15.6889257
  71.7283096  36.6252060  45.5987320  71.4381104  37.2768936  44.9605179
  72.4782715  37.0321846  46.0325127   6.1250796  56.8684654  56.5650978
   6.8985538  57.4096031  56.4065437   6.1458287  56.6906548  57.5054054
  81.1201248  34.5159302  12.9642544  81.0039597  33.5749435  13.0957336
  82.0218124  34.6863060  13.2365952  83.4535599  15.1466713  15.8329906
  83.7046356  16.0660248  15.7436514  84.1762466  14.6612625  15.4350824
  69.0381470  37.6799965  56.6788025  69.2887878  38.1338158  57.4834518
  68.3556519  37.0670471  56.9521713  42.9365578  30.4164562   3.8577299
  42.8714600  30.9878044   3.0925140  43.8690948  30.2112484   3.9247849
  37.2343521  53.1024399  65.5396500  37.0759659  53.9472084  65.1183243
  37.7385025  52.6045876  64.8960571   4.1204567   1.6263283  51.1474304
   3.5933139   0.8746666  50.8765869   4.5881424   1.8890052  50.3546486
  72.5577011  27.2553329   9.6289062  72.8574448  27.8351765   8.9287863
  72.7660217  26.3749027   9.3163786  57.7762146  54.0521622  30.3703823
  57.6713676  53.1499825  30.0682125  57.7692032  53.9872475  31.3253517
  70.9268188  57.3433533  14.7590590  70.9378510  56.7213898  14.0315466
  70.1124725  57.8329239  14.6432981  51.6978760  25.8954449   5.5171347
  51.1919136  25.2356586   5.0428824  51.5962791  26.6935730   4.9985776
   3.6759911  11.8503017  34.0644073   4.4639282  12.1004391  34.5469208
   3.7869432  10.9151573  33.8928719  24.8508854  69.2284927  68.1927872
  25.5212364  69.7402802  67.7400970  25.2187366  69.0672531  69.0616531
  53.4800262  51.5680428  28.2223034  52.6124001  51.3116150  27.9097328
  53.9567795  50.7426186  28.3095722  75.6442719  26.9293880  40.3729134
  74.8967743  27.5268726  40.3507729  76.4094620  27.5004654  40.3051186
  76.1986542  11.2166948  43.5876236  76.0414581  12.0847912  43.2162361
  76.6396103  11.3884153  44.4196701   2.1748028  14.5267038  40.5093613
   2.7104418  15.0329199  41.1201553   2.6132383  14.6290998  39.6646614
  70.2457962   8.3216524   2.1468973  70.0635605   9.2493086   2.2968159
  71.1981201   8.2509775   2.2125852  21.0263538  11.0847998  15.1855145
  20.9015312  10.7848501  16.0858936  21.8832493  10.7397385  14.9347296
  37.2941742  37.0483093  19.3529682  36.5237160  36.7690163  19.8475590
  37.8210030  36.2543564  19.2617607  40.3452415  67.4062805  31.5768604
  40.8166580  66.5758591  31.6431656  40.3318443  67.7461929  32.4715767
  48.9119797  16.7982845   8.7535009  49.2228775  16.6258030   7.8647799
  49.2140503  17.6861954   8.9448137  64.7016678  43.6521378  77.4216385
  65.1843491  43.0626526  78.0010910  63.8220406  43.2772675  77.3773575
  86.0776672  12.6227646  58.9331512  85.3560638  13.2198677  59.1306038
  86.1106339  12.5948601  57.9769287  23.4308376  23.3414516  15.0369415
  23.4451599  24.2005272  15.4588594  24.1562424  22.8644905  15.4400892
  68.5090179  26.2282944  38.2038040  67.7164764  25.9289227  37.7582893
  68.7772675  25.4833908  38.7417564  18.5200119  49.6562805  21.1689796
  19.1860466  49.0322762  21.4575081  17.6974182  49.3016891  21.5063725
  36.2265282  38.7920609  32.8799934  35.6402702  39.0005836  32.1526337
  36.5711098  37.9243889  32.6687050   3.1801620  15.3303270  19.1715736
   4.1174340  15.4824171  19.0506554   3.1334298  14.6171150  19.8082657
  26.8299904  43.0784912  19.2911797  27.1981163  42.2344360  19.5524998
  26.4463768  43.4313583  20.0940228  25.4951382  37.6645737  73.4609146
  25.7782383  36.8539658  73.8840027  26.2059612  37.8806343  72.8573608
  44.5240173  44.2174873  20.1402187  45.4211082  43.8912811  20.2113056
  43.9919014  43.4308662  20.0205860  19.4596119  10.7668943   0.9622243
  18.6322918  10.3638163   0.6989691  19.2175770  11.3779497   1.6581143
  25.4153042  29.1758614  88.7363434  24.4702244  29.0625629  88.6352615
  25.6563511  28.5663128  89.4338989   5.9822292  34.3159370  68.2030792
   5.9650664  35.1918106  67.8173523   5.5637603  34.4222069  69.0573730
  45.1188660  61.1931839  17.0589733  44.3387833  60.8176422  16.6507206
  45.5352898  61.6980324  16.3604412  49.7367668  63.5616112  77.4337769
  49.6934166  62.8482018  78.0704880  50.4309464  63.3006630  76.8285828
  52.0253220  63.3011513  79.9646988  51.8052368  63.7849884  79.1686478
  52.9186935  63.5751190  80.1722183   3.1851037  21.6924915  74.6088562
   3.0982821  21.9632950  75.5228348   2.8728170  20.7877522  74.5964127
  14.0164480  34.2723045  81.2390366  13.3422003  34.8549767  80.8895874
  14.7693357  34.4045410  80.6629257  32.1156998  54.8149185  20.8990974
  32.8104362  54.9261284  20.2500954  32.0691109  53.8693581  21.0404472
  50.9732399  50.2588768  76.3945084  50.6883507  49.8955536  75.5560150
  50.7689972  51.1920052  76.3329926  42.4278984  61.2124290  21.7873268
  43.2823906  60.8421364  21.5660648  42.0828362  60.6306114  22.4645653
  52.8199883  16.0214424  49.0890579  52.1552887  15.6084785  49.6402969
  53.1101303  16.7819347  49.5927467   2.5955973  49.5115585  19.3629436
   2.7723176  49.9999657  18.5589161   2.1396987  50.1360435  19.9272213
  41.9283142   1.8874859  80.8343353  41.6226463   1.0129986  81.0753098
  41.3393784   2.4831538  81.2975464  56.9230080  55.9436874  79.4062119
  56.7174034  56.4688416  80.1796341  57.8697357  55.8101616  79.4521332
  79.3747482  17.7879658  34.5679283  80.2924576  17.6459637  34.3358192
  79.0855865  18.4888191  33.9836082  65.7122803  61.0928688  34.3360672
  65.5253677  61.4122200  33.4532814  64.8699799  60.7716713  34.6579208
  14.2038240  51.3523712  34.7924156  14.8915634  51.3649902  35.4580612
  13.4266348  51.6803818  35.2447624  74.8163147  13.4292059  21.8995342
  74.4799347  14.1956530  22.3639050  74.9697800  12.7809782  22.5869045
  77.6102600  57.3022881  22.6562786  77.8162308  57.9264450  23.3521500
  77.8146439  56.4467201  23.0337219  45.8975754  50.9318161  12.7928534
  46.6642380  51.4478226  13.0422449  45.6467247  50.4727859  13.5944757
  68.2921448  33.3025703  47.0346260  67.7205124  33.0053062  47.7425117
  68.9061890  33.9022217  47.4584236  49.6607666  35.4208260  37.9840775
  49.4283180  35.0670891  37.1255531  48.9486847  36.0246735  38.1951180
  69.6670914  50.6552887  31.1023560  70.4932709  51.1385727  31.1119366
  68.9982605  51.3211098  31.2622929  77.7612305  16.0536747  39.6854248
  77.6061325  16.2094555  40.6170387  78.0665436  16.8962955  39.3492622
  73.6717834  15.9946766  42.6541824  73.9759140  16.9003544  42.7132263
  72.9570999  16.0230064  42.0180550  69.8409042  29.3524570  17.0040302
  69.4507065  29.8607903  16.2929916  69.5458908  29.7911568  17.8019905
  38.4346313  28.2136612  22.5829372  38.1165733  28.6773796  23.3575573
  38.3607674  28.8526707  21.8741055  62.1758919  67.3258591  37.2919121
  61.3345871  67.6917419  37.0188217  62.8242264  67.9571686  36.9799080
  12.2068329   5.3094153  53.9987259  12.8128052   6.0485973  53.9473457
  12.6255045   4.6201949  53.4830475  44.6285553  30.4805222  22.1474209
  44.1012993  31.2144184  21.8317795  44.2873192  29.7203598  21.6763115
  62.7618484  41.1213112  48.5579948  63.5632591  40.6847878  48.2691727
  62.4378014  40.5768623  49.2754898  77.5655899  69.1534729  27.3380642
  77.2673874  69.7911758  27.9866371  77.0475159  68.3689117  27.5177860
  25.9953556  50.8429184  68.8799362  25.8451958  51.1591949  69.7708054
  26.9475212  50.8461227  68.7819443  33.7073746  41.2810822  31.5873604
  34.3718948  41.3356514  30.9005795  33.5132370  40.3465233  31.6590767
  38.6284828  30.1790791  20.6818047  38.8437653  30.8801136  21.2969742
  38.0945244  30.6046734  20.0109921  73.8545837  10.4263458  45.5791283
  74.3448181  11.0844746  45.0864143  74.2954788   9.6004210  45.3799019
  12.3938122  47.0772209   8.2894230  12.0160675  46.6869392   7.5012465
  11.7975473  46.8209038   8.9929857  83.5232010  56.5324135  25.0413971
  82.6017990  56.2806358  24.9792805  83.6074066  56.9198875  25.9126053
   0.2507792  36.7940941  22.2986221   0.9276766  36.1214104  22.2241745
  -0.0374691  36.9444923  21.3983307   9.6055775  50.6796799  57.8443985
  10.0560017  49.8489571  57.9968872  10.0177259  51.2911530  58.4546928
  75.6031570  53.2080879  85.0356522  76.4595261  53.5017891  85.3464584
  75.4829941  53.6610794  84.2010345  65.5094070  21.8443718  27.4386406
  66.2825470  21.6120052  26.9243526  65.6031342  22.7829933  27.6012325
  67.5524750  17.5185699  72.0555878  68.4006348  17.8847027  71.8049850
  67.7690811  16.7809868  72.6259232  56.0853271  64.9066010  37.7659187
  55.7959251  65.1177979  36.8782921  55.2860260  64.9357986  38.2917519
  39.7593269   5.5922675  59.7899399  40.3196869   5.5781832  60.5658455
  40.2326508   5.0689692  59.1431351  85.2127304  23.1312408  65.6835022
  84.8452530  22.2476425  65.6623840  84.9914703  23.4619179  66.5540924
  61.5451317  10.0905876  14.9131727  61.5207138   9.2166185  15.3028059
  62.3212128  10.0814705  14.3529549   5.3516874  11.5963879  23.9810619
   4.4272032  11.3485460  23.9694366   5.4023747  12.3021088  24.6257477
  46.7052917   3.2085652  62.7276840  47.0287895   4.1034341  62.8315659
  46.4323425   2.9488955  63.6076317  17.7433605  62.7348671  68.0297089
  17.7462368  62.5187798  68.9621887  17.4099770  61.9460564  67.6020813
  20.8450584  47.4095116  56.1456146  20.3246365  48.2020645  56.0142593
  20.4267483  46.7532082  55.5883751   0.8664055  16.7768993   2.2351508
   1.0294622  16.7222443   3.1767755   0.0238595  17.2254868   2.1636147
  44.8112717   5.4651155  75.1585922  44.1700706   4.8631878  74.7807312
  45.6542664   5.0317855  75.0251160  63.8677025  39.9039688  61.3583603
  63.9849205  40.4214592  62.1550369  64.1838684  39.0309906  61.5911217
  56.8328781  69.2447357  38.0886383  56.2005920  68.7481308  38.6080894
  57.4124565  68.5797348  37.7170181  58.4715118  20.7182617  79.3128738
  57.6071396  20.7128220  79.7240524  58.5073967  19.8985558  78.8199005
  82.3801498  24.9003658  60.3381767  83.2604523  24.8307610  59.9687691
  81.9844208  24.0437984  60.1771698  58.3574829   0.8167021  17.4944820
  57.6096764   0.5289725  18.0181503  58.4109383   0.1790091  16.7826366
  14.5151978  52.8656349  24.7644119  14.5174475  53.7441788  25.1443996
  14.5485249  53.0133858  23.8192711  67.8315277  48.6129112  76.9874039
  67.2876129  48.7225037  77.7673950  68.6576157  49.0426064  77.2091675
   9.6625776  54.8915253   0.5549463   9.8955574  54.0888977   1.0215728
   9.3551645  55.4858589   1.2394133  17.3402309  17.1151085  52.8067322
  17.9579258  16.7276669  53.4268723  16.6093655  16.4976063  52.7792320
  45.5120544  18.9250450  71.8835297  44.5687752  19.0060539  71.7424850
  45.8267670  19.8281689  71.9229431  70.2467499   3.3715549  15.7959528
  70.4349213   3.0864177  14.9017954  69.2913895   3.4134929  15.8379221
  38.8757935  32.2856598   5.3631096  38.1412354  32.5848656   5.8989611
  39.3424873  31.6642933   5.9219751  13.1447659  47.0568237  33.8901939
  13.2186003  46.1793175  34.2653770  13.9993753  47.2192421  33.4908257
  13.1009998  19.7768841   1.4953923  12.3476658  20.3337135   1.6920189
  13.4318361  20.1076336   0.6602974  14.1614466  66.2022171  82.0417633
  14.7399282  66.7416840  82.5808105  14.6625118  65.4031677  81.8784103
  51.3232956  27.0133743  83.4165268  51.0916519  26.0947189  83.2799759
  52.0814362  27.1560001  82.8498611   0.9025866  26.8743839  68.5547943
   1.3828371  27.4129963  69.1836700   1.1720030  25.9774532  68.7526779
  56.5435638  48.2718353  82.8179779  56.8458900  47.3979912  83.0654144
  56.9836845  48.4511986  81.9871063  74.2789993  24.3307095  64.8316650
  74.8772507  24.7120762  64.1891022  73.7764053  23.6837845  64.3365631
   8.1180649  18.3129005  14.7536573   7.7901087  19.2086811  14.6745815
   9.0696230  18.4088364  14.7932186  48.0965919  60.5713692   6.9085112
  47.5020714  60.6612549   7.6532903  48.6521149  59.8252449   7.1341858
  49.7091484   0.3840350  25.7459850  50.2882767  -0.2327595  25.2983170
  50.2994232   1.0370023  26.1220684  11.6675224  63.4685898  84.2341690
  11.8223057  64.4098587  84.1548920  10.7732830  63.3452568  83.9158020
  65.0711517  29.5544033  43.4490471  64.7307053  28.6600227  43.4287682
  65.7345886  29.5738354  42.7593346   6.9054465   0.4636479  35.7710152
   6.8806710   0.3385891  34.8223419   7.6879072   0.9938201  35.9223557
  31.5292931  70.0798950  50.2253761  31.0808678  69.2342377  50.2289619
  30.9454021  70.6626740  50.7108307  21.8888893  51.7319412  54.9057999
  22.1135464  52.6167946  54.6180649  22.7321453  51.3199425  55.0939789
  84.3490753  21.6909580  26.7462940  85.2578125  21.9914036  26.7335930
  84.2575607  21.2401791  27.5857296  34.5393524  65.0108261  64.4013138
  34.2016640  64.1240768  64.5272903  34.0635529  65.5413513  65.0403671
  52.5718765  12.8664589  45.9803352  52.6899757  12.4063644  45.1493149
  51.7758255  13.3834524  45.8568535   1.4001409  68.3319092  55.5559616
   1.7119747  69.1938629  55.8316803   0.4520381  68.4350891  55.4741898
  74.0666962  22.8048515  67.0113907  73.2846451  22.2597809  66.9246674
  73.9567413  23.4883900  66.3503952  37.2753410  52.5924911  80.7506409
  36.3252220  52.6448936  80.6468964  37.5773582  52.1373062  79.9646225
  36.9913368  64.0748596  20.5105247  36.1994553  64.6096802  20.5664024
  37.7076225  64.6905212  20.6658268  24.0046177  52.1224251  45.1898232
  24.2157822  52.0655365  44.2579384  23.7226238  51.2386932  45.4258919
  25.9773331  34.1879349  12.2088890  25.6740513  33.3479042  11.8645048
  25.3977909  34.3664703  12.9494877  48.4242096  42.0969925  32.0694275
  47.8594131  42.8302040  31.8252239  48.2190323  41.4137115  31.4312572
  44.5028801  32.9995956  79.0828629  44.9333496  32.1873474  78.8160629
  43.7029228  33.0302544  78.5581207  65.2315750  38.7979355   2.9199009
  65.8434982  38.2069283   2.4811676  65.6967163  39.6332474   2.9659832
  14.4234190  56.9375153  25.3920498  14.5014830  56.1761475  25.9669018
  14.2078733  57.6609306  25.9806423  26.4691372  47.8511086  50.0801125
  25.7106190  47.3116226  49.8568726  27.1222095  47.2269173  50.3965225
  39.0571327  21.4198456  81.9708557  39.1394043  21.6842480  81.0545807
  38.1978798  21.7461948  82.2380829   6.6215687  57.6193314  52.6684494
   6.6595221  58.4174042  52.1413116   7.1005816  56.9695473  52.1540985
  35.7828636  67.5774765  74.3118820  36.2469788  67.0696869  73.6463165
  36.4159241  67.6753082  75.0231476  54.2883720  13.7750673  40.2310333
  53.6974373  13.7110186  40.9813194  53.9419441  13.1453247  39.5988617
  83.0948868  61.9657097   0.5755658  82.7559128  61.1255112   0.2667119
  82.3603516  62.5713921   0.4763495  41.4692574  67.1648102  49.3087692
  42.3364105  67.5501251  49.4345245  41.6445351  66.2623444  49.0422058
  38.8949623  64.0440521  47.5478745  38.2107506  64.1925201  48.2005920
  39.5611305  64.7024765  47.7451744  35.8171616  63.8275185  80.1757202
  34.8872223  63.8866959  79.9567490  36.2680359  63.9443512  79.3394852
  84.3451843  12.1780939  37.6809387  84.9025116  11.9673681  36.9317970
  84.8772888  11.9565573  38.4451485  49.0649071  27.5022278  64.4899673
  49.7455063  27.1677895  65.0740662  48.9884415  26.8371887  63.8057861
  79.1917877  36.7635460  83.1150589  78.4994736  36.8988838  83.7620621
  78.7816238  36.2316513  82.4330902  44.7737389  42.0317039  84.9744034
  45.0814171  42.2581635  85.8520584  44.6822128  41.0790367  84.9910812
  49.1592102  45.7173080  30.3202381  49.1589622  45.4085045  29.4142170
  50.0757904  45.9244995  30.5024090  17.0406628  48.0817451  88.2470703
  17.2954502  47.3491554  88.8079910  16.3551369  48.5332565  88.7394333
   6.7520499  48.7040939   5.4166188   6.0714316  49.1554642   5.9158726
   7.5624218  49.1541939   5.6552348  66.5478897  11.7872019   8.0928249
  66.9367676  12.6614590   8.0667763  65.6056824  11.9457903   8.1504793
   1.6429423  49.3337479  24.5349293   2.5233786  49.7075081  24.5719070
   1.7813171  48.3884888  24.5946770  66.1299820  66.3993988  53.3994408
  65.2435684  66.2033615  53.7028885  66.6513519  65.6477890  53.6813774
  36.2587891  68.4299393  10.9838696  36.9634705  68.2036591  11.5908747
  36.6861229  68.9516144  10.3045530  69.8977051  25.1779270   7.3760371
  69.8522720  24.2320957   7.5159359  70.2555542  25.2725620   6.4933038
  74.4245071  56.5149384   4.9060555  74.2020340  57.4225731   4.6988478
  75.3585510  56.5387459   5.1139364  61.5015564   3.2601676  41.3382950
  60.5980911   3.3688412  41.0413551  61.9658699   2.9204147  40.5733032
  57.0550804  64.2594376  85.8993454  57.1101646  65.1730499  85.6191559
  56.1344986  64.0268631  85.7782288  68.7652206  47.8577728  66.3428116
  68.7281036  48.6111412  66.9321213  68.8631668  47.1036034  66.9240723
  66.9364777  38.4656487  34.6417542  67.2828369  37.6704063  35.0465393
  67.4249191  39.1772957  35.0555344  74.9180145  57.9148598  81.4907150
  74.6593475  57.8183517  80.5741959  75.5603485  57.2195587  81.6327896
  80.7199020  51.0868988  33.7879143  80.7182617  50.7109756  34.6682053
  80.8859177  50.3422813  33.2098007  77.2541504   6.5886602  42.6500702
  76.8759155   5.8975444  42.1064453  76.5613251   7.2455583  42.7187157
  63.9690018  60.2152901  41.5626335  64.5590439  59.8282013  42.2093544
  63.9300270  61.1421623  41.7984657  14.2938251  47.5973816  69.8342285
  14.1556845  48.5436516  69.7927780  15.2454348  47.4943466  69.8416061
  36.2084312  24.8534641  23.7671509  36.7659531  25.5738888  24.0610695
  36.0204964  24.3559761  24.5630264   0.6480633  28.2213497  76.3714218
   1.1266704  28.4896240  77.1557693  -0.2697558  28.2103710  76.6429367
  36.2125244  50.9809456  56.7894974  35.4386177  51.2676125  57.2743912
  36.9475441  51.1912613  57.3654709  33.4399567  14.4491787  77.0029831
  33.2766457  13.7695503  76.3490219  32.6031265  14.5513906  77.4563065
  45.0720329  18.0603275  28.7236214  45.9664650  17.8379421  28.4652271
  44.5189056  17.5049820  28.1741867  79.4566040  41.5234108  41.2969513
  79.4491043  41.4334259  40.3440208  79.1405487  42.4128113  41.4560356
  15.3429041  70.8743744  33.9018784  15.7526979  70.0984039  33.5195465
  15.9707699  71.1784821  34.5572662   0.4113806  26.8294067  36.1073647
   1.0953103  26.6550407  35.4607811   0.5117819  27.7577801  36.3177795
   1.6731186  57.7535019  12.8037109   1.0935156  57.0956497  13.1878004
   1.2552564  57.9860344  11.9745235  44.0213432  43.5293503  61.0354118
  44.4992256  44.2279625  61.4824028  44.4159813  43.4885902  60.1643028
  81.1812592   6.5906291  65.6471710  81.8104782   5.9205284  65.3801804
  81.2419510   7.2609248  64.9665451  55.7541389  53.0477715  47.1931343
  55.5715294  53.0520477  48.1327438  55.6762047  52.1284485  46.9381752
  35.4912872  47.4321823  61.2506409  35.8966331  47.0285378  60.4831772
  35.5876770  46.7790947  61.9437637  44.8520889  15.8892174  77.0346298
  45.6701698  15.3979368  77.1096039  44.4495430  15.5627537  76.2298889
  68.9329453  19.8558559  16.0175571  68.9984512  20.7453384  15.6700487
  69.8054428  19.4836998  15.8891830  43.0233612  47.5140991  19.8266640
  42.5403175  46.8233681  19.3730183  43.0807228  47.2108192  20.7327347
  59.6945953  58.4250641   7.6726599  60.2308426  58.9694481   7.0961924
  60.1555672  57.5869026   7.7076521  41.0444794  47.1602592  24.1941833
  40.5613747  46.3395500  24.0978794  40.3685951  47.8380394  24.1892643
  42.4755096  60.6116562  62.9693298  42.7901459  60.5716476  62.0662041
  42.9858589  61.3154984  63.3698044   9.6536570  64.5979080   5.1990242
   9.3602266  65.3610077   5.6968374   9.9492559  64.9569321   4.3623891
  68.9484940  35.3696404  66.1891632  68.2402344  35.0649376  65.6219177
  69.5780563  35.7722321  65.5910034  43.3859444  47.1717949  82.3274765
  43.2323303  48.1101112  82.2170715  43.3474350  47.0324936  83.2737045
  48.6303406  20.2714348   7.0536246  49.0804977  19.7425117   7.7122822
  49.3355522  20.6716805   6.5449858   9.7135649   9.0658331  56.9552727
   9.9918242   9.7202425  57.5960159  10.0888443   8.2446575  57.2731819
  29.8684464  63.5964355  25.0442791  30.7087231  63.7487335  24.6118774
  29.2775135  64.2396088  24.6526737   8.3534698  67.6788254  48.9065475
   7.8318782  68.2359543  49.4842873   8.3218193  68.1186829  48.0569839
  76.2157135  37.5117683  81.6828995  76.6468506  38.1944389  82.1970062
  75.3848190  37.9034081  81.4137192   1.7992983   7.0461159  80.9019928
   1.5815533   6.1141639  80.8851471   1.9526967   7.2395558  81.8268051
  65.9423141  20.0013981  19.8130970  66.2303085  20.1543579  20.7130394
  65.1221313  19.5162258  19.9032822  36.9664726  56.2337189  73.5098267
  36.6600266  55.3520508  73.7219391  37.4941444  56.1201668  72.7193222
  29.6837959  68.7081223  53.2478218  29.3255997  68.7921371  54.1314888
  29.2565651  69.4044495  52.7489929   1.2924981  17.5103760  28.0883560
   2.1536436  17.1341362  28.2702999   0.9167705  17.6777267  28.9526787
  13.8361940  61.4329948  22.7700176  14.4528265  61.0582542  23.3989582
  13.2968235  60.6923370  22.4930077  43.2351494  31.2609406  28.8509083
  42.8904877  30.7692509  29.5963478  43.8202095  30.6460876  28.4083099
  58.3825035  15.4132347  21.9127941  58.0193939  14.7606411  22.5115490
  59.3275642  15.3731985  22.0593834  52.1143341  57.5484276  19.5471859
  51.9092712  58.3163300  19.0137920  52.2978668  56.8570709  18.9111271
  49.7214355   4.5530429  46.9303589  50.1376266   5.2895279  46.4824677
  50.3524208   3.8375351  46.8520126  38.0809326  70.9491653  16.9200478
  37.7597961  71.1236572  16.0353680  37.6396294  70.1404800  17.1798859
  61.2335129   6.9525228  48.2535477  61.6619415   6.9868116  47.3982658
  61.7623253   6.3375177  48.7618370   3.6600659  30.4272690  11.0829124
   4.1427093  31.2419357  11.2229319   3.1061311  30.6046848  10.3227081
  62.2330475  52.1587830  70.1373062  62.7700157  51.5001450  70.5778656
  61.4189644  52.1796570  70.6403580  27.4968815  43.5109367  29.6263885
  26.8679523  42.7929306  29.5546360  27.3131809  44.0668259  28.8691101
  48.2815323  69.7202606  30.3034573  48.2093506  68.9144745  29.7918549
  48.8414040  70.2896957  29.7757130  54.7505684  38.2076263  25.9038887
  54.3196144  38.6510468  25.1732121  55.3342705  38.8693199  26.2749443
  27.5095539  43.9902573   4.2731457  28.4038010  43.7460823   4.0345411
  26.9598045  43.5477448   3.6264706  28.9258060  61.1011848  43.4301682
  28.3723602  60.4795380  43.9029083  29.7084904  60.5996246  43.2019691
  62.3556824  62.2346725  87.8752975  62.7770309  62.0486870  88.7144089
  61.4181252  62.1894493  88.0628357   4.7288418  39.3009834  19.2573261
   5.2011967  38.5332146  19.5792599   4.8642659  39.9659615  19.9323807
  45.6476898  34.1602287  36.4487877  45.6269875  33.8166618  37.3419647
  45.4468880  35.0911179  36.5455284  63.0293388  19.6858597  59.8243599
  63.2758102  18.9295330  60.3567657  63.6068878  19.6407986  59.0623627
   5.6937547   8.2139292  60.9070511   6.6132030   8.1648045  60.6454544
   5.2096286   7.9116530  60.1386223  66.9317932  18.5110092  83.7128525
  67.7271729  19.0385284  83.7857895  66.3456726  19.0355625  83.1673737
  80.4746628  19.3450031   6.6492782  79.5570984  19.3563766   6.9216561
  80.8206863  20.1894855   6.9379764  40.4422226  31.6085625  47.6235237
  40.7231865  31.3693771  46.7402992  41.1874504  32.0833168  47.9915924
  82.7679291  16.5232925  29.8450089  83.3122177  16.0093727  30.4415550
  83.2955322  16.6061001  29.0506477  57.8021927  48.0844727  64.5761490
  56.9426003  48.4960136  64.4868622  58.0025101  48.1483994  65.5099640
  65.7821884  22.4148273  57.4684296  65.7838821  22.9705753  56.6890869
  65.5270309  23.0015144  58.1804123  36.9854164  62.5316124  65.1889648
  37.7620468  62.2852592  64.6865845  36.4288979  62.9906960  64.5598679
  64.7568207  42.4803429   9.3078394  64.7796783  41.7119789   8.7374659
  64.9470901  43.2162514   8.7260580  18.9441013  64.3422852  23.9233780
  19.4079933  64.1149139  23.1175632  19.3725986  65.1418076  24.2289715
  67.9829788  63.3312912  17.4048290  68.8228226  63.1961479  16.9659443
  67.4581223  62.5700645  17.1572437  55.9982071  32.2767982  61.1692009
  56.5920525  31.5706635  61.4240532  55.4046135  32.3711357  61.9141693
  80.3620224  60.7047806  50.5912209  79.6361008  60.1352921  50.3363609
  80.1859055  60.9221802  51.5066185   7.1638923   3.9360571  39.6926613
   7.7968626   3.9925332  38.9768486   6.7898202   3.0585918  39.6129341
  52.4961014   2.7005022  41.5422134  52.3243256   3.5579665  41.9314156
  53.3187675   2.8139932  41.0662117  42.7746964  70.8055344  60.6522942
  43.2688141  71.3719177  60.0595970  43.3721695  70.0835648  60.8472824
  50.2134819   7.4950862  62.9313812  50.4880791   7.3602695  63.8383827
  50.2487869   8.4437656  62.8089371  50.0048790  51.8039703  58.8484116
  50.6993675  51.6593018  58.2057724  49.3835068  51.0924683  58.6938210
  62.1996422  43.2027130  36.6241112  61.9918633  42.2812347  36.7788200
  62.8355484  43.1880302  35.9088211  37.3650246  25.4165821  10.1502295
  37.0782661  25.9337177  10.9029388  37.1569328  25.9620037   9.3916492
  27.5838184  61.7513237   1.5262485  27.5302391  62.6217537   1.9208533
  27.5829010  61.9153976   0.5832158  32.5162125  68.7806320  40.8278809
  31.8127594  68.1777191  40.5873032  33.1753769  68.6648788  40.1435318
  59.9160080  11.5873661  68.9590378  60.2433701  11.8694448  69.8131409
  59.8142548  12.3988199  68.4616241   1.6653650  64.7021942   8.5708752
   1.9452926  64.4542999   9.4520206   1.9673362  63.9853249   8.0130749
  61.0266991  67.3442154  11.3151588  60.2509308  66.8707275  11.0147886
  60.7227097  67.8471680  12.0707130  73.1091309  26.7496395  77.1976471
  73.5146713  26.1011944  77.7732239  73.4048309  27.5928230  77.5409241
  34.2272034   4.8116093  66.4944839  33.7677612   4.6192932  67.3118973
  34.0807610   4.0382705  65.9497528  68.0868073  45.3498077   5.4047904
  67.9793854  46.2115517   5.0021844  69.0344925  45.2339745   5.4734216
  15.6262493   8.1299381  81.6008987  16.1974297   8.5689116  82.2312012
  14.7396879   8.3429432  81.8922195  69.4914856  28.0319424  61.8603477
  69.3912354  27.8227768  62.7890205  70.4324036  28.1645184  61.7449074
  12.8494310  13.5781479   7.6029906  13.5910435  13.2934294   7.0689702
  13.2405910  13.8375340   8.4372234  63.4278297  61.4200592  58.0399055
  64.3475418  61.2556686  58.2480888  63.4034004  62.3386650  57.7719536
  15.2901583  25.3878441   3.8935142  15.0709238  24.6159363   4.4153633
  15.2615566  26.1140785   4.5164070  38.8782997  35.4186974  85.3593979
  38.5626526  35.3645592  84.4573593  39.3036118  36.2745209  85.4133606
  72.5987244  56.6200294  58.3958168  73.3017578  56.6641083  59.0439110
  73.0174484  56.2642174  57.6120453  22.0010891  58.4978104  23.3429699
  22.2568607  57.7324905  22.8280926  21.3885689  58.9713402  22.7801037
  82.7012939   5.9886169  50.3023872  83.2721558   5.7320166  51.0266113
  81.8335190   6.0689230  50.6983032  72.5942535  38.9091301  78.9295349
  72.7002182  37.9595375  78.9868240  71.6489716  39.0406609  78.8563004
   1.7050745  27.7726192  49.3373756   1.8386939  27.6903763  48.3931236
   0.8297258  28.1502361  49.4234123  58.6247101  71.7231445  57.9829903
  58.9679680  70.8307800  58.0287437  59.2787170  72.2548828  58.4365883
  66.8237000  56.2857895  15.5226641  67.0129395  55.5632591  16.1213036
  66.1520233  56.7991447  15.9716101  75.2219009  16.9029369  70.6249542
  74.9832993  16.0927963  70.1744308  75.8218460  17.3437977  70.0233459
  37.0673676  36.6716614   3.6561418  36.7796097  36.2992210   2.8226459
  37.2934875  37.5781975   3.4480581   2.9621742  52.4944344   9.7194271
   2.6911232  51.5907516   9.8810425   3.8478456  52.4189682   9.3642893
  66.8675995   2.9644480  29.3963814  66.9618683   3.0429153  30.3456917
  65.9402618   3.1362176  29.2327633  42.9777565  36.9260063  84.4852142
  42.8222427  36.5135384  83.6355591  42.6633301  36.2856712  85.1234436
  75.6843872  59.5261002  62.5546227  75.1041946  60.2735710  62.6991730
  76.4954224  59.9127541  62.2245483  85.9029541  18.6391811  30.2532825
  86.3221436  19.3051167  30.7982998  86.2152481  17.8072109  30.6089954
  49.1037750  44.6538506  16.0114441  49.6914139  44.7067451  16.7651787
  48.6712952  45.5073547  15.9845572  30.6954803  25.5052853  78.3331757
  30.3211021  26.1584949  78.9242630  31.6401443  25.6518822  78.3816299
  52.0988693  32.0589027  77.3871307  51.9285202  31.1704540  77.0742874
  51.4401703  32.5975990  76.9487762  25.3607445  56.3111801  79.0381012
  24.4038010  56.3202171  79.0583801  25.6208706  56.9023933  79.7445297
  46.8549728   6.8381510  18.4517899  47.2815704   6.8334908  19.3086586
  46.2932014   6.0631800  18.4597015  61.9769516  34.4883728  45.3153229
  62.1459961  33.6757431  45.7920685  62.2277832  34.2929993  44.4124680
  37.4244614  43.1352730  10.1829557  37.2620277  43.8048477   9.5184870
  37.5356865  42.3255119   9.6848125  67.2966385  45.0311279  24.5333939
  67.7835388  45.8536224  24.4818039  66.4004517  45.2959175  24.7406635
  72.9702072  24.2355938  71.2833023  72.8828125  25.0629139  71.7567291
  72.0781250  24.0197411  71.0115738  65.9680710  26.7807121  82.7496796
  65.8806534  27.4900074  82.1128998  66.5818558  27.1186275  83.4018402
  39.1764526   2.5697668  75.1402740  39.9985657   2.3361025  74.7092667
  39.4330139   2.8126583  76.0298920  21.9294472   4.6332846  27.2076321
  21.2211990   4.0215292  27.4085579  21.5969696   5.4855113  27.4894104
  36.6589622  58.5873413  65.5885010  36.0570259  58.6356506  66.3311844
  36.1084938  58.3248100  64.8507385  35.9812126  55.2280426   8.1999397
  35.0554352  55.4458809   8.0916967  35.9918251  54.5625076   8.8878212
   4.5530262  71.1263275  31.9828739   5.1541233  71.3964539  32.6770973
   4.5663452  71.8519592  31.3587570  76.1204300  32.2005920   1.8371565
  76.1636124  33.0611763   1.4203084  76.7893829  31.6833553   1.3885969
   8.1808367  32.9734421  82.9099274   7.3021998  33.2021599  83.2131042
   8.0332270  32.3780861  82.1750870   7.6398416  68.2101898  25.3589706
   7.2598119  67.8178864  26.1450424   7.5192647  67.5478897  24.6784935
  68.3361740  22.7663193  43.3962669  68.0125809  21.8665237  43.4397202
  68.1303864  23.0521336  42.5062141  32.8512192  48.8413544  76.9352036
  32.0166893  48.4819412  76.6341858  33.3096733  48.0936394  77.3185806
  67.9300995   3.7996626  34.3704262  68.0072632   4.7504344  34.4498634
  67.2797089   3.5562758  35.0292091  25.8367691  56.8198853  63.2565269
  25.6262035  57.6751022  63.6313591  26.0564060  56.2747536  64.0120544
  59.0031509  37.8022423  57.3025932  58.9467773  38.7540512  57.2182655
  58.1207733  37.5315933  57.5563431  68.2382965  50.5538483  82.5179291
  68.9618759  50.0090485  82.2083206  68.6372757  51.1382294  83.1625519
  21.7895203  61.8827591  81.8893890  20.8582916  61.9090118  81.6694946
  21.8391857  62.2618637  82.7669067  48.3393021  24.5429726  15.2107410
  48.6814232  25.0513477  14.4753914  47.6764679  23.9733562  14.8203306
  55.5351562  30.2211380   2.2214026  55.3571129  30.5870552   3.0877955
  56.4636841  30.3995285   2.0722592  61.0139885   3.4951994  11.7768793
  60.1686935   3.9400108  11.7148333  61.6596756   4.1862097  11.6291447
  63.1990356  58.5792542  16.1699944  63.3023338  57.6315460  16.2560730
  63.8565559  58.8340416  15.5227051  61.9388771  51.2307091  48.4876404
  61.9814491  50.9982300  47.5600777  61.0406761  51.5351067  48.6172867
  17.8729744  34.4632874  75.4735565  17.6767292  33.5297050  75.3951721
  18.6816845  34.5807076  74.9751282  11.1358280  33.8869820  17.6799030
  11.7383289  33.4482689  17.0792751  11.3316736  34.8183479  17.5777683
  65.8810730  58.4842873  43.2050781  65.3455200  57.7366562  43.4705276
  66.7829514  58.1907463  43.3342247  64.1271744  22.8870239  16.5097218
  63.3688393  22.3031654  16.5261726  63.9283867  23.5563297  17.1645069
  11.4989262  31.1073780  86.8844910  11.0599594  31.3202248  86.0609360
  11.3510265  31.8730297  87.4395905  55.9723320  45.9449501  77.1487732
  55.9083900  45.2773094  76.4658356  56.2926674  46.7235336  76.6933365
  75.5205002  62.5252571  62.2954140  75.5178070  63.4634895  62.1058197
  75.0412903  62.4462051  63.1202393  38.2892838   8.8525381  18.3504410
  38.0667763   9.4748316  19.0428810  37.5504837   8.8954830  17.7433491
   2.8612001  25.3666744  61.7983208   3.4528635  25.5241070  62.5341072
   2.7436450  26.2277088  61.3970299  60.1585159   4.3205400  78.4875336
  59.6162758   4.8408632  77.8946838  60.8556252   3.9727333  77.9313812
  54.8079758  18.1501560  50.3089981  55.3987274  18.2881241  51.0494080
  55.3669014  17.7897415  49.6205673  53.4334908  49.7611771  80.3229446
  53.8631401  50.0207596  81.1379623  52.9961052  48.9365463  80.5348663
  29.8143787  43.1364136   2.8760226  30.6428089  43.2586250   2.4123409
  29.3362389  42.4972572   2.3477345  75.7286377  57.9374657  10.9645224
  76.5423660  57.8107300  11.4523926  75.1208649  58.3078804  11.6045465
  66.8449631  30.7280617  82.7974167  67.4324570  30.2459965  83.3793945
  66.3089676  30.0512962  82.3839722  32.3384056  63.9784317  17.6064816
  33.1219139  64.4807892  17.3829117  32.6274261  63.3765411  18.2923584
   6.2534099  27.9871216  74.3811722   6.0186458  28.8943996  74.5760193
   7.0310516  27.8212070  74.9140701  84.2303467  29.3639069  73.0062256
  84.6722183  28.5183258  73.0834885  83.9322739  29.3962193  72.0971909
  84.6523438  65.5225830  25.1735477  84.0578003  65.0728683  25.7739716
  85.4189377  65.7315521  25.7073116   3.3408296  47.8341141  54.0004501
   3.6589968  48.4693832  54.6418800   4.1278815  47.3747635  53.7075653
  37.6353340  41.7932014  37.1821480  37.1271248  41.0191345  37.4245872
  38.3330040  41.8361473  37.8360901   4.1346388  46.0231171  64.7186203
   3.8895078  46.6348343  65.4128418   4.9584770  46.3685913  64.3748627
  83.9151230  21.3181190  13.4147015  84.7469482  20.8599567  13.5346622
  83.4770126  21.2451077  14.2626190  72.4135284  35.1159363  81.2654419
  71.8109512  34.4626503  80.9099808  73.0497131  34.6067810  81.7676926
  57.6567192  26.8131371  42.4140282  58.4439011  26.5443039  42.8876381
  57.8291931  26.5689774  41.5047035  45.6581192  10.1120329  -0.1314173
  45.0346069  10.2691269   0.5776558  46.4096794   9.7022591   0.2969186
  58.3563118  14.3132229  88.8351135  58.1939659  13.4238071  88.5207672
  58.3357086  14.2375774  89.7891006  82.5272522  53.4654083  14.7135210
  83.2586823  52.8618660  14.8438091  82.7349777  54.2168846  15.2688265
  61.9242592  60.0916405  12.5784044  61.3421211  59.3698769  12.8158960
  61.7955208  60.7406998  13.2700548  75.4192200  67.2039261  49.1692505
  75.9098206  67.9929199  48.9389763  75.7191315  66.9843063  50.0513268
  11.8334961  56.7452202  45.2238503  12.6272459  57.1250000  45.6006241
  11.1402493  57.3648338  45.4512711   2.5892689  68.8577118  70.4652634
   2.1435714  69.5942383  70.0467987   3.0706770  68.4340210  69.7546616
  12.4606676   6.6041818  34.5588379  11.9726839   6.5959220  35.3822670
  13.0386953   5.8433113  34.6153374  16.5372543   0.9401488  18.1527843
  16.2229156   1.8353155  18.2796669  16.5242023   0.5552471  19.0290890
  53.0271225  27.3409100  35.1400757  53.3470421  26.7332916  34.4732285
  53.4354439  27.0416489  35.9524498  76.6401672  22.7579517  12.3318472
  75.8209763  22.4255848  12.6988506  77.3096695  22.4949341  12.9633684
  27.8774223   1.9955713  32.3009148  27.5004005   2.4901264  31.5732460
  27.3359432   2.2287531  33.0550117  56.9973145  31.0563164  65.9311600
  57.0849037  30.1891708  66.3269119  57.8526955  31.4660435  66.0603027
  11.0644913  68.4259109  85.9285889  11.4555788  67.6517105  85.5237427
  10.4363308  68.0746994  86.5597000  48.6116905  49.3713379  11.4406290
  49.1985741  48.6184731  11.5113010  48.8362236  49.9213409  12.1911745
  30.3035583   7.6625609  22.8296947  30.2082882   8.1145544  23.6680603
  30.1331158   6.7428036  23.0327396  14.6062384  52.2175827  83.6742554
  13.7761612  51.7479172  83.7556076  15.2745600  51.5349846  83.7345505
   2.9944656  58.1584396  41.0060158   2.0519075  58.2287216  41.1572647
   3.1888802  57.2298737  41.1332893  46.5944710  45.5221558  81.7635574
  45.9108162  45.0691872  82.2571869  47.4042587  45.0758171  82.0110550
  53.5254555  58.6007652  13.6477480  53.0543823  59.1191711  12.9953852
  54.4479370  58.8068810  13.4968414  54.8725929  14.9382658  66.0979462
  55.3297195  15.7674637  66.2382965  54.9758644  14.4651070  66.9235916
  52.8514366  57.2185898  52.1302338  51.9517288  57.1229897  51.8177986
  52.7655830  57.3306694  53.0769653  17.3182831   5.3773060  15.6906748
  16.5052795   5.7839375  15.9905214  17.0877285   4.4597292  15.5453129
  79.8931274  11.0269003  32.0433388  79.1886292  11.0132160  31.3954754
  79.6079483  11.6686563  32.6937637  50.3382149  57.8591194   3.5993130
  50.2454796  57.2121315   4.2986279  50.9940453  58.4742470   3.9275465
  52.1581764   4.0730267  55.9051666  51.8205299   3.1861982  56.0307083
  53.0584068   3.9463763  55.6055374  15.0145512  12.4930220  27.1567364
  14.9220972  13.4338074  27.3070927  15.3610544  12.1516294  27.9811249
  86.2089539  34.8469124  48.7176056  86.7597580  34.1510124  49.0761642
  85.4684830  34.9015388  49.3217201  57.3884087  42.8251190  23.2796555
  57.5989227  42.5215454  22.3966160  57.3555794  42.0263405  23.8060627
  46.4718933  16.7199364  37.4060707  47.0094223  16.1243496  36.8839874
  45.5804749  16.5805569  37.0864143  66.1781235  19.4529610  60.7982521
  66.2963104  18.5053024  60.8631058  66.2322922  19.7634907  61.7020607
  67.6128922  14.2462664  62.1987076  66.6781082  14.4211855  62.0900536
  67.6857605  13.8698120  63.0757484  26.1283894  58.5939140  42.2304268
  26.1992092  58.3660316  41.3034477  25.2511120  58.9663963  42.3191566
  19.6171951  63.0021248  84.0520325  19.5568562  62.6547585  83.1621323
  20.0891705  63.8291779  83.9548264  70.0206833  42.5443535  13.3012657
  69.3257294  42.8187904  12.7029705  70.0570450  41.5926323  13.2056656
  70.7207031  18.3393764  50.3911934  71.3806152  18.0563126  49.7582474
  69.8966446  17.9925232  50.0493584  20.5917015  67.3908844  48.6106873
  20.3216591  67.2606049  49.5197182  19.8924274  67.9197388  48.2265472
  81.1544647  14.2657099  39.4291420  80.2926865  13.9704857  39.1351738
  80.9785004  14.7567921  40.2317009  37.2100563  18.1428490  13.8173494
  37.4780655  18.4833126  14.6708641  36.8677483  18.9059658  13.3518267
  14.6354132  21.7073345  88.7564545  14.1679306  22.4552727  89.1283112
  15.5572271  21.9638348  88.7828674  81.4489670  36.4827766  40.8859367
  82.0697479  36.9376831  41.4550743  81.0001144  37.1833725  40.4127235
  23.0076122  69.5481262  65.9460449  22.2733135  69.9789352  66.3835831
  23.6799259  69.4740219  66.6233444  12.1031094   1.3741025  79.2836456
  11.8304043   0.6667137  78.6992950  12.7476215   1.8682358  78.7770233
  62.0191956  42.5404663   1.7144964  62.0906487  42.6384239   0.7650071
  62.5309601  41.7564430   1.9135787  76.7382965  68.8869019  68.4362793
  76.3311157  68.7685471  69.2944336  76.4907990  69.7735672  68.1739807
  29.4853840  69.1031494  15.4904003  28.7727928  68.5295410  15.2085991
  29.6736488  68.8281326  16.3877029  66.2040558  25.2805328   2.4874935
  65.3816071  25.3059692   2.9765344  66.7225723  24.6058140   2.9258120
  20.5846653  63.4306526  22.0023880  21.5068359  63.4067307  21.7469254
  20.1518669  62.8321381  21.3935375  16.1782303  58.3796501  38.4293327
  15.8444881  58.7395439  37.6075516  15.7664404  58.9130478  39.1091461
  46.0805550  65.2171249  24.6733551  46.2600021  65.7141266  25.4714909
  45.7522888  64.3737488  24.9850903  74.8071365  37.8219948  31.8806705
  75.0220337  38.6973190  32.2029343  74.8911285  37.8896217  30.9295654
  51.0172501  62.0740204   9.4485540  50.0771942  62.1828041   9.5923986
  51.1066017  61.1818962   9.1133442  31.2250862  26.9303837  20.0683155
  32.0676537  27.2889652  19.7895126  30.6056862  27.2285557  19.4022293
  28.4902439  64.0603485  11.6602917  29.0096931  63.9043617  12.4490070
  27.6611576  64.4115524  11.9851122  20.0419426  60.7734261  29.4283695
  20.9330788  60.5979958  29.7305756  20.1443806  61.4531746  28.7622738
  38.9234352  48.9510460  35.6666641  38.8013268  48.9879341  34.7180023
  39.4437523  48.1606140  35.8106232   5.5306368  14.8161478  73.7117844
   5.4029465  13.8708200  73.6325302   4.8789792  15.0926733  74.3560715
  53.8723030  56.3076973  56.7334862  54.1370392  56.7158089  55.9091110
  54.6882057  56.2071228  57.2238121  57.4087715  13.7399273  24.1830654
  56.8797417  14.3790684  24.6604099  58.1293411  13.5331373  24.7782516
   7.1918712  57.1281738  63.5742378   6.7349243  56.2896271  63.6395950
   7.4483871  57.3318977  64.4736404  72.6739655   4.0908689  82.5322571
  71.9215164   3.9484386  83.1064987  72.8680725   5.0241728  82.6188507
  44.1768570  48.2290993  88.3267899  43.2620430  48.0101891  88.5040512
  44.6460686  47.4015808  88.4330292  75.0790482  30.2291794  74.7842484
  75.4068375  30.5148258  73.9314957  74.1498032  30.4585476  74.7727356
   8.2678251  56.6921616  72.7193069   7.5397921  57.1254959  73.1647491
   7.8517547  56.0241089  72.1744919  71.9592133  42.3856163  66.7925110
  72.8153610  42.2934151  67.2105331  72.1593781  42.5711899  65.8750534
  14.6598473  65.4092407  85.5405731  13.9951687  65.6677017  86.1790314
  14.8903675  64.5127792  85.7843857   1.1621678  53.0936890  70.8455658
   0.6429460  52.5421791  71.4307785   1.6985835  53.6268997  71.4322357
  17.0238228   8.6081734   7.2552142  17.5144825   8.0409117   6.6604881
  17.5267124   9.4222755   7.2790895  68.1985092  67.5692902  20.0200367
  69.1464386  67.5047989  19.9038582  67.8636932  66.7197113  19.7330837
   0.6649984  26.0364876  74.8721237   0.7099417  26.7924118  75.4576035
  -0.2009965  26.0970249  74.4688644   6.2056212  30.2979794  80.8883667
   6.3574486  30.1404266  79.9565125   7.0807939  30.4200191  81.2563553
  37.7789001  21.4964046  76.7735214  37.2632866  20.7592678  76.4464111
  38.0334129  21.9785290  75.9867477  67.3747559  52.0939178  45.0668335
  66.8083496  52.2859573  45.8141861  68.0705185  52.7492256  45.1189957
  82.8552170  11.8266830  25.9866447  81.9710159  11.8070726  25.6205463
  82.7867432  12.4036255  26.7473545  18.6570492   5.4889579  77.7902222
  17.8619709   5.9740744  77.5694427  18.6273365   5.4012551  78.7429352
   1.1574864  46.3044510  37.4398460   0.5704654  45.9848709  38.1250534
   1.9305748  45.7439423  37.5061493  30.1986828  40.4940529  18.1727829
  29.8872871  41.2464676  17.6696529  29.6023293  40.4420013  18.9197006
   8.2423296  57.6376991  35.4721565   8.9324846  57.4395828  36.1051407
   8.3529301  56.9815903  34.7840271  12.3444147  15.4225941  68.3406906
  13.2190495  15.3095446  67.9685822  12.4381113  16.1497021  68.9561310
  81.3769455  31.4302864  12.8156729  80.4221115  31.3723049  12.7817497
  81.6421967  30.6938553  13.3666229   4.0251093  61.0901451  17.0366402
   3.8722498  60.2511902  16.6018810   3.6805921  60.9677620  17.9212646
  44.9234009  17.3322029  83.4230347  45.7751389  17.7327480  83.5972214
  44.8069038  17.4189777  82.4769211  43.8205414  71.3891373  32.4141731
  44.0221062  72.2410965  32.0271835  44.2755737  70.7587509  31.8557930
   9.1525335  28.3453598   5.3867478   9.9463749  28.6629391   4.9564095
   9.1349869  27.4076958   5.1951504  69.0727463  66.4194565  15.3188257
  70.0058975  66.3953323  15.5306749  69.0134583  66.0176468  14.4520674
  57.2346115  51.5467377  77.0255585  56.9762115  52.4530678  77.1929550
  56.4081573  51.0831146  76.8904190  71.1658707  56.2145081  47.6784401
  70.6819153  56.8756638  48.1733017  71.3165665  56.6179047  46.8235741
  65.4097824  29.1565876  80.9830704  65.8364563  29.4904881  80.1939621
  64.4875259  29.0746250  80.7402573  43.5193520  11.1723242  71.7746658
  43.3313599  10.4251919  71.2066116  43.8897133  11.8319206  71.1881561
  34.8590546  66.2739792  83.7011108  35.3803635  65.5201569  83.4250488
  34.6561852  66.7357483  82.8875656  15.8741446  57.1039543  63.0846786
  16.7575779  56.7600822  63.2170830  16.0082664  57.9533386  62.6642189
  39.7370872   2.6493838  77.7681046  40.4816971   3.2157197  77.9707260
  39.3633232   2.4305894  78.6217194  23.8557396  27.2526588  25.8899422
  24.0463943  26.3197975  25.7916927  24.7101746  27.6796112  25.8275967
  66.5871277  57.7668915  63.3361549  67.1823044  57.6791840  64.0806656
  65.7646942  57.3832016  63.6404915  69.2306061  60.8644333   5.2323327
  68.8789825  60.3034210   5.9236083  69.9228363  61.3675995   5.6611381
   3.2365785  16.3278942  57.1140251   3.5437346  16.4902020  58.0059586
   3.1580896  17.1991558  56.7254715   8.9115686  54.5066833  21.9414024
   9.7176809  54.3567886  22.4353104   8.4505358  53.6685143  21.9753056
  78.5472336  49.1185112   4.6831942  78.2828140  50.0283546   4.5471740
  77.8610611  48.6036377   4.2585783  43.3126488  15.7984123  74.2094650
  42.9977188  14.9013405  74.0984955  43.9221802  15.9298334  73.4832230
  36.1921883  29.6600494  72.9647446  36.3833389  29.4552307  72.0494614
  37.0108223  30.0205212  73.3055267  77.9497223  60.3291245  37.5298576
  77.5621567  59.9113541  36.7607727  77.5181351  61.1818962  37.5822144
  26.3571815  53.0160942  84.7897110  25.9893246  53.7244110  85.3181076
  27.2515125  53.2990685  84.5991135  81.3307037  28.8730488   6.6690102
  80.6809540  28.1899738   6.8347344  81.0706940  29.5948715   7.2413716
  39.8641319  28.3996296  28.1018963  39.9684105  29.0290661  27.3883381
  38.9185410  28.2661152  28.1672230  45.2943611  32.4850197  10.3204021
  44.7339096  33.2331429  10.1144056  44.8574142  31.7384129   9.9106636
   3.4811423  15.0483389  15.8120880   3.7580466  15.0477657  16.7283611
   3.9482718  14.3104496  15.4202461  56.2818756   6.7637444  55.6260910
  55.7437592   6.6916761  54.8377609  55.9759064   6.0538998  56.1906586
  13.7981949  14.0375404   0.9023154  12.9519367  13.6108437   0.7681224
  13.8640423  14.6694107   0.1863295  77.4319992  35.6542778   4.8291698
  78.0259628  35.7096405   4.0805888  77.8244247  34.9917908   5.3978047
   7.9767056  68.3165207  17.4617290   7.0890832  68.0080414  17.2795353
   8.4530706  68.1718826  16.6441803  66.1455231  13.8018398  67.3504181
  66.8792038  14.2614594  67.7586975  65.8142319  13.2224073  68.0365219
  39.8788872  46.3466530  88.3111267  39.1768913  46.2269173  88.9507370
  40.3398705  45.5078201  88.3016052  83.5905685  62.6016579  66.4798660
  82.8147354  62.0824738  66.6914291  83.2419052  63.4255447  66.1394653
  75.6254425  60.4274635  54.4862556  75.1193237  60.2898979  53.6855354
  76.3279343  59.7789307  54.4399643  81.2286758  14.6157246  14.2472305
  80.6625519  14.0368071  14.7577162  81.9756699  14.7869711  14.8207340
  62.5583076  58.3271294  76.6497726  62.1274719  58.5739365  77.4681244
  63.0994301  59.0843620  76.4261246  37.4092674  13.3313837  24.6890087
  37.5686951  13.9854565  24.0085659  38.1752472  13.3883781  25.2601948
   4.1829429  32.2329330  29.8624306   4.6270690  31.4624214  30.2164021
   4.1872830  32.8637199  30.5823746  41.6978531  46.7205086  34.5072556
  41.4619331  46.0746918  33.8413048  41.7826843  46.2125206  35.3140907
  69.6917801  11.6558037  66.1841965  69.5234528  11.4145432  67.0950699
  70.2408752  12.4377832  66.2410965  51.6340904  66.7049561  67.1889954
  50.7192955  66.6931915  67.4704971  51.5949745  66.5719147  66.2418976
  81.0377274  15.0290518  70.1013031  81.9154968  15.3169689  70.3520279
  80.9679260  14.1408520  70.4512482  65.4101562  26.1563492  75.0822678
  65.9500198  25.3946552  75.2934570  64.5227737  25.8972359  75.3305740
  83.2455292   5.8772349  35.5427513  83.1156311   5.1642861  36.1681023
  83.5695496   5.4461212  34.7519417  53.5571823  32.1725769  85.5390549
  53.2523880  32.7927055  84.8766556  52.7624474  31.9057293  86.0010300
   4.1513739  43.4512100  18.5047474   4.8371139  43.8883629  17.9998817
   3.7060044  42.8911476  17.8689728  77.2529984  33.7175941  73.4814224
  76.3632965  34.0635948  73.4110107  77.2021027  32.8448067  73.0916977
   6.8738122   8.3575010  27.1658974   7.5435953   8.8432636  27.6472054
   6.0771308   8.8769798  27.2739372  38.4581833  67.4737167  84.2718735
  37.6347961  67.9618378  84.2710571  38.5776978  67.2071686  85.1834106
  70.8399506  57.5646706  41.5799141  70.5743790  58.4842529  41.5887260
  71.6979980  57.5672226  41.1556778  74.7473907  19.0472603  31.9269123
  74.5292282  19.9589043  31.7331600  74.1860580  18.5373211  31.3428745
  40.8143044  61.2370300   8.5356617  41.4000206  61.9470711   8.2729588
  40.9989624  60.5321655   7.9149375  86.0592957  59.7196236  40.3388290
  86.3196716  58.9871330  40.8973045  85.8138962  59.3120918  39.5082130
   8.0899973  60.4512787  19.9035072   8.5553589  60.3237877  20.7301979
   7.6688085  61.3059387  19.9950848  49.5687714  46.8330956  26.3946209
  49.2604561  46.0554276  26.8598175  50.0102081  46.4885139  25.6183300
   2.8960145  41.3237190  45.9430656   3.0746126  40.5243988  45.4476700
   3.2690330  42.0249596  45.4088821  76.4084702  38.9748230  26.6866016
  77.2346344  38.5391045  26.4772263  76.6399994  39.8998337  26.7701607
   3.2821898  13.0333071  79.7799759   3.0988886  12.9664946  78.8428726
   2.7700474  13.7877884  80.0710068   3.8724301  30.7311668  82.4686279
   4.3985691  30.0804462  82.0038986   3.0070622  30.3292503  82.5449982
  74.6829910   3.8141654   6.5236454  74.3892517   3.3760872   5.7248721
  75.6334686   3.8746762   6.4279528  33.2058525  66.2472839  55.3882599
  33.2313728  65.2918167  55.3365631  33.9298553  66.4750061  55.9715233
  83.4761810  70.5148468  20.0770359  82.8750534  71.1704407  19.7233772
  83.5385132  69.8515396  19.3897438   3.5578196  41.9552803  26.9243584
   2.8190935  41.7764740  26.3425140   4.2960286  42.1075058  26.3343525
  71.2337036  17.5854645  87.4823456  70.4399109  17.1324215  87.1979599
  71.2136230  17.5271015  88.4375534  43.5538940  15.0813227  84.1219101
  43.1391449  15.2202740  84.9733276  44.1354065  15.8338099  84.0131073
  65.3243484  54.1363106  53.3889389  65.0038757  54.5078659  54.2108116
  65.2128220  53.1914139  53.4936752  63.8618546  37.2311401   6.5390582
  64.3653412  38.0402832   6.4494777  63.9640503  36.7908020   5.6953216
  86.2539444  31.0298424  41.4514580  86.7930603  30.5813465  42.1029434
  86.3793716  31.9605732  41.6364937  74.5087891  17.2607479  79.6561279
  74.5762939  16.3078880  79.7172165  74.9142303  17.4762287  78.8162384
  61.0318718  40.2655945  85.5198746  61.3551750  39.3724937  85.4012146
  60.3236084  40.1810951  86.1581955  58.1746902   3.8834088  57.4417572
  57.5171547   4.4053793  57.9015656  57.6971588   3.4823399  56.7155724
  28.7244225  26.3774223  48.2061691  29.4146576  26.6159248  47.5873604
  28.3995667  25.5345764  47.8894501  71.8241653  60.0249443  27.9447517
  71.5975189  60.8748703  27.5672684  72.7708282  60.0676384  28.0798321
  55.0593605  41.0412216  85.7034225  55.6438866  40.6713104  85.0418167
  54.1824074  40.9341698  85.3350067  56.1014328  61.9738388  82.1143875
  57.0261230  61.9402466  82.3594284  56.0989761  62.3679123  81.2420731
   6.7795148  66.9148483  27.3692570   7.3511310  66.1506348  27.4431419
   6.0556397  66.6199875  26.8167248  14.7429247  15.1996946  27.6482468
  14.3247843  15.8922157  28.1599159  15.6127310  15.5438480  27.4452000
  83.0687332  49.6992531  20.6840401  83.9967270  49.5791016  20.8855820
  82.7102280  50.1351967  21.4571266   8.4499817  27.6161690  33.9203835
   8.2708664  27.4862881  34.8516617   9.4020157  27.7012730  33.8691826
  20.6225891  68.9307938  69.8728561  20.6222744  69.5870895  70.5696411
  21.0875683  68.1830826  70.2482986  19.0276833  36.8190613  23.1754761
  18.7259750  36.1430893  23.7823296  18.4990196  36.6875954  22.3884163
  61.5569839  37.0650101  47.5981712  62.4994392  36.9017067  47.6348763
  61.2957230  37.1668015  48.5133820  41.5571785  38.3382912  44.1151047
  42.4015350  38.0188789  43.7968750  41.5382271  39.2605553  43.8595619
  82.2378693  26.7793865  49.4912109  81.5683212  26.1861744  49.8318520
  82.3100433  26.5520782  48.5641975  12.5518379  67.9614487  19.8539333
  13.2104864  67.6004410  20.4473019  13.0570326  68.4497299  19.2038593
  19.0299397   4.8493562  22.6522293  18.7750435   3.9583213  22.8916359
  18.2975693   5.1756797  22.1293736  55.3594284  56.6044655  67.6660309
  55.6577644  56.7910004  68.5562210  56.0678635  56.9199638  67.1049576
  64.9495773  39.8020821  49.6713562  65.4367905  39.9202156  48.8559418
  65.3167953  40.4555817  50.2666054  41.5526009  37.0005646   1.1092439
  41.5001183  36.5233917   0.2811219  41.6248093  36.3169937   1.7753899
  32.8901176  58.0466652   5.8496995  32.6876602  58.2386017   4.9340558
  32.7911491  58.8865738   6.2980232  13.9981709  47.8387985   2.9016359
  14.8654718  48.1475830   2.6395829  13.4061794  48.1984444   2.2410069
  23.5610008  45.8173180  59.8090096  23.7516880  45.3507385  60.6227493
  24.2279320  46.5024414  59.7638206   1.7628897  29.5690956  88.9281082
   2.6003480  29.5051708  89.3872452   1.6280837  30.5087891  88.8054962
   8.0491972   0.1981009  88.7152557   8.4581556   0.8958958  89.2271805
   7.3703933  -0.1546938  89.2905731  81.4277878  67.1753235  31.8260174
  81.8878098  67.9126892  32.2271576  81.8092575  66.4011841  32.2400360
  53.7269554  45.8952332  55.9337006  54.6683159  46.0585365  55.9920540
  53.4389534  46.4187508  55.1858940  84.6956253  52.2840996   8.9384384
  85.6523895  52.2565994   8.9296331  84.4804077  53.1959267   8.7422476
  60.7147293  62.8171616  16.9772682  60.7622375  61.8777580  17.1547432
  60.8630295  63.2294884  17.8282833   3.0308461  20.1325645  22.2617626
   2.2677300  20.3172531  22.8092804   2.8192849  19.3065662  21.8267918
  59.7169380  59.7553062  61.3406715  59.8100090  59.4470139  62.2420731
  60.5838737  60.0900497  61.1113091  62.5020752  11.8684473   6.1530819
  62.4333115  11.1252699   5.5537577  61.6173134  12.2322397   6.1860151
  36.6496582  21.7013130  72.3637466  36.5912514  22.6294117  72.5905914
  35.7420273  21.3972778  72.3633194  80.9004059  15.8798056  31.6872864
  81.5835724  15.8510380  31.0174427  80.0810928  15.9036036  31.1929207
  70.8389130  54.7394791  41.6273956  70.7303543  55.6824532  41.5039253
  71.3367615  54.6602058  42.4410858  27.2613087  63.4125900  29.2695503
  27.8273335  63.6637306  28.5396328  26.7732239  62.6559219  28.9448071
  81.4864426  14.8919840   7.8188200  81.1707153  15.6657019   8.2856255
  80.6919861  14.4097633   7.5896192  74.0700073  28.9906654  77.8980331
  74.2123947  29.4683723  78.7151947  74.8803711  29.1145229  77.4038620
  53.0054626  51.3876457  42.0159225  52.2430077  51.2380524  41.4568863
  52.7822723  50.9627762  42.8441162  61.5578766  24.4291000  63.4493713
  62.0373268  23.8674889  64.0584335  62.2321434  24.9764595  63.0468903
  47.2266159  57.3045311  41.7236633  46.8054390  58.0078049  41.2294502
  47.0964241  56.5230637  41.1864586  80.2211304  48.8857307  11.7881212
  80.6042023  48.5106812  12.5811052  80.8137665  48.6175919  11.0858994
  56.7946548   8.9609547  34.5242958  56.5309181   8.8912039  35.4417953
  56.8290901   9.9025965  34.3559074  25.8972473  65.5907135  36.0896835
  26.7661457  65.4376144  35.7184563  26.0678596  66.0024185  36.9368057
  28.6997051  69.3272400  25.3093929  28.3324966  69.3443909  26.1931896
  29.5355701  68.8709564  25.4061356  70.0648041  65.3053818  55.5069542
  70.5231323  65.7794647  54.8131180  70.7393951  64.7581940  55.9091148
  85.3823471   2.6802084  80.4332962  84.8009415   2.7333977  81.1918335
  85.0370712   1.9515302  79.9175034  72.6630325  35.7205696  19.6332111
  72.8899384  35.0420418  18.9973278  73.2316742  36.4575653  19.4102383
  49.3172379  55.7044334  39.3597488  48.5260429  55.2221413  39.1196709
  49.9611015  55.0246010  39.5584984   7.9085407  62.1883659  34.2687454
   8.6054220  62.6566963  34.7283669   7.8096690  62.6584816  33.4408264
  46.0536995  38.1677208  25.0849190  46.6933212  38.3777695  24.4044819
  45.3277016  37.7593422  24.6133385  69.1391830  44.9173889  53.1921005
  69.2913284  45.4682236  53.9599953  69.2894592  44.0249710  53.5039253
   7.1310458  51.5756836  52.9481926   8.0006199  51.7833023  53.2901993
   6.6498342  52.4015045  53.0000496  80.9403915   0.0570200  87.2092285
  80.5447311   0.4623156  86.4375916  80.1959229  -0.2476972  87.7280197
  13.6701975  50.5336075  32.2491875  14.5554171  50.6114197  31.8934288
  13.7845192  50.6155357  33.1959953  19.6310730  64.6966476  40.4793053
  19.8843155  63.9943390  41.0783539  19.2465878  64.2440948  39.7285728
  12.2501974  10.5197334  79.5288162  12.0317020   9.8851032  78.8463669
  11.5144424  10.4774466  80.1396408  59.3310966  66.0650558  43.5596504
  58.7199287  66.1027908  44.2953720  59.7420006  66.9294510  43.5450401
  42.9800758  58.3314209  84.3500748  43.8664703  58.5184784  84.6591797
  43.0762749  58.2110825  83.4053497  79.2169342  47.5756378  64.1695709
  79.8987198  48.0978966  64.5922394  79.6902695  47.0196381  63.5506592
  59.4612160  55.0829582  28.4537544  59.3131790  55.9996948  28.2215710
  58.9761200  54.9612465  29.2699032  86.5838852  54.1299286  23.5888405
  86.2171021  54.4738884  24.4033337  86.9962540  53.3039970  23.8418503
  84.1796570  66.5967941  46.7590675  85.0002365  66.5816345  47.2516594
  84.4035797  66.2180557  45.9089775  17.1988525   4.8340163  51.1478996
  17.5666676   5.5666709  50.6537743  16.4122677   4.5877481  50.6612091
  43.9477463  70.7006760  74.2559204  44.7841148  70.5707932  73.8088760
  43.2896385  70.5895615  73.5697861  42.5102844  66.8612137  34.7972412
  42.7520638  66.0159683  34.4186592  43.2774582  67.1241608  35.3057060
  37.6363220   7.5016155  79.9124756  36.7480431   7.4680734  79.5574188
  37.5467834   7.1866574  80.8119278  72.6106339  64.3439560  14.8223228
  73.3804932  63.7858925  14.9323769  72.5206909  64.4437943  13.8746023
  60.5658150  66.7497482  31.1792088  60.3018837  66.2694473  30.3944263
  61.5226517  66.7302933  31.1614571   2.0688298  63.7897873  38.3290215
   2.8261273  63.2090530  38.2550011   1.4343202  63.2914886  38.8441238
  29.7668762  38.6777573  87.4159088  30.1059380  38.5808182  88.3057785
  28.8607521  38.3741188  87.4704514   7.3785319  49.9357376  50.6015167
   7.5890441  50.3894424  49.7853889   7.0619278  50.6258316  51.1844063
  16.5240154  68.2339172  50.4440575  15.9439354  68.1662369  49.6856651
  17.1448212  68.9238586  50.2099342  22.6273384   3.9583576  46.8587685
  23.1316090   4.7050247  46.5356102  23.2725735   3.2582343  46.9574051
  26.9035664  59.5352402  20.2958794  27.0526466  60.3418655  20.7891979
  27.6838131  59.4409866  19.7494717  56.4475098  65.2911148  15.5041485
  55.8978577  65.5861053  14.7781372  56.9316864  64.5450897  15.1502409
  52.9277763  64.7884598  21.3499565  52.9645081  64.4719238  22.2525597
  52.0911293  65.2498398  21.2918053  35.3129921  58.8172569  51.0729485
  34.4099350  59.0669594  51.2688293  35.3090057  57.8605614  51.1037407
  30.1598320  35.9989166  85.6020889  29.8578224  36.8032570  86.0240555
  30.6726856  35.5528679  86.2760696  61.2796631  61.6681519  63.5314522
  61.9469337  61.3207512  64.1233139  60.5005798  61.1429062  63.7141457
  65.1180725  24.3321953  50.6068001  65.3357620  25.2209358  50.3257523
  65.2077942  23.8018684  49.8150063  47.2913399  69.2396164  44.1723480
  46.6649132  68.7812500  44.7324600  46.8459206  69.3175964  43.3286934
  20.8872776  24.9908123  32.5476112  20.6046200  25.0558929  31.6354160
  21.2395382  24.1042938  32.6265373  55.7675247  55.3863869  45.8691750
  55.3903465  55.7622604  46.6645889  55.9938316  54.4887047  46.1124573
  21.3793545  26.5903740  26.6485348  22.3217583  26.7494164  26.5954819
  21.0226631  26.9994335  25.8600731  21.4159851  31.9697113  74.3137054
  22.3248062  31.7765598  74.0835571  21.3901634  32.9218254  74.4088211
   5.5846996  36.7646942  20.7932873   5.0099273  37.0871353  21.4874783
   5.1212153  36.0102196  20.4297180  85.0426254  43.8024673  16.9679527
  85.9930725  43.8433342  16.8620682  84.8947983  43.0247307  17.5060081
  39.0643463  65.7712631  41.4306831  39.5423927  66.3486328  40.8354149
  38.8949928  64.9827957  40.9150581  35.7775154  67.4438553  35.8700104
  36.3045616  68.1285324  36.2819176  36.2072105  67.2837219  35.0298004
  39.3610115  61.0696640  51.0687447  39.0396805  61.8793640  50.6720581
  38.6091461  60.7237473  51.5496483  37.0036888   1.1699327  53.8378830
  36.1196594   0.9733756  54.1478615  37.3819847   0.3144579  53.6346893
  72.9947891  67.9847946  69.3361893  72.9910355  67.9661636  68.3791733
  72.8510361  68.9046783  69.5583954   2.1736956  48.0414124  48.0055237
   1.3715910  47.6049080  48.2924423   2.1958504  48.8560028  48.5077019
  52.9236298  28.7163219  23.3326721  53.8513412  28.7349091  23.0976524
  52.4719505  28.5270004  22.5102520  39.8924484  45.0899124  27.2979546
  39.7682838  44.8198204  28.2078247  40.7631950  44.7653236  27.0684547
  31.9258118   8.4111910  86.4370728  31.0100765   8.4429979  86.1602173
  32.3657379   7.9075823  85.7521820  84.7692719  27.9900284  84.7505264
  84.8495255  27.0407925  84.8440170  84.9453506  28.3327389  85.6267548
  84.2515945  25.3939571  10.2411175  84.8794937  26.0130043  10.6136160
  83.8469849  25.8702698   9.5160990  65.5902786  55.4246635  46.9040489
  65.8137970  54.5096779  46.7335587  64.6335144  55.4365768  46.9304428
  58.5434380  13.0847902  16.2226372  59.2195206  13.7388096  16.3998547
  58.6720467  12.8503456  15.3035460  70.0178528  10.2992249  24.0994968
  70.2501602   9.4973469  24.5677490  70.8506241  10.7550926  23.9774132
  83.1106873  62.7300262  10.7796659  83.5114594  63.5603638  10.5224495
  83.7083206  62.0616455  10.4445047  70.5737839  16.6924305  63.4544144
  70.8000793  15.8509130  63.0583458  70.1005630  17.1611652  62.7669640
   7.6588402  22.3456669  34.5802040   7.8650575  21.9001408  35.4019165
   6.8714066  22.8540440  34.7744560  84.6355133  70.6981430  80.1106415
  84.5335693  71.1808395  80.9309082  83.8981934  70.9839935  79.5713043
  71.1361313  66.5220413  52.9610748  72.0373611  66.6087494  52.6504478
  70.8785706  65.6365128  52.7046814   7.4436507  52.4257050   1.0079350
   7.4374046  53.3293228   1.3236409   6.5664554  52.2912598   0.6492090
  76.2811432  21.9083385  65.6023865  75.6492233  22.1027851  66.2945633
  76.8584747  22.6716042  65.5838318  41.1966057  41.8704872  81.6262512
  40.3342209  42.2789040  81.7018890  41.6933174  42.2210350  82.3655853
  84.2445984  46.4789352  21.6203365  84.6125946  46.1312180  22.4326801
  84.9126968  46.2996521  20.9587231  83.4064560  27.5688877  87.3004456
  82.5904083  27.7125645  86.8212128  83.7643127  28.4467754  87.4326706
  82.9589920  26.7205143  62.5402756  82.6360779  25.9665947  62.0467567
  83.7938614  26.4278011  62.9057198  11.8093252  67.1587448   5.6503949
  12.0275154  67.7482376   6.3722844  10.8653917  67.0214539   5.7302217
  57.3554649  63.6776428   3.5932899  57.6910858  62.7827263   3.5411625
  56.4280243  63.5990143   3.3699033  42.9461136  34.8386650  25.7486954
  42.9791069  34.5673943  26.6660595  42.0915337  34.5372238  25.4403801
  57.5575714   7.2681341  25.6576042  56.9594383   7.9890375  25.8544960
  57.5111809   6.7013373  26.4275532   0.1936557  19.5368156  62.4586906
  -0.6414407  19.8943691  62.1570282   0.4913738  20.1544685  63.1265984
  80.3217010  17.8310261  65.5441971  80.3393860  17.2108459  64.8152924
  79.5419312  18.3633995  65.3868408  42.3847084  39.0422020  73.2601776
  41.6796837  39.6612740  73.4497070  42.6927338  39.2895813  72.3883057
  10.9422503  11.8167000  75.9501114  11.6341639  11.6981659  76.6008301
  11.3513823  11.5759706  75.1189117  30.1199684  61.2933769  49.8476753
  29.4605618  60.7129784  50.2278709  30.0361805  62.1081009  50.3430939
  79.6304092   0.9864340  17.6829224  79.7427979   1.6586663  18.3550129
  80.4915390   0.5749926  17.6093407  18.3759823  19.6417789  71.2472458
  18.4396973  19.9685192  72.1446915  18.7913647  18.7798862  71.2760849
  86.3755798   1.1950637  49.0354004  86.1669617   2.1077051  49.2348862
  85.5444336   0.7314652  49.1378860  28.5537529  50.2626762  82.6466446
  28.1858826  49.6458435  82.0138550  27.7932186  50.6092949  83.1131973
  36.8254623  46.0602951  63.1810150  36.7180901  45.1518517  63.4628563
  37.7108116  46.0956688  62.8188858  74.6180496   9.6429567   7.9075670
  74.8862991  10.5043802   8.2272930  74.5348511   9.1093864   8.6978912
  39.2955551  16.1327839  86.8692551  38.3887672  15.8797102  87.0422134
  39.5636940  16.6132412  87.6525116  81.5880814   4.0015745  68.2884903
  81.1426163   3.3955288  67.6964569  81.0473175   4.7912583  68.2742538
  17.4130745   9.7004423  83.1671295  16.8424320  10.0730829  83.8392487
  18.2890625   9.7332382  83.5515823  21.4002266  58.9145622  40.7459412
  21.0386276  58.0767593  41.0350113  20.6832733  59.3333054  40.2696381
  14.6218643  60.5302887  39.6024055  15.3871422  61.0383263  39.3331833
  13.9088717  60.8647041  39.0583115  51.0926247  65.0746002   9.1867504
  50.6981354  65.2530060   8.3330641  51.1250420  64.1194763   9.2407198
   7.2392893  65.8233566  72.1814270   7.0467682  65.6588516  73.1045227
   7.7349930  65.0545959  71.8994522  42.2988167  65.2775726   4.3319941
  42.1875687  65.5685959   3.4269187  43.2435379  65.1598206   4.4313178
  53.1547318  67.7060013  59.9992638  52.2532806  67.5760422  60.2937737
  53.3217735  66.9718933  59.4081612  55.1792984  60.6114082  17.2871876
  55.9577904  61.1408424  17.1143227  54.6886673  61.1125221  17.9386482
  71.7955856  41.9236526  73.7047729  72.2978439  42.6325607  74.1065445
  72.2976151  41.6864738  72.9250641  24.7967339  59.9556961  58.9070663
  25.6302891  60.3320236  59.1895523  24.1516209  60.3208275  59.5126610
   1.1223972  43.6064186  17.4857712   1.6791528  42.9833183  17.0188618
   1.0772727  43.2648468  18.3788128  15.1985016  66.2338333  74.7197876
  15.8653393  66.5382690  74.1042633  15.5437241  66.4670105  75.5815811
  49.0544853  56.8105507  21.0042286  49.9213867  56.8042717  20.5984287
  49.0738640  56.0795670  21.6219006  40.4693642  24.3000126  82.6560135
  39.5573921  24.4664764  82.8943939  40.6312218  23.4008007  82.9414062
  86.5549240  24.6504993  37.4166412  87.0703964  25.3659096  37.0442047
  85.8080597  25.0834408  37.8301506  82.5574341  68.4409866   3.6235404
  83.0002365  67.6766052   3.9921577  82.2917786  68.1641235   2.7466075
  71.7369919  12.3019114  42.7660675  71.7322159  11.3491421  42.6741905
  71.2418976  12.4676552  43.5683441  81.1867752  64.1655273   0.8709847
  80.4102097  63.9308624   0.3629470  81.7072296  64.7063065   0.2769161
   2.2238836   9.1559343  28.6043091   1.6563201   9.9174910  28.4854202
   1.9137135   8.7501097  29.4138355  65.0487442  24.6150398  59.1673088
  65.5975418  25.2970486  58.7801170  65.2232056  24.6718445  60.1067581
  42.0794601  35.4419899  88.1577988  42.0217247  35.3878326  87.2038727
  42.6883507  34.7445679  88.4008713  48.4096489  19.2977085  87.2187042
  47.5355568  19.5312576  86.9062195  48.9382553  20.0793495  87.0579376
  21.0599613  67.8856583  83.3769379  21.2699375  66.9520340  83.3989716
  21.7105827  68.2635803  82.7852402  70.4741211  63.1511421  16.4977283
  71.0520172  63.7482567  16.0226212  70.9038467  63.0243301  17.3435917
  42.0168381  48.7120018  69.9445877  41.8853340  47.9703293  70.5352325
  41.1653557  49.1482430  69.9146500  76.7490692  53.7319031  46.1427689
  76.6913376  53.0351105  45.4890289  76.1500778  54.4079170  45.8258209
   0.8423766   6.3740215  67.6294708   1.3831627   6.8482080  68.2610779
   0.6022928   5.5642991  68.0799561  82.5013580  32.3318100  80.6967697
  83.0724945  31.6627464  80.3194275  82.0069504  31.8703747  81.3741684
  28.9617081  63.1196327  58.0961533  28.2604160  63.2734222  58.7292175
  29.7666054  63.2995872  58.5819397  66.9578629  29.6268120  13.0944080
  66.5653763  28.7649708  13.2337446  66.2112732  30.2124958  12.9686575
  13.4868832  30.6793022  88.9623642  14.1985111  31.3185520  88.9280243
  12.9547195  30.8716011  88.1903229  11.8942909  55.2951775  52.7095947
  12.2979727  56.0919037  53.0538330  11.4905338  54.8821907  53.4729118
  75.3352203  70.8173065  46.5706940  75.8986359  71.2649841  45.9395142
  74.5083160  70.6901779  46.1056252  57.9830322  20.2647419  71.6329956
  58.9363060  20.3386192  71.5878601  57.8281250  19.4275608  72.0704422
  29.9038563  37.7567596  18.9053555  30.5383663  37.2611084  18.3877068
  29.7100601  38.5278587  18.3723660  46.7650719  61.7705994  35.7604256
  47.1059418  62.2446785  36.5189018  45.8732910  61.5285912  36.0102081
  73.2353210  67.4663315  64.4208679  73.3077011  67.9461746  65.2459412
  73.5096893  68.0950546  63.7532845  84.5167084  29.0371723  42.3111458
  83.6281891  29.3894463  42.3627548  84.9917450  29.6643944  41.7660141
  36.2687149  66.8782349  33.1936035  36.0829620  66.2621765  32.4849472
  37.0743217  66.5490189  33.5921593  24.9332790   1.5887903  52.7744598
  24.5736027   2.2253253  53.3922691  25.8590984   1.8211268  52.7029877
  77.5439606   9.9421110  29.3987198  77.6213150   9.2399502  30.0446453
  78.4442825  10.2313261  29.2503643  23.5492249  37.1431580  13.4153051
  23.5329685  37.9905815  12.9705076  23.5757179  36.5008698  12.7060843
   1.5503772  69.7792664  47.9113274   1.8258653  69.2211990  47.1840744
   0.7209837  70.1588745  47.6210899  45.5455971  20.7470360  83.9559937
  46.2494202  20.0983047  83.9529114  45.6847534  21.2552147  83.1568604
  66.0613785   4.4169931   6.8135333  67.0097351   4.5467777   6.8128633
  65.8959427   3.8554761   6.0561948  10.3846188  44.8336678  36.4714165
   9.5020189  44.4799690  36.3612137  10.2484102  45.7080383  36.8363266
  46.5207825  68.7906036  61.9079361  47.0413094  69.2611313  61.2568703
  46.9597549  67.9449844  61.9998970  25.7497425  71.3063965  24.8766041
  25.9298382  70.4016037  24.6213608  25.1959362  71.2303467  25.6536160
  67.5183334  37.0087128  27.3522167  68.3280029  37.4551163  27.5999966
  66.8934937  37.2486153  28.0365124  74.4345474  56.7622719  76.0085068
  73.6301422  56.3167152  75.7427216  74.5861130  56.4675064  76.9064941
   7.8201790  54.9688911  33.9807892   7.4802361  54.3877335  33.3003998
   7.0810852  55.1004524  34.5746422  55.7755623  15.6044455  25.3895206
  55.3615990  16.2698784  24.8399162  55.6531296  15.9225235  26.2839870
  84.2126160   6.2404537  71.0623169  84.5050812   5.4033990  70.7017136
  83.4901886   6.0102382  71.6465607  75.4010925  24.6086769  46.7276840
  76.1153870  25.1691608  46.4245682  74.8046951  25.2047215  47.1807480
  83.1965866  29.4443264  80.5047379  84.1272507  29.6342220  80.6232681
  83.0345078  28.6833630  81.0623169  67.7950745  46.4663162  50.9889641
  68.1953278  46.0066719  51.7270393  66.8799133  46.5800209  51.2454453
  59.6859665  21.7804604  55.0846062  59.5340652  22.7243385  55.0371704
  60.6040726  21.6982899  55.3426018  19.1174374  22.9622478   5.3816671
  18.9811344  23.7899475   5.8427148  18.5828037  23.0374928   4.5912642
  62.6737709   6.5238695  45.4013138  62.5990486   7.4755912  45.4711266
  62.5506706   6.3416510  44.4697151  51.8584709   3.9018085  38.3087807
  52.1677971   4.2594795  39.1410179  52.4401932   3.1617522  38.1351471
  48.0803833  42.3202591   2.6315567  48.0433426  42.1176224   3.5663285
  48.9578056  42.0486031   2.3621783  61.1766357  50.5740700  85.0977631
  60.7093163  50.7046814  84.2726669  60.5675049  50.8811646  85.7692413
  72.8035507  53.3594093  20.2728119  72.2650375  53.0803108  21.0133095
  72.7545853  54.3152351  20.2878551  79.5353394   1.8079710  85.1342697
  79.2778015   2.1322606  85.9972534  78.8465576   1.1873456  84.8962784
  61.6519012  52.7928429  77.6674118  62.0365829  52.2742500  78.3740311
  62.2705841  52.7057533  76.9422379  45.0654297  55.2532234  47.3681183
  45.8367043  54.6879845  47.3248482  45.2056198  55.9028511  46.6792297
  26.9897461  38.7744904  12.8392143  27.5863647  38.0662422  12.5970039
  26.3399601  38.7911186  12.1365528  73.8885956  46.2482452  13.2285681
  74.0500031  46.7820396  12.4505949  73.5181656  46.8591690  13.8655787
  85.9804230  47.9791756  33.0522194  86.3671341  47.8810272  32.1821327
  86.2590485  47.1966133  33.5278244  39.8313484   5.6352444  23.7139950
  39.1278801   5.6748710  23.0660820  39.5724487   6.2643013  24.3874130
  49.9868622   6.3444366  14.1963882  50.2199059   7.2685666  14.2853041
  49.9812813   6.0114188  15.0937729  59.5500069  64.3742905  46.8303299
  60.5067940  64.3473816  46.8382339  59.3257637  65.0941238  47.4200745
  60.7317390   8.6691980   6.8136072  61.3914146   8.1053419   7.2174973
  59.9736748   8.0985355   6.6874385  19.5127831  55.7364922  64.9331512
  19.2428303  54.8216324  64.8531952  20.1946182  55.7271843  65.6048965
  76.6985855  24.1510963  19.2819023  77.5919647  23.8183384  19.3677635
  76.1512070  23.3660393  19.2646980  48.2130318  54.8320618  30.2644711
  48.9511528  54.3797913  30.6729584  48.5670547  55.1760254  29.4443569
  35.3773460  71.2155991  56.2106094  35.2359467  70.2877350  56.0227203
  35.5514984  71.2456512  57.1513519   2.1957052  43.6347466  74.7466278
   1.2422310  43.6260033  74.8305511   2.4725060  42.7775230  75.0703278
  85.3439636  34.8931580  84.7858276  85.3257751  35.6183510  84.1613312
  84.4479523  34.5564232  84.7880173  18.9613342  24.9640694  88.8319244
  18.0820103  25.2692242  89.0553131  19.0322113  24.1079407  89.2541275
  42.8107758  42.5158005  63.2457962  42.8946495  42.8903465  62.3689194
  43.2494278  43.1453209  63.8180923  45.3914261  44.4067688  72.7864380
  44.9701385  43.6830750  73.2501373  46.3145714  44.1576538  72.7419357
   3.3703959  28.7079563  67.6686020   2.9163814  28.2685814  66.9495392
   2.9224463  28.4019699  68.4572372  40.7843094  25.9311066  25.5497169
  40.9791069  25.3481884  26.2835369  41.4354858  25.7056675  24.8853550
  80.4244843   6.3905416  35.3896904  80.1631851   5.9477019  34.5823212
  81.3792038   6.3227363  35.4018517  36.2691383   9.1870346  23.6051846
  36.6128769   8.3531036  23.9255524  35.5100441   9.3626623  24.1612072
  14.0185661  48.5769310  15.4037905  13.5981112  47.7192459  15.4656487
  14.8639555  48.4000435  14.9911652  12.3295641  47.5098228  72.4556351
  12.9468250  48.0107460  72.9888306  12.8626604  46.8249283  72.0519562
  26.5725689  44.2997589  26.9057121  26.7016792  43.4602623  26.4643440
  25.6581917  44.5234528  26.7321930  78.7075958  30.8030415  12.8132744
  78.0869293  30.2565994  12.3311930  78.2128754  31.1166172  13.5703421
  72.5047150  64.4576645  40.2994347  71.9106216  63.9687767  39.7299843
  71.9725647  64.6852493  41.0618324  77.0227203   6.4072962  66.4361572
  76.3033295   6.5365472  67.0542221  76.8209000   6.9943376  65.7075424
  32.5138741  47.8149986  13.8649597  32.2128792  48.6414223  14.2426548
  33.2057419  47.5191803  14.4566021  41.5250702   1.7608489  13.8289356
  41.0007095   2.4952910  13.5097589  41.1056862   1.5064902  14.6509151
  20.0053062  17.2313728  14.2254744  20.2947578  16.6897507  14.9597054
  20.3663025  18.0983734  14.4104786  72.2748032  69.8543472  41.7633972
  71.8470993  69.2444153  42.3644638  72.8287048  69.3000717  41.2136612
  57.3717346  44.3991203   6.2755108  56.8336525  43.8050804   6.7987871
  56.8143349  44.6374092   5.5347304  31.8834324  19.2282181  87.7493591
  32.7619781  19.5542221  87.9445877  31.9993935  18.2860451  87.6264954
  10.9393883  59.3647308   8.6130705  10.1084204  59.8340874   8.5394011
  10.7476397  58.6278381   9.1931171  -0.2090057  25.5342274  13.5613747
  -0.0706635  24.6225815  13.8182688   0.6546190  25.9392300  13.6411066
  84.4608688  65.5158844  44.2658119  85.3622513  65.3979874  43.9660835
  83.9329834  65.0244217  43.6365013  31.6380730  62.4339485  29.7631893
  31.0622482  62.3092880  29.0087910  32.0114594  61.5676041  29.9252453
  12.3500643  47.1902618  28.0647736  12.1642504  46.4126778  28.5911465
  12.4301767  47.8984756  28.7037144   2.0156572  64.8560257  86.8233948
   1.1384511  64.6578522  86.4955673   2.4805608  65.2095413  86.0650253
  18.2391109  70.5830002  85.2613297  17.8940334  69.7377014  85.5487671
  19.1054306  70.3804779  84.9081955  20.0405102  68.3665771  37.8031273
  19.7888603  68.0288086  38.6626701  20.8605480  68.8345871  37.9603996
  73.5637741  27.8907585   5.6339741  73.0945358  28.7174835   5.7461009
  73.9565201  27.7202511   6.4900765  21.2538948   5.1905637  68.6675797
  20.7248993   4.3929009  68.6789474  20.8455563   5.7392383  67.9979172
  61.0562363   6.6259146  28.8270264  60.8791504   7.4646034  28.4010315
  60.5852051   5.9835200  28.2962837  44.1958885   9.5174494  86.7188721
  44.9297028   9.1780405  86.2064743  44.5260429   9.5513077  87.6166916
  56.1896439  20.0875664  62.2336884  55.9194260  19.1704979  62.2805710
  56.7423897  20.2141151  63.0048447  23.6585865  71.2418823  79.0076828
  23.0223064  70.9902191  78.3383255  24.5036163  70.9711456  78.6487122
  13.9845371  14.9193201  33.2181320  14.9002819  15.1496973  33.3748817
  13.9253311  14.8048620  32.2696457  55.4600868   3.0692644  53.0319824
  55.1107025   3.7375269  52.4424171  54.6866379   2.6078956  53.3562469
  40.7631760  51.4605865  32.4405937  41.2326393  51.3896217  31.6094475
  40.0816650  50.7904510  32.3887024  70.9785767  68.6730576  28.6770744
  70.5692749  69.3635025  28.1555576  71.1009521  69.0662308  29.5411739
  49.4777832  70.3577194  64.9312820  50.0241051  70.7476196  65.6137390
  48.6428299  70.1810074  65.3647079  25.3399925  66.5013809  31.5050335
  25.4438362  65.5538788  31.5927753  24.4076366  66.6246567  31.3268547
  33.3205452  54.0099945  39.2916145  32.7325058  53.6097145  38.6511307
  34.1200676  54.1959801  38.7992668  34.1844940  51.5710487  13.2273264
  33.9328232  52.0253792  12.4232874  35.1097755  51.3595848  13.1033525
  66.2250519   7.3723245  13.9075718  66.1737137   6.6805019  13.2480431
  66.2875671   8.1820488  13.4009466  11.8956823  54.4320030  74.1534653
  12.0926676  54.2593689  73.2327957  12.1513109  53.6291656  74.6077118
   4.9602733  19.4022827  10.3907852   4.7952662  19.2353096  11.3187523
   5.7321010  18.8744774  10.1860008  34.5674286  13.5823593  19.6565247
  34.2804451  12.8549690  19.1044617  34.1659393  13.4096212  20.5081120
   1.8591896  39.7126656  52.4433022   1.8256979  38.9054146  52.9565811
   2.5710006  39.5704002  51.8193474  75.6703339  12.0764141   5.5520892
  76.0939865  12.5862560   6.2426038  74.9729385  12.6460152   5.2273817
  38.9340973  57.4438515  18.5347652  39.0763626  58.0892944  17.8423767
  39.3920860  56.6605949  18.2298355  64.3817902  29.8737888  67.7718582
  65.1153946  29.6167316  67.2133102  64.2950058  29.1557064  68.3988037
  14.3982868  51.0166588   6.7766652  13.6238298  51.5640030   6.6467962
  14.1933479  50.4913445   7.5501485  80.6523438  27.4432125  40.6645508
  81.0810852  26.9698792  39.9515457  81.2854919  28.1133862  40.9219055
  32.2893257  58.4141541  17.1494617  31.9518661  59.2300835  16.7798500
  33.1311531  58.6561852  17.5354366  77.2575531  58.7267151   5.9824972
  77.4493637  58.4789696   6.8869638  77.2438049  59.6837463   5.9940810
  84.5793610  41.0268593  12.9801321  84.8943634  41.8441544  12.5940866
  84.0107117  40.6487045  12.3094082   8.2521152  22.6535110  28.7837696
   8.6947193  22.4911175  29.6168137   7.4189076  23.0554562  29.0296078
  49.2992058  14.3829288  88.8353577  48.4151802  14.3272009  89.1981583
  49.1723938  14.7097139  87.9446487   3.6735110  10.2496939  67.6305466
   3.5866868   9.4991722  68.2182693   4.1726398  10.8922510  68.1347504
  51.7089577   7.8406811  53.4877892  51.9183044   6.9082780  53.4327393
  50.9429016   7.8807631  54.0603104  12.9863720   1.0399271  15.2500315
  12.0406027   0.9287067  15.1531649  13.1783495   1.8618871  14.7986364
  62.0417252  17.7231541  65.0268173  62.9279938  17.5639935  64.7021179
  61.5148544  17.0257187  64.6366577  75.1297760  26.7933197  61.2732239
  75.4616089  27.6780376  61.4261818  75.0147476  26.7413731  60.3243828
  63.1835213   5.4383292  70.7791290  63.1271973   4.5282154  70.4880066
  62.5797653   5.9109020  70.2060776   3.0330977  19.7250118  70.2775040
   2.3645620  19.0600739  70.1127319   3.4061935  19.9083424  69.4152832
  38.8631821  56.3247604  22.5433216  38.7316132  56.5454216  23.4654007
  38.6995087  55.3828087  22.4967480  27.6466846  39.1886787  79.1661072
  28.3186626  39.4856758  78.5525360  27.5428905  39.9169159  79.7785797
  69.7184067  18.1011486  84.2582321  69.5426483  17.7976894  85.1488800
  70.3116989  17.4441719  83.8940506  85.1971130  62.7440147  49.7005310
  85.6396255  62.1001358  50.2535515  84.6324463  63.2289352  50.3023911
  85.7401886  54.8379555  88.2562408  86.2600098  54.8987846  89.0576935
  85.7298584  55.7299614  87.9091797  17.9352036   0.3614984  60.1198845
  18.1188469   1.2482074  60.4301338  17.4765339   0.4885188  59.2893906
  74.2863312  49.9610481  27.8257446  74.6329041  49.0838547  27.9889889
  74.3337402  50.3992577  28.6754246  59.6045761  56.4673195  71.2337570
  58.7447014  56.8475304  71.4134521  59.6370277  56.3883133  70.2803802
  25.8910198  13.3524790  14.0805445  25.6604729  13.1252604  14.9813499
  26.0531044  14.2955284  14.1053953  62.9492912  68.9831924   2.6229823
  62.1070709  69.2386475   2.2466323  63.5765266  69.1032104   1.9099562
  54.7370644   9.3266802  86.2289429  55.1007843  10.1581326  85.9245987
  55.5032806   8.7863979  86.4219208  46.5230331  45.1467590  42.7622108
  45.8602867  45.5288162  43.3375664  46.3604279  44.2043190  42.8022537
  26.7434692  63.5796814  45.9053192  27.0476341  64.0095215  45.1059723
  25.7913418  63.6750603  45.8811188  86.1988144  27.4142342  51.9019318
  85.4313889  27.8673019  52.2512436  86.4034653  27.8799896  51.0911140
  86.5001755  43.3259163  22.8093700  85.6844101  43.2583389  22.3132019
  87.0784912  42.6766777  22.4090309  27.6874256   5.0847821  85.1342545
  27.6403828   6.0383115  85.0649719  28.0069408   4.9246306  86.0222244
  75.8849411  49.0029030  46.4158134  76.2268906  48.1765022  46.0746880
  76.5822906  49.6372948  46.2500534  19.7624226  42.0902138  35.8007927
  19.0086861  42.4159622  36.2927284  19.7379475  42.5753593  34.9760094
  85.4895325  55.4172630  71.5811081  84.5655594  55.3468475  71.3412094
  85.9300842  55.6633797  70.7677383  31.0020714  45.8269539  85.5611420
  30.3204498  46.4984169  85.5335617  31.3794060  45.9045486  86.4374008
  25.0078964  64.3190460  85.7272797  25.6386299  64.0149765  85.0746384
  24.9786301  63.6170502  86.3773422  43.8808899  43.4263382  89.1901169
  44.6445389  43.0852776  88.7245483  44.1453018  44.3008842  89.4755783
  36.0293007  60.0653915  82.5083694  35.8506470  60.6450386  83.2488632
  36.8186798  60.4274178  82.1058197  72.1990585  32.4924431  14.3858910
  72.1101990  31.5795860  14.1119776  73.0810394  32.7408104  14.1090345
  25.7236652  58.3020439  80.7912216  25.9429054  57.6178207  81.4236832
  25.1620655  58.9061317  81.2769394  71.0797424  45.0449409  51.0359306
  71.0145187  45.6126137  51.8038673  70.2368240  44.5928040  51.0000305
   5.5540690  16.9468193   6.8045020   6.2978144  16.3971710   6.5576000
   4.8397470  16.3284149   6.9579711  19.0898132  59.7033730  79.3579941
  18.8814125  59.9565735  78.4587250  19.1882992  58.7519264  79.3222198
  40.2853546   1.3230529  57.2449646  40.0613747   0.7138751  56.5414276
  39.5356483   1.2888664  57.8391113  58.2610779   2.3310363  32.5640335
  58.1390686   2.9712343  33.2650948  58.3854332   1.4982055  33.0191803
   7.1631269  57.6177330  42.5226440   6.3593578  57.5877724  43.0415764
   7.2960620  58.5479889  42.3404655  33.7883682  52.8873367  10.7771263
  34.5454865  53.2863274  10.3483915  33.1078300  52.8808365  10.1040306
  64.3938141   8.2625742  47.8393211  64.4214935   7.3093495  47.9219551
  64.1443939   8.4168568  46.9281578  48.6409187  56.8028488  46.4116516
  49.2922096  57.2211990  46.9747124  48.2423820  57.5263252  45.9279327
  58.9408569  30.0245342  58.0417595  58.1358833  30.5315437  57.9359741
  58.6411133  29.1416016  58.2581291  63.7940407  27.0866966  43.5903702
  64.5927277  26.7124252  43.9621925  63.1580391  26.3719769  43.6205063
  27.2195110  16.3139553  82.2051010  26.6543446  15.6215763  82.5477753
  28.0882988  16.1060944  82.5489502  59.5627136  41.3238335   0.7882022
  59.0776596  40.8596039   1.4704394  60.0732384  41.9804688   1.2619375
  72.7252579  25.4993076  43.9601059  72.6588593  25.0387306  44.7965813
  73.1772995  26.3160973  44.1716423  12.8587027  61.9755554   6.1778660
  12.9944363  62.8737106   6.4797382  12.4890413  62.0711746   5.3001194
   4.2361994  24.8981724  67.4625778   4.0876384  25.6644592  66.9085312
   4.3893347  25.2598209  68.3354950  64.3535080  53.6335449  72.0702133
  63.4457321  53.3419724  71.9856262  64.8066254  53.2227325  71.3339005
  40.3055801  67.7277374  89.2409744  40.0874825  67.2250900  88.4561081
  39.4696198  68.0919113  89.5321426   5.1334152  38.8683090  57.9227943
   5.7510777  38.2159348  57.5924416   5.5555029  39.7089920  57.7458000
  37.9067116  45.3676414  21.2486382  38.8270988  45.1253281  21.1466446
  37.9300613  46.2767067  21.5474396  57.6799736  11.3651133  41.6205597
  56.9624252  11.2968063  42.2503929  57.5460892  12.2124529  41.1959190
  52.0330658  18.7853146  56.0602036  52.7145081  18.7152786  55.3916512
  51.6387939  19.6447258  55.9112206  38.9432907  30.6945324  11.7479477
  39.3546143  30.8926640  10.9066458  38.8758736  31.5423412  12.1871586
  66.4575653  47.5645142   4.1528907  66.6936111  46.9335289   3.4729099
  66.5051270  48.4153786   3.7170053  44.9170151  53.0096512  80.0739441
  44.8054390  52.4226379  79.3261490  45.8448448  53.2444038  80.0578156
  11.5359364  58.0680466  88.3971710  10.9753513  58.8399620  88.4754181
  10.9437637  57.3276367  88.5289307  53.7201424  -0.1017982  69.2751160
  53.6421928  -0.0991353  68.3210983  53.0231133   0.4821955  69.5740051
  75.9724045  56.0443764  20.6064415  75.6323090  56.0601768  21.5010452
  76.8359375  56.4522247  20.6712570  40.3105850  63.4626923  82.6944580
  41.2391853  63.3345985  82.5007324  40.1535530  64.3892288  82.5125275
  20.3044357   6.0418172  24.7794857  20.6838264   5.1850548  24.9750690
  19.7616005   5.8923182  24.0053978  42.3783379  13.4739285  74.1521072
  41.9988174  12.6699095  73.7974930  42.7157936  13.2208166  75.0113373
  32.7771378  53.3994560  67.0213394  33.3556442  52.8094673  66.5381470
  33.3539276  54.0951004  67.3369751  53.3841362  49.7262688  10.8002424
  53.8079605  50.4887314  11.1942692  54.0730324  49.0628471  10.7611742
  68.4067993  31.5932941  37.1359634  67.9933014  31.5591679  36.2733574
  67.7095947  31.8826981  37.7245026  37.2584953  50.9515381  88.8816299
  37.5612946  51.6204605  88.2675552  36.4281197  51.2910957  89.2154083
  75.2721710  30.1945820  87.1098404  76.0866318  30.5107002  86.7187424
  75.5296021  29.8768387  87.9752884  48.5792351  65.3051376  85.3965683
  49.0861053  65.0252380  86.1587753  48.3889580  66.2286301  85.5614471
   2.1402533   1.8027713   3.1713645   2.4124346   1.9977587   2.2746320
   1.2469084   2.1415668   3.2295420  39.8229065  54.4755363  42.9008713
  39.2936707  53.7350082  43.1971169  39.7943039  54.4233818  41.9455223
   7.7803245  21.3861027   1.2703106   8.3003769  20.6728020   1.6404203
   8.3401060  21.7635727   0.5917882  48.9863663  49.2219124  47.1873894
  49.6503448  48.6960564  46.7414703  48.3727837  49.4696465  46.4957428
  62.3920746  31.1062202  18.6350613  62.7539520  30.8535976  19.4844475
  61.5851059  30.5972710  18.5575809  71.6119843  45.9464073  60.6415062
  71.3416748  45.9665298  59.7234879  72.1519318  46.7293739  60.7494164
  81.2723618  20.0595646  42.5402451  81.2738342  19.2948074  43.1158981
  81.6417542  19.7403202  41.7169228  45.5610542  64.7505951  60.1197243
  45.8885612  63.9392967  59.7314377  45.6723633  65.4071808  59.4321594
  47.6346550  34.9239044  75.8684235  47.9704781  35.2227325  76.7135010
  46.8058968  35.3907433  75.7613907  71.1444244  70.2576370  31.8104343
  71.4994659  71.0350952  31.3794689  71.8858109  69.6546860  31.8654613
  49.7912521  11.3561993  82.6689377  49.0740967  11.0377693  83.2171402
  49.8593903  12.2872009  82.8806534  74.4259949  57.4702644  89.2337494
  74.2288818  57.7932854  88.3545227  74.7283630  56.5724487  89.0968628
  53.9188766   7.4703755  45.6894226  54.2993813   8.1250401  46.2749672
  53.3941269   7.9784837  45.0708008  36.2584572  22.5834751  18.6284504
  36.1543045  21.6602478  18.3981590  36.9132729  22.5837727  19.3266277
  74.9384842   4.2006254  68.4727936  75.3820038   5.0272417  68.6631241
  75.5987473   3.6722753  68.0243149  35.2572289  68.2287827  66.0698090
  34.5941582  67.5391998  66.1022263  36.0808487  67.7780457  66.2561646
  63.1324463   7.1667566  85.8182373  63.2251358   6.4927468  85.1449203
  63.8443108   6.9903240  86.4333420  82.2664413  21.8015862  72.0225449
  81.3835907  22.0672112  71.7651443  82.6951599  21.5660839  71.1997681
  69.5825729   5.2985954  39.5250931  69.3882599   4.3805394  39.7138977
  70.3112946   5.5138025  40.1072235  71.1846771  25.9166317  79.9760208
  70.7149200  26.0172081  79.1481094  72.0547714  25.6090832  79.7218857
  66.3150940  26.8557949  45.1182098  66.9784698  26.1658993  45.1035500
  66.7747040  27.6366024  44.8094444  70.0905304  24.4432793  39.9128952
  70.4769745  23.7735596  39.3486519  70.8401566  24.9325390  40.2518959
  39.3930740  46.7656250  18.8666077  39.8309479  45.9271049  19.0128441
  38.5755081  46.5351524  18.4253635  49.2239151  60.1302567  50.0081253
  49.3381538  60.6779099  49.2314301  49.5307503  60.6752739  50.7327232
  10.1593390  24.4393654  12.2059488  10.9881792  24.2130127  11.7840261
  10.0071983  25.3520508  11.9608126  59.9998627  26.5316868  62.3828888
  59.9983444  26.6054001  61.4285316  60.3934212  25.6765709  62.5564384
  74.4949875  14.1329117  38.2599487  73.6111145  13.8859568  37.9878922
  74.4814453  15.0898447  38.2780075  43.3670578  28.8257446  69.9191971
  42.5369720  28.9985847  70.3633957  43.7691612  29.6885643  69.8187637
  55.6145439  47.8332214  11.1486130  55.8609352  46.9306488  10.9464092
  56.4482346  48.2958527  11.2332678  49.8729744  23.5504189  68.8140564
  50.4846573  24.0628319  68.2853699  49.4271927  22.9846878  68.1836166
  23.8589821  52.8846817  36.0991669  23.6318569  52.0143661  35.7717628
  23.0949669  53.1560936  36.6079407  64.5675964  33.4833641  74.5789871
  64.8402328  32.8291626  73.9356232  64.8163300  33.1071587  75.4232864
  59.8538475  60.7479706  26.1896648  59.7824287  61.6084480  25.7764931
  59.4207687  60.8523903  27.0368786  48.6214790  67.3807831  89.1571808
  48.8365860  66.4684677  88.9631424  48.1397972  67.6823273  88.3869324
  47.2332764  48.0072632  65.1720123  46.3921928  47.6405487  65.4446564
  47.4662666  48.6179543  65.8712997  27.6401634   1.6774311  85.8404083
  27.4609146   2.5918548  86.0593414  28.0584660   1.7146515  84.9802475
  26.8510666  36.6243973  17.2772675  26.2643833  36.3947945  16.5566292
  27.2894077  35.8031807  17.5001888  47.1142654   6.6212287  10.9474669
  48.0362167   6.7137809  11.1876030  47.0660858   6.9516182  10.0503864
   5.4042811  42.1805305  74.0130234   5.4973907  41.5762253  74.7494888
   5.2452765  43.0319633  74.4204712   2.0347686  24.1781273  69.1520309
   2.4736049  23.8621559  68.3622055   2.7406213  24.5328083  69.6925888
  28.7356644  49.4300194  28.9645348  29.3913059  48.8428726  28.5882034
  27.9768314  49.3428955  28.3876343  35.0399170  59.6711655   1.7112688
  35.9481316  59.9379539   1.5691473  34.5461578  60.4911804   1.7083818
  41.9153976  54.7761307  44.6032448  41.0494080  54.8041992  44.1964188
  42.5196114  55.0026550  43.8962517  17.0924454  30.5933056  13.8089590
  17.9813652  30.4053211  13.5077677  17.0908070  30.3304520  14.7293606
  71.8357925   8.4295549  52.5239677  71.0181885   7.9512191  52.6616287
  72.3866730   8.1808405  53.2661972  38.6210785   8.6346731  84.2686996
  38.3405647   9.5273867  84.4702072  38.3424797   8.1194296  85.0257645
  86.1335068   7.0381904   2.2463078  85.8896408   7.9581976   2.1445751
  85.5534363   6.7112794   2.9339712  79.6436691  34.4686890  27.4403572
  80.1017609  35.2570496  27.7316856  80.3366013  33.8980446  27.1080379
  10.8232479  31.4877853   4.9399014  11.1703987  30.5986595   4.8679790
  11.5317907  32.0479164   4.6229572   1.1691536  38.9058990   0.6060356
   1.5677898  39.1644669  -0.2249052   0.3816934  39.4460411   0.6722440
  19.4620628  57.6824799   8.9398308  19.2441826  58.3193207   9.6204128
  19.9901295  58.1748009   8.3113441   3.5770180  70.9765320  27.3484745
   3.3564677  70.5769730  28.1898670   4.3965592  70.5546188  27.0904598
  27.9054394  25.1695175  13.2792854  27.2097378  25.7835999  13.5140886
  28.5616436  25.7085037  12.8375549  15.8782654  12.6011820  67.4243851
  15.5473108  11.7302361  67.2049484  16.5013580  12.8034801  66.7264786
  35.6106606  35.7988739  67.0234528  36.5039024  35.6183472  66.7306061
  35.3202629  34.9800873  67.4253082  41.0184517  67.0643768  65.9675980
  40.9564934  67.8219528  65.3858109  40.2329636  67.1157532  66.5122147
  38.7413330  46.9514008  44.3719559  38.6855469  46.9563370  45.3275185
  37.8610077  47.1873741  44.0794220  38.4790611  66.5739059  20.5633125
  39.3866577  66.3843155  20.3254910  38.4901695  67.4904633  20.8390388
  46.5335274  57.2529907  19.7711678  47.3855515  57.3860779  20.1865864
  45.9132957  57.2268372  20.4997692  30.7012558  33.4162369  80.4088287
  31.3084488  33.9197464  79.8665848  31.1252270  32.5647354  80.5157013
   2.6669993  60.4715500  12.8213644   1.8846995  60.7789154  12.3633633
   2.5196722  59.5337715  12.9442310  32.2598724  67.7199249  52.7144051
  31.3437920  67.9751740  52.8233833  32.4818764  67.2703857  53.5297966
  79.4824753  20.3383579  24.7710171  78.6046524  20.0313034  24.9976845
  79.3351822  21.1590672  24.3009396  13.8292971  55.4100189  87.4783401
  14.6557856  55.4903145  87.9544678  13.3624382  56.2233582  87.6700668
  50.1521721  42.3339767  12.1163712  50.0823059  43.2454681  12.4001474
  50.9158401  41.9954758  12.5837650   3.5975561  37.6527824  84.2210083
   3.5207772  38.5930405  84.3830414   4.0219250  37.5910835  83.3652420
  61.1463509  37.5821915  85.0964966  60.2849045  37.1681023  85.1481476
  61.7128296  37.0237999  85.6289749   0.3822519  42.3404427  81.2963104
   0.0743287  43.1113663  80.8197708   0.5244546  41.6804314  80.6177826
  83.7684555   8.3368301  69.0872955  83.9640732   7.5980396  69.6636200
  83.0701065   8.0167608  68.5162354  83.9231415  54.0014343  28.4645176
  83.5526733  54.0736847  27.5848770  83.2583847  54.3849068  29.0366077
  35.0472450  34.7911148  13.0438299  35.1887245  34.9552917  12.1114883
  34.8126221  35.6460838  13.4046764  42.0389366   4.6566544  40.6675911
  42.7662430   4.2201376  41.1111145  42.3990746   5.4985256  40.3886909
  50.8080750   8.6902828  60.1365318  50.4359322   9.5491400  60.3367920
  51.1962471   8.3991489  60.9616356  68.0117035  34.2599220  27.2390709
  67.8586121  35.2044640  27.2642422  67.2750549  33.9111824  26.7371178
  51.6642799  48.2607498   6.7847109  52.0029144  49.1188507   6.5293255
  51.5277290  47.8009338   5.9563651   6.2465749  52.2573814  37.4212112
   7.0516467  52.6265831  37.0581970   5.6275678  52.9874916  37.4225159
  74.5506897  71.4551468  35.7740059  74.2308273  71.3221283  34.8816910
  74.0003662  70.8868637  36.3129196  14.7645206  42.6678581  41.6434860
  15.1339922  42.6886482  42.5262604  15.4671640  42.9953423  41.0819893
  70.2730865  51.8135605  51.8886528  71.0979691  51.6558876  52.3479347
  70.3284302  51.2692490  51.1032257  73.0033188  30.1308041  62.8292122
  73.4090500  30.8077984  62.2876511  72.6336441  29.5108223  62.2005653
  82.9061813   2.1378803  18.7225075  83.7816315   2.1015172  18.3371563
  82.4526901   1.3773434  18.3589668  76.3164825  50.5153160  51.0586357
  76.2167435  50.3694038  51.9993782  75.5156326  50.1583366  50.6746635
  34.7241974  58.9027939  11.3288565  34.6591988  59.0984230  10.3941183
  35.2348976  59.6272430  11.6902304  72.0467682  38.1395302  59.0884056
  71.3827744  37.4885368  59.3154716  71.7122574  38.9595566  59.4515877
  44.7441177  44.1809273   5.6720901  44.7131691  43.6596069   4.8699050
  45.2632027  44.9502907   5.4378710  72.8765869  55.4252892  69.9754944
  72.0540924  55.0946579  69.6143570  73.1660309  56.0859680  69.3462448
  24.6840782  17.1968117   6.4875989  25.3064556  17.7906437   6.9074111
  24.0922661  17.7729874   6.0038528  12.4475470  30.7595539  18.6603737
  12.6056852  31.2247581  17.8389053  11.5003090  30.6232052  18.6798935
   5.3673406  63.7466049  75.7733612   4.8907971  64.5666199  75.9026642
   5.2209268  63.5270195  74.8532715  36.3743706  49.9477959  84.1286774
  35.4458885  49.9691315  83.8969498  36.5213814  50.7653694  84.6042709
  63.8989868  35.1049042  28.6329193  63.9898567  34.2992630  29.1417580
  64.3771362  34.9312820  27.8220806  72.3802185  28.1204948  60.9162788
  73.0070648  27.4273090  61.1231422  72.5618668  28.3430061  60.0031929
  76.6503754  55.2577019  59.9316444  76.9246445  54.4977264  60.4449120
  76.8712387  55.0292664  59.0287209  57.2318649  51.2019348   0.6853979
  56.9374390  52.0856590   0.4649995  58.1203270  51.1506081   0.3329283
  35.8912277   1.1194226  78.0530090  36.4466934   1.1393757  77.2737198
  35.9864502   1.9908698  78.4373856  59.9098434   2.7002761  61.3719215
  59.1640205   3.2104127  61.0561104  60.2501717   3.2055147  62.1102600
   4.8508320   8.5684471  20.6058254   5.1276331   8.3538418  19.7150078
   4.3113294   7.8248830  20.8746777  17.8098698  41.9423561  27.5962124
  17.1700611  41.3431511  27.9806938  18.1515656  42.4377365  28.3405743
  23.9779568  41.9551125  11.3412590  23.8641930  41.0092621  11.4342651
  23.7854328  42.3061485  12.2107077   2.4779358  14.3488960  59.6590080
   2.2003162  13.9978714  58.8128738   2.6491296  15.2752771  59.4894714
   1.9994391  62.4820366  70.5008240   1.8059227  63.3779182  70.2248154
   1.3791000  62.3104134  71.2093124  21.1636677  46.9892731  61.1525688
  20.2200680  46.9649887  60.9936371  21.5552158  46.8085670  60.2980118
  86.6028519  71.4719772  71.1931915  86.0778961  70.7556152  71.5502319
  87.1048965  71.7966690  71.9406967  23.0934906  52.0783195  85.9642639
  23.1408482  52.9707222  85.6213226  22.6589451  52.1703110  86.8121643
  32.8594589  59.2681351  48.5234680  32.8695412  58.4251213  48.9767380
  33.6740532  59.2796326  48.0209389  28.5686798   3.8695717  16.1109810
  29.1946964   4.5931864  16.1377525  27.9415264   4.0696020  16.8058891
   9.7497292  64.9566956  71.0698624  10.0897264  64.6246414  71.9007492
   9.5460367  64.1705856  70.5631409  19.6193733  28.9307194  22.0610046
  19.3697777  29.4999447  21.3330517  19.1977062  28.0937977  21.8660889
  62.8883743  54.1939545  45.3792305  62.0954323  54.4562759  45.8468475
  63.1138000  53.3406982  45.7498703  17.6974163  16.4130878   5.1446800
  17.7698765  17.3528347   5.3115888  18.0825138  16.2936249   4.2765436
  32.9842262   2.6562209  34.1885338  32.5353470   2.7397578  35.0298157
  33.8008194   2.2023118  34.3967972  33.4163780  26.0608196  10.1166124
  32.7240944  26.0794849  10.7773914  34.1624756  26.4861412  10.5393095
  43.6655388  53.1955872  13.7639570  44.4959564  52.9221230  13.3742685
  43.1739655  52.3818970  13.8757458  34.4904442   0.8152376  19.5878830
  34.3405952   0.8050079  20.5332241  33.7808113   1.3544405  19.2387161
  65.9792252  29.5614185  88.8493118  65.8693314  30.4772263  88.5934830
  65.3261948  29.4244442  89.5356216  26.1959496  43.2111244  47.8306236
  25.6380558  43.2374191  47.0532608  26.6686153  42.3819160  47.7582779
  40.1837273  55.1764526  59.6334038  40.8264198  54.8373833  59.0103378
  39.7906837  55.9267921  59.1876030  68.5011292  44.2769661  47.3693123
  68.5853195  44.1252365  48.3106537  67.5998154  44.0268669  47.1660614
  41.7686348  59.9554558  51.3231049  40.9149017  60.3862915  51.3649254
  41.6168823  59.0865326  51.6948204  26.6912155   6.5382524  46.2153168
  27.3883286   6.9295869  45.6888924  26.7535591   6.9803381  47.0620193
   2.3967156  19.1862564  12.8321762   2.5747468  18.7827282  13.6817064
   1.9557244  18.5014210  12.3294258   1.8313837   2.0589597  18.4871750
   1.6277996   2.6024511  17.7259903   2.1196299   2.6808503  19.1553059
   6.3915911  64.6605911  67.9583435   7.3225641  64.8685226  67.8790817
   6.0972638  64.5320816  67.0566330  80.5296402  62.0760307  16.6778355
  80.9563522  61.3160706  16.2820969  80.2708969  62.6198540  15.9338312
   5.4204788  53.5185966  55.5049438   5.3768954  54.0686569  54.7227898
   4.5204015  53.2220421  55.6396561  79.9835281  44.5178642  86.1238708
  80.8723984  44.8671761  86.1881561  80.0534821  43.7991982  85.4954910
   3.5755424  46.0428886  88.2465744   3.9199395  45.2125778  88.5755234
   2.7219553  46.1328163  88.6702957   3.3935471  35.0027351  55.4643822
   4.3103375  34.9626579  55.7366333   3.1794224  34.1048126  55.2111664
  25.3776417   5.6938529  87.4062271  25.3229103   5.9615750  88.3235931
  25.3832321   4.7371278  87.4358597  80.2721710  19.2742882  28.2625217
  79.5249100  19.0586033  28.8204708  80.1643829  18.7169571  27.4918098
  51.3091469   9.7893372  70.4866638  52.1801186   9.7913752  70.8837051
  50.9864159  10.6816425  70.6126328   3.1359541  57.9151688  30.9528217
   4.0545430  57.7040024  31.1196613   2.7911181  58.1756096  31.8069229
  85.4808502  15.3530703  63.6886330  84.9473724  14.5633297  63.7777557
  84.8735504  16.0729084  63.8596573  69.3267365  31.1949615  24.0975780
  69.2716675  31.3653240  23.1572723  70.2625427  31.0861340  24.2668724
  75.6716614  24.2739639  34.6899757  76.4098282  23.7487469  34.9989815
  75.0964279  23.6453934  34.2538109  19.5307159  42.3517570   4.3391514
  20.4370232  42.5318794   4.0893607  19.0087833  42.7082138   3.6202912
  56.7263794   3.2769840  80.0517578  57.0551338   2.4483507  80.4003525
  57.3974571   3.9182553  80.2855530  17.5007229  26.1266003  82.9551163
  17.7454624  26.2346554  82.0360641  16.9863510  26.9075699  83.1594238
  22.8554401  42.5641479  59.6021042  23.5299854  42.7772331  60.2469444
  22.5749321  43.4128036  59.2595711  30.0945911  14.7242880  74.8883209
  29.1397419  14.7331514  74.9547653  30.3467045  13.8474779  75.1779327
  36.8489037  43.0673637  31.4859447  37.6564980  42.9854393  30.9786873
  36.5247002  42.1703606  31.5666180  58.4354935  61.8974571  47.9445076
  57.7769051  61.8147812  47.2548294  59.0727692  62.5196419  47.5937958
  61.5948601  39.0182991  45.3417969  60.7690697  39.5020561  45.3584747
  61.4781227  38.3227959  45.9890099  35.6687164  56.1920738  77.0912094
  36.2425423  56.7395821  76.5553131  36.1856766  55.4065819  77.2700500
  31.1548500  24.9553490   7.1617603  30.6805992  25.7169189   7.4954166
  32.0746422  25.1468506   7.3449121  73.4891739  10.6494217  48.4439240
  74.0231247  11.0333567  49.1394234  73.6719437  11.1901169  47.6754990
  78.2438126  58.3255005  15.1022253  77.4677200  58.3774872  15.6600914
  78.5720673  59.2238503  15.0642204  45.4038353   9.9976730  82.7761765
  44.7810974   9.9936934  82.0492554  45.2643356  10.8412580  83.2064514
   4.2013187   1.1245116  34.7034492   4.7174983   1.0102670  35.5014076
   4.7852378   1.5906898  34.1051598  14.0991068  21.6744881  15.2141342
  13.4446335  22.3542004  15.3750372  13.9900188  21.0602951  15.9401503
   5.6869426  62.3324165  69.9528427   5.0300045  62.8944931  70.3636169
   5.8316879  62.7233963  69.0912094  38.0275803   3.1044481  17.5453472
  38.6750755   2.9301085  18.2284184  37.7319221   3.9982986  17.7181110
  10.5272722  54.4004211  33.7996330   9.5731087  54.4703293  33.7693634
  10.7036591  53.4695053  33.6635551  75.8942566  14.6885834  82.3455658
  75.2652512  15.1859140  81.8228378  75.9857178  15.1929398  83.1539536
  28.8711109  66.0755386  35.2378235  29.6449089  66.1467819  35.7967453
  29.0636101  66.6400909  34.4891815  78.7923660  56.1687050  79.2351685
  79.5878220  55.6892204  79.4666367  78.3569565  55.6126137  78.5890884
  17.2687893  70.8169632  89.4807129  16.5165958  70.4009018  89.0596085
  17.3354664  71.6738663  89.0593948  50.2321625  22.5547409  24.2900524
  50.0572319  23.0772667  25.0727386  50.5351295  23.1896687  23.6409702
   7.4153051  59.7936821  28.3572063   6.9985204  60.6058578  28.0693016
   6.8569975  59.4765434  29.0670986  54.6362991  49.1922913  56.0279846
  55.2238808  48.4388771  56.0858612  54.7642555  49.5282288  55.1408539
  78.9236603  71.2686005   0.8689888  78.5377121  70.6804810   0.2198417
  78.3982925  72.0666656   0.8114766  29.5965710  27.7702045  17.7131844
  30.3205948  27.5866737  17.1145706  29.0913544  28.4551067  17.2751255
  73.3866272  44.9863281  25.2956390  73.9757690  45.4055214  24.6684113
  73.7763367  45.1705093  26.1502953  18.3426991   3.9913709  42.4333801
  18.6600399   4.7637177  41.9653969  19.0830803   3.7187164  42.9753456
  50.3974533  53.6122322  52.8643341  50.0893784  53.0001221  53.5326462
  51.1204948  54.0796127  53.2826691  48.6495094   5.2503734  43.4655685
  48.0653267   4.5010824  43.3492737  48.1725616   5.8370948  44.0525208
  53.1503220  68.9942322  22.6277122  52.3345795  69.4490662  22.8372822
  53.7783012  69.6958160  22.4554901  39.0083733  24.3700733   4.6761808
  39.9099121  24.2072144   4.9535632  38.6222992  23.4981861   4.5925608
  47.6555901   7.9476438  60.2176819  48.5843849   7.7224245  60.1643143
  47.5313950   8.2394228  61.1208267   5.9023428  15.3835583  18.8822899
   6.5096335  15.4292030  18.1438141   6.2664747  14.7045145  19.4502163
  78.1772919  44.6032410  22.3523026  78.4817276  43.9938622  21.6798382
  77.2313385  44.4625587  22.3924637  10.1261759  60.6388283  51.6643867
  10.6197157  60.4337769  52.4584923  10.2950058  59.8998146  51.0799332
  59.8201714  26.7305431  17.6622696  59.4060211  26.2060719  18.3475742
  60.6101379  26.2418957  17.4311657  10.4046984  37.4088936  19.7052917
  10.9218912  37.0788956  18.9705505  11.0548840  37.7169342  20.3366413
  56.0777168  36.9975052  64.4152527  55.8157463  37.3993950  65.2435608
  56.7604294  36.3719902  64.6578903  40.5308189  51.5236702  35.1383133
  40.7099762  51.7288322  34.2206841  40.3212509  50.5896950  35.1384239
  25.7425327  51.5632286  62.2690048  24.9993572  51.5415955  62.8718758
  26.1132488  52.4390755  62.3771439  77.4187546  47.1874466  24.0155792
  77.7896118  47.7313728  23.3207092  77.5560532  46.2889442  23.7154636
  36.2797050   2.5871992  50.9723892  36.9513206   2.6309996  51.6530151
  36.2073517   3.4852622  50.6491585  85.1896820  17.2856846  66.8987198
  85.0288239  17.4295807  65.9661713  84.3327484  17.3990631  67.3098755
  64.3083725  46.4804306   5.2868066  63.5119934  46.7521629   4.8305416
  65.0193787  46.7279549   4.6956820  62.4383049  58.7208786  52.2187347
  62.0571060  58.5424118  53.0784264  62.2939835  57.9161072  51.7209969
   9.5342140  46.5986977  65.8484955  10.4323263  46.9203987  65.7701645
   9.3521271  46.6231232  66.7878952   6.4840727   4.1645002  16.4856701
   5.6589589   4.1710634  16.0005150   6.8751101   5.0192432  16.3047390
  61.9259911  19.1058903  28.1078587  62.0299835  20.0198765  27.8431950
  62.7870903  18.8535919  28.4411583  17.3694859  65.4625549  42.4242287
  17.9135513  65.1478119  41.7023163  16.5334625  65.0109634  42.3086243
  23.7973118  26.6029091  63.4714241  23.7609959  27.5344467  63.2542801
  23.1783562  26.1919823  62.8678818   5.3468122  38.2219200   4.9766302
   4.5977507  38.8052368   4.8546524   4.9809208  37.4489441   5.4065890
  50.9060249  37.4681206  13.7509823  50.3094025  36.7944336  13.4247608
  51.5714760  37.5499115  13.0678139  24.2811222  23.9331264  17.8763943
  24.8540134  24.3429279  18.5245399  23.3974438  24.0672054  18.2189808
  54.8170166   2.1490743  48.3024254  54.8891525   1.4249099  47.6806412
  55.1831894   2.9013715  47.8374519  25.4329109  15.6362906  79.0267181
  25.4355125  14.6802511  78.9796753  24.8991795  15.9113226  78.2812500
  66.8442383   3.3386109  51.4957695  65.8970032   3.4495523  51.4140854
  67.1681595   3.3751540  50.5957870  12.3284330  13.2926207  64.7048187
  12.0226402  14.1791096  64.8968124  11.7017241  12.7215986  65.1491165
   6.9568753  36.9811096  25.6451969   6.4756827  37.8083153  25.6248360
   6.6864324  36.5269966  24.8471546  57.3622856  26.6822186  73.9313736
  58.3128624  26.6406021  74.0357895  57.0487862  27.0746861  74.7461853
  61.1190567  14.7941742  15.8444014  62.0616837  14.9596872  15.8273125
  60.9774895  14.1442127  15.1561136  69.1626587  54.1309776  11.8464727
  69.7812042  54.8257484  12.0721378  68.6844864  53.9629669  12.6584797
  44.4926147  37.2701073  11.1412554  44.1797447  37.8645668  10.4593744
  45.4145432  37.1254234  10.9283257  50.7747993  65.9165268  38.7441483
  50.3226547  66.2365799  37.9635315  50.0711250  65.6782455  39.3477211
  55.1750298  39.1483536  29.6675262  55.9471512  39.1673164  30.2329483
  54.6170082  39.8511848  30.0005035  71.1904755   0.7087057   5.9007816
  70.5365524   0.2882559   6.4592152  71.4453125   1.4961948   6.3815613
  30.0594025  69.4892197  57.8309784  29.5960941  69.1809845  57.0521545
  30.1299095  68.7152252  58.3897285  77.9522934  71.3713455  20.2033997
  78.8895645  71.2224884  20.3282871  77.7054596  71.9574738  20.9187698
  21.4269924  14.4614697   2.7847311  21.1362572  14.5409670   3.6932385
  21.0294533  15.2098808   2.3396759  70.4750290  18.1566544   3.5322304
  70.4942551  19.1132679   3.5596702  70.4910049  17.8903065   4.4514885
  85.6130371  36.1139526  73.4735870  85.4056549  36.7054901  72.7501907
  86.4252548  35.6839066  73.2060089  18.9008369  47.0219460  30.6623039
  18.0304222  46.6692886  30.4772568  18.9953938  47.7567101  30.0561619
   3.0586035  46.8019066  71.4936752   2.9084375  47.2690086  70.6717911
   2.3634751  47.1103821  72.0749435  28.7236538  46.8725014  66.9971542
  28.3417759  47.6742821  66.6400223  29.1609173  47.1529427  67.8011398
  67.0144501  22.9390221  30.0568562  67.3831635  22.6195507  30.8803959
  66.1107407  22.6235504  30.0607014  78.2308273  48.8955154  75.1881104
  78.6165848  49.3027000  75.9637527  77.7055511  49.5893784  74.7895279
  22.2597427  69.9583359  37.8213768  22.6420155  69.3269196  37.2119370
  22.8010731  69.8900604  38.6078453  50.4774780  43.7382851  32.4870720
  49.9603157  44.5287247  32.6419373  49.8276062  43.0563202  32.3172951
  21.4661007  66.6795120  20.3740711  21.8353634  65.9534683  19.8713398
  21.7043362  66.4883118  21.2812195  82.0867691  22.3010921   1.6755192
  82.9144363  22.6638374   1.9911278  81.7226410  21.8415909   2.4321568
  49.6635857  38.8187294  70.6147919  49.2016907  39.1616859  69.8497620
  49.9097939  39.5969963  71.1147079  17.4178429  43.4030190   2.1473982
  17.8564396  43.9282875   1.4781018  17.5351906  43.9001007   2.9569492
  12.6369972  25.6834641  74.7837906  12.0120249  25.8887272  75.4791336
  12.2603359  24.9236908  74.3398209  56.7873764  24.2361374  38.7873459
  56.7009239  23.6900501  38.0059700  56.0444412  23.9869919  39.3370743
  42.7216148  28.5365105  16.0566959  42.8915024  27.6096268  16.2247963
  43.5663376  28.8875656  15.7748518  62.4818115  52.7459335  88.7009201
  62.8472061  52.0471573  89.2435303  62.8753586  53.5475006  89.0456467
  71.9526062  28.9851589  74.4314575  71.7390747  28.9730110  73.4984589
  71.5119324  28.2138863  74.7880783   0.4820632  71.2778702  31.5131397
   0.1680474  70.9231644  32.3448868   1.1786222  71.8862534  31.7599354
  10.5616121  65.5143127  24.9152946  11.2687330  65.2254486  25.4921551
  10.8981934  66.3103714  24.5039101  20.4039459   9.5684519  78.0534134
  20.6889362  10.4683952  78.2118835  19.8912258   9.3395576  78.8286285
  61.6566010  17.3607960  68.7814178  61.2331734  18.0681782  68.2950516
  61.5076714  17.5799580  69.7012100  65.0915985  32.9155083  57.4403229
  65.6045380  32.6905708  58.2165489  64.8921509  32.0727844  57.0325623
  40.8749161  54.3467369  23.7721214  40.7910652  53.5371590  24.2758884
  40.2364235  54.9411888  24.1660614  64.4352264  70.3041611   6.9354043
  64.4385910  69.3850555   7.2027230  65.0498428  70.3427200   6.2026057
  69.1965103  48.9280472  21.9769402  69.5267715  49.4640083  22.6979866
  68.6988907  49.5386200  21.4330616  33.5595284  49.4177475  73.9027481
  33.3998070  48.5059853  74.1464767  32.7107506  49.8468132  74.0109711
  29.5688648  37.8336449  68.3805618  29.6356087  36.8963547  68.5629578
  29.1373501  38.1979179  69.1534348   5.6193647  24.5033989   3.1789255
   5.2562594  23.6955967   3.5420280   5.9080873  25.0012321   3.9437995
  53.7583389  39.0640678  23.2671700  54.5092506  39.1002007  22.6746674
  53.3821793  38.1955299  23.1244125  73.8120270  22.0707874  10.5152826
  73.3502502  21.8282852  11.3178930  74.6552277  21.6222782  10.5792570
  38.6491470  69.0416412  64.2237167  39.3974266  69.5697250  64.5019913
  38.3282890  69.4780273  63.4345055  30.1330662  17.2383556  13.1453543
  30.9014320  17.7896614  13.2933693  30.4800301  16.3467236  13.1163435
  24.2228584  67.3178329  18.4351463  23.8199711  68.1633301  18.2375259
  23.5742702  66.6720963  18.1548157   5.4093375  10.2237825   2.9694645
   5.8583140  10.1372080   2.1285381   5.1180186  11.1352777   2.9927168
   0.9038079  24.5990505  65.3839493  -0.0217545  24.3661366  65.4568710
   1.3714598  23.8155251  65.6731262  54.7193031  32.5633202  22.9279728
  55.0884171  33.3841057  22.6019306  53.7782402  32.7292862  22.9835587
  54.7530479  64.5405807  80.5744858  55.1157532  64.5228500  81.4601288
  55.3473930  63.9932365  80.0612564  20.2226944   5.0531211  18.2687378
  19.9178085   4.1636553  18.0894966  21.1762924   4.9961576  18.2084293
   9.9752674  44.9469070  87.5643921   9.7339401  45.6360512  86.9454651
   9.9323511  44.1393242  87.0523376  45.8588066  51.0111961  40.1292038
  45.2612762  50.4383774  40.6099014  45.3003922  51.4630089  39.4965324
  39.5563850  47.8123589  73.6880951  39.7774925  47.6540985  72.7703323
  39.0669937  47.0339622  73.9542236   8.2560053  45.5979309  39.0247078
   8.1075621  44.6784248  39.2453995   7.4497528  45.8725967  38.5879631
  82.7740402  28.3901882  36.9474983  82.1648407  28.6040230  36.2408257
  83.5305634  28.0068111  36.5037346  79.0918121  40.5802231  50.3366013
  78.9240112  41.2283516  49.6524925  80.0339813  40.6379852  50.4953575
  51.6327553   9.2196302  11.9573898  52.0498886   8.5860939  12.5412254
  52.3114433   9.8733215  11.7891483  22.1636047  43.7884674  62.4349823
  21.9252472  42.8637390  62.5005188  23.0446739  43.7827797  62.0609322
  43.8332481   5.1766362  54.4865303  43.7657394   4.2873635  54.1388702
  43.8106537   5.0646181  55.4368858  59.1796303  40.4331779  45.6573868
  58.3166695  40.0606728  45.8384094  59.4009781  40.9212685  46.4504890
  46.4628830  24.5369568   8.3185701  45.7382698  24.6778145   8.9279356
  46.4916763  23.5880852   8.1959143   6.0459194  39.2140541  79.1464005
   5.1895819  39.6393852  79.1015396   6.1331615  38.7621765  78.3070984
  73.2812729  19.5663452  40.6842766  73.1353455  19.1146622  41.5154953
  74.1081848  19.2097206  40.3598442  52.3292618  29.1609058  77.0499649
  52.5813141  28.9865494  77.9567719  51.3770638  29.0634060  77.0430679
  51.3436356  62.2392349  37.3964043  51.6458893  61.5730476  36.7790947
  51.2924232  63.0415459  36.8768768  75.8365250  60.2251701  88.6509323
  75.2687836  59.4995689  88.9105682  76.6841888  59.8157997  88.4774323
  35.0287781  50.3527298  51.7277107  35.5325813  49.9948387  52.4586868
  35.2350616  51.2874374  51.7295380  83.8343048  68.8871765   0.0037240
  84.6112747  68.9797363   0.5550656  83.2192917  68.3855209   0.5388265
  23.6421051  57.9987144  71.7707596  23.9668331  58.6714211  71.1722183
  23.2548828  57.3359795  71.1988525  86.6365280   5.6058235  76.8058090
  86.9583130   4.8462429  77.2913208  86.8551941   6.3547468  77.3603668
  10.2605495  43.1749763  55.7129745  10.9518461  43.8128166  55.8904495
   9.4629574  43.5878639  56.0440331  51.4040260   4.6909804  16.2801704
  50.6797485   4.0654011  16.2976246  52.0822296   4.2577939  15.7618847
  84.9299011  61.7485352  58.2406425  84.4110489  61.6285477  59.0360184
  85.3753510  62.5859413  58.3693161  81.9941406   3.5054567  20.8540897
  82.4227219   4.3599453  20.8050804  82.3439026   3.0189164  20.1076469
   4.0113845  42.1703262  52.6836052   3.5277588  42.9691734  52.8938026
   4.4028254  41.9016228  53.5147514  59.2286415  51.4011955  48.2987137
  58.5739861  51.4570045  47.6026192  59.4717293  50.4757576  48.3252449
  43.5192604  16.8133087   3.2396767  42.9879837  17.2578011   3.9002826
  44.4229088  17.0060558   3.4896791  48.7373962  23.1898689  79.1725311
  49.0404053  24.0580692  78.9067383  47.8393364  23.1390266  78.8452225
  86.4274368  17.0550861  50.5150566  87.2900314  16.6424465  50.5584564
  86.1474991  17.1215096  51.4279938  46.8608856  57.6745567   5.1285558
  47.2369957  58.3714981   5.6661868  46.0046997  57.5046310   5.5213680
  57.6908379   3.1247644  20.0052071  57.8775177   3.8770232  20.5668926
  57.7891502   3.4607871  19.1143341  14.6887360  53.3696442  17.8659077
  14.2876768  53.8141441  18.6127682  14.7235661  54.0369148  17.1805115
   2.9614992  45.1240158   2.9515529   3.7941055  45.5556564   2.7600143
   2.9393959  45.0591774   3.9062984  22.5837193  31.0072269   8.6126890
  23.4257545  30.6420784   8.3408899  22.7881966  31.9003201   8.8898315
  43.3245087  66.9935455  64.4776688  42.6138191  66.8594818  65.1047058
  44.1087265  66.6923370  64.9364777  68.7395020   7.1834645  -0.0484489
  69.0035934   7.6272101   0.7575133  69.5459824   7.1149554  -0.5594512
  45.3475037  42.8520317  66.4293289  46.1201057  43.0058517  65.8855820
  45.5544090  42.0565834  66.9199219  48.8774872   1.2697828  58.0243988
  49.6401520   0.9438201  58.5022278  48.5270195   0.4989132  57.5781212
   5.0124974  42.2734146  85.7620087   5.5012875  41.5778236  86.2018509
   5.5478363  42.4979324  85.0009308  27.6555252  63.0983887  39.1866188
  26.8029442  63.4075813  38.8804550  27.4983253  62.8154182  40.0874252
  17.4170513  63.3064766  45.6671104  17.3854923  64.1768188  46.0642700
  16.7782440  63.3447227  44.9552841  81.6451263  44.6629257  54.1781883
  82.5625076  44.7376251  53.9153709  81.2691422  44.0362740  53.5599861
  53.2870483   1.3282853  27.1583500  53.2450333   0.9107762  26.2980289
  52.4171867   1.7077595  27.2831554  71.6766052  29.9413261   5.8750224
  71.2359467  29.7808304   6.7094646  71.5308914  30.8714542   5.7022238
   4.5101047  40.1952820  39.3082695   5.2341456  39.5745621  39.2264137
   3.7638602  39.7465973  38.9107399  44.4508476   3.0644133  34.2982063
  44.1403656   3.9417598  34.5220222  45.1930580   2.9162679  34.8842163
  87.0724792  52.2167206   4.3181124  86.8966293  52.5718880   3.4468119
  86.3848419  52.5875397   4.8711772  76.7315292  60.0254135  81.2563553
  76.2602386  60.7293663  80.8107529  76.1623001  59.2612228  81.1656494
  74.3323441  18.5390682  43.0412292  74.8847046  19.0943279  42.4909439
  74.9038086  18.2707310  43.7607117  49.8037872  28.9569340  15.1489649
  49.6040344  29.3859444  15.9809990  50.0167465  29.6757984  14.5538912
  15.2707710   5.3710499  55.2074852  14.9848356   6.2170300  54.8628273
  16.2176800   5.3631601  55.0677299  63.2136688  70.9634628  58.3844566
  62.9309502  71.8617630  58.5557823  63.5757179  70.9911041  57.4987984
  84.0180511  44.7264824  48.8680725  84.4104309  44.6426697  47.9990234
  83.9671707  43.8284683  49.1955109  80.4013824  37.7974091  45.9966850
  79.5157700  37.7504005  46.3568420  80.9745483  37.6770210  46.7537994
  61.9063759  67.8304672  67.9063034  61.3156509  67.5457535  67.2090073
  61.5541496  67.4254532  68.6988525  60.8795815   9.1287975  27.4736691
  60.0372887   9.2708063  27.0416870  61.0989647   9.9784822  27.8559475
  83.1317062  65.5205688   9.2886715  83.3123550  65.9421692  10.1288195
  83.9591827  65.5749207   8.8105927   0.7038757  51.5073051  47.2699814
   0.4872814  50.7092094  46.7879372   0.8306102  51.2149963  48.1725998
  85.1293182  57.7285957  86.8632355  84.2418671  57.5923080  86.5314255
  85.3254166  58.6419525  86.6545334  55.7242432   6.9526505  29.9213848
  55.0054970   7.5391321  29.6854305  55.9989319   7.2476668  30.7895699
  37.2497406  13.3360596  19.0822544  36.4669838  13.4097919  19.6282330
  37.9447327  13.7364407  19.6046658  81.7144318  49.0150185  77.6141586
  82.6549606  48.9760857  77.7877274  81.6491928  49.0801697  76.6614075
   4.9841199  40.8922234  11.3265228   4.2673383  40.2607841  11.2653580
   5.7708440  40.3538704  11.4129744  18.3683681  56.1830292  62.3603020
  18.8496418  56.2040863  61.5331612  19.0474529  56.1077614  63.0306854
  55.1441765  60.4968376   4.9906034  55.8286858  59.8646851   4.7713771
  55.1414223  61.1111031   4.2565022   4.6880527  28.0958004  81.0934296
   5.3763533  28.7533894  80.9931717   5.1488285  27.3094769  81.3860245
  86.5765076  12.4215374  61.5250053  86.7070389  13.3585577  61.6705627
  86.2459183  12.3621569  60.6286697  40.6118317  11.9715290   6.4879680
  41.5207558  11.7485123   6.2870884  40.4422112  11.5495653   7.3302307
  70.8334656  49.6393242  85.5096512  71.2105637  49.7950096  84.6437531
  69.9122543  49.8822365  85.4169083  37.5183487  64.8241272  11.1489820
  37.1721153  65.4323730  10.4959974  38.2755585  64.4216537  10.7236805
  80.4360046  31.2234745  16.7944870  80.1626358  32.0665817  17.1559792
  81.2982407  31.3937092  16.4152775  80.7340622  55.9098778  74.2893982
  80.5497131  55.4178467  73.4893036  79.8743286  56.0565567  74.6838303
  74.7459183  34.4259033   4.2223129  75.3950653  33.7320747   4.3382545
  75.0911942  35.1634331   4.7253747  28.6762733  38.4495010  82.2489700
  29.0734711  38.0524979  81.4738159  28.1898518  37.7355461  82.6611481
  51.3481598  36.4788589  86.8859634  51.9793205  35.9443321  87.3677826
  50.5431671  36.4211578  87.4006348  84.7290268  42.4836540  54.8947182
  84.4448624  42.6592789  55.7917290  84.0702744  41.8817711  54.5482864
  35.0769615  24.4596882  84.7282715  35.3082657  23.9425354  85.4998169
  34.5480614  23.8680077  84.1930923  41.0179977  18.7303677  28.3756161
  40.6123085  19.3378201  27.7570286  40.2846489  18.3733177  28.8765659
  64.7640381  15.1227732  61.4584122  64.2547684  14.6123629  62.0879784
  64.7129745  14.6201115  60.6454201  68.3581848  54.0768585  59.1847305
  68.8928452  53.9335213  58.4038124  68.0319061  54.9718018  59.0906525
  22.3515892  54.4323120  53.7176895  23.1204700  53.8647957  53.6631165
  22.5838814  55.2010803  53.1968536  85.0963058  64.6481705  13.6147432
  84.5889206  64.9194870  14.3797102  85.8329544  64.1566086  13.9779940
  57.1381989   1.8921992  13.5427113  57.5948181   1.1158594  13.8667860
  57.3254471   2.5691223  14.1930532  65.8704910  47.0659599  22.3066196
  66.7814636  47.2699127  22.5182056  65.7789078  46.1359596  22.5138569
  84.4139709  46.2158089  38.5577507  83.6927719  46.8320122  38.6858101
  85.2010803  46.7245064  38.7524834  82.4097214  38.2665520  29.3042946
  83.0959244  38.1014252  28.6577034  82.2177200  39.2001953  29.2166672
  78.3371582  59.8966103  68.8122253  77.7195129  59.1870613  68.6353226
  77.9910660  60.6429672  68.3229446  55.9163666  62.9760170  20.7737656
  55.0572891  63.2108154  20.4229279  56.5006371  63.0052719  20.0161362
  85.4113998  48.0425682  62.7837524  85.9283829  47.3622360  63.2151566
  86.0452957  48.5243187  62.2524109  36.6347466  63.8807869  82.8463211
  37.5352364  64.1818237  82.9676590  36.5473022  63.7620239  81.9005508
  13.2454414  58.7240791  50.5019035  13.2836790  59.6480713  50.2549095
  12.3105087  58.5375519  50.5875816  43.6745834  70.0379257  41.3048630
  43.0272827  69.8292999  41.9784431  43.2092590  69.9111023  40.4780502
   2.4146159   1.5309788  83.2318268   2.6482866   2.4128304  82.9420547
   3.1765857   0.9960226  83.0094376  58.7669449  14.6012297  19.2834053
  58.0622711  13.9560299  19.2252502  59.1929131  14.4158916  20.1203251
  62.3100090   4.6279345  83.8376389  61.9378662   4.4693947  82.9701080
  61.5799866   4.4877763  84.4406738   5.5558281  19.9468498  14.4953337
   5.6531315  19.6328049  15.3942995   5.2629638  19.1794090  14.0039082
  42.9138260  12.6741362  50.1279449  43.2314949  11.7771473  50.2315369
  43.5318375  13.0782499  49.5188599  54.1626320  66.0282669  52.3978653
  53.9393997  65.8823090  53.3171539  54.1927528  65.1508484  52.0164833
  66.0223312  53.2417412   2.2901814  65.1286469  52.9675026   2.4959714
  66.2513123  53.8553429   2.9882438  71.3064117  53.1584015  24.4221497
  70.7155380  53.2187805  23.6715107  71.2577362  52.2413521  24.6921177
  21.2348423  60.1555595  66.4329910  21.9785881  59.9491196  66.9990768
  20.6938267  59.3661194  66.4509125  45.0539017  46.9783058  73.2835770
  44.6188469  47.2999306  74.0732117  44.6282120  46.1409035  73.0997849
  24.5518284  17.2980652  73.9931870  24.8498116  17.6221409  74.8431320
  25.2534027  17.5356464  73.3869019   8.5717211   7.3110032   0.7501656
   9.1378021   7.5987048   0.0339171   8.9355974   7.7341809   1.5278196
  31.9266453  55.7504158  70.9715500  32.7168541  56.2307701  70.7244339
  31.3491592  55.8327065  70.2126236  37.2727318  69.2332535  81.0834808
  37.8138199  68.7522507  80.4573135  36.9461861  69.9854050  80.5896530
  46.2912331  26.3296719  55.0798531  46.8899269  26.3775349  55.8251762
  45.5961990  26.9531956  55.2905121  82.3555145  38.2949638  24.9981976
  83.3056412  38.3967209  24.9422569  82.0064392  39.0056152  24.4602852
  80.4786072  21.3640461  82.3419724  80.6119690  20.4184933  82.2758026
  80.4031448  21.5301056  83.2816315  65.0446701  49.1668968  46.9091454
  65.7076416  49.4909058  47.5188332  64.4878998  49.9258347  46.7352219
   1.4412714  24.1812973  88.9239349   0.9268491  24.9747696  89.0722656
   0.9252658  23.4826241  89.3262100  36.4885445  16.3155079   6.8343077
  35.7878418  15.6664753   6.8975897  37.1712341  15.9888449   7.4203629
  21.8076077  36.0049896   6.7462635  21.8768692  35.4885063   5.9433451
  20.8660965  36.0844688   6.8994584  76.5175247  43.4175529  88.8997040
  76.6589127  43.0320473  88.0350571  75.6037674  43.2187576  89.1040649
  75.8748169  54.8500519  34.4720345  75.2937698  55.5693398  34.2245483
  75.7017059  54.1681557  33.8229713   2.5761199  26.7857342  65.7911072
   1.9520122  26.0630188  65.7247543   2.1049325  27.5419636  65.4413452
  39.9768677  29.6840534  76.3748856  39.8502655  29.6064987  77.3204956
  40.9185410  29.5673523  76.2489395  60.3678818  26.7648106  35.2499161
  61.1736908  27.2803478  35.2834511  59.6667099  27.4102535  35.3393135
  21.9407082  59.3759270  19.2116222  21.6042538  58.5159264  19.4634800
  21.7697868  59.4340820  18.2716026  40.1611710  63.7850151  25.1145554
  39.8736115  63.0196838  25.6123619  40.0899734  63.5156670  24.1987953
  70.4189453  60.2448692  50.4361076  70.3028641  59.3212700  50.2131310
  71.3047256  60.4534340  50.1392555  58.5271988  49.8043861   8.7863674
  59.3052177  50.3454971   8.9209728  58.3621254  49.8522873   7.8447261
  76.4720230  27.4437580  55.2083206  77.1257172  27.0432320  54.6351738
  76.6453400  27.0654678  56.0703468  49.0982170  38.7397156  43.9664421
  48.9324341  39.5510788  44.4464798  48.7788162  38.0486298  44.5466270
  18.9217987  47.6179390  79.2829666  18.3810310  47.4097633  78.5210876
  18.7275944  46.9227715  79.9116669  36.3693619   2.1544559  75.5551300
  36.4639740   2.9151807  76.1283417  37.1997223   2.1068151  75.0813446
  66.1931000  41.1267548  86.9343567  65.3966904  41.1104202  86.4036102
  66.5203247  40.2277718  86.9029617  31.2957687  65.0434952  29.3046093
  32.2477875  65.0944748  29.2191830  31.1460629  64.2828751  29.8660984
  81.7536392  15.6764393  64.4530640  82.6412277  16.0055580  64.3112564
  81.8258896  14.7304182  64.3263474  82.3369980  11.6311035  17.6258965
  82.9527435  11.9270258  18.2963619  81.7982407  10.9751415  18.0682583
  41.3985939   1.1639879  73.8770523  41.3779297   0.9870652  74.8175354
  41.0763931   0.3575348  73.4744949  83.8742676  49.3795395   9.9268780
  84.0101776  49.3255806  10.8728418  84.1425705  50.2690697   9.6967125
  27.0391655  69.3848267  18.4006786  27.1007023  70.1109161  19.0213528
  27.9455547  69.2068405  18.1496563  54.8209381  40.4326553  34.7627449
  54.2238350  40.6904373  35.4650650  55.6887131  40.4542885  35.1661377
  62.3584328  33.6189880  33.9401398  61.7090683  34.1844749  34.3582115
  61.8519783  33.0835342  33.3293839  61.4519691   4.7026334  18.0434437
  61.6980057   4.6981368  17.1184158  62.0862350   4.1211953  18.4628124
  50.8581581   0.1090914  66.8376160  50.5565338   0.1754489  67.7436218
  51.7886391   0.3299806  66.8781662  31.2329121   9.0823374  83.3377533
  30.5240841   9.5778189  83.7479935  31.5871925   9.6751928  82.6750031
   7.9763894  45.0568581  78.7716522   8.0232077  44.4509735  78.0320969
   8.0659018  45.9241943  78.3767548  44.4333801  43.8693466  48.7849731
  44.5494232  43.2248230  49.4830818  44.8310661  44.6692047  49.1289291
  19.1571159   8.1327028  31.5057640  19.5022259   7.2769117  31.2512989
  19.5012054   8.2772627  32.3872032   8.7032442  49.8429108   1.0358360
   8.7497187  49.3279152   0.2303221   8.1208582  50.5715446   0.8210071
  43.6347389  33.3436508  41.3925323  43.4533081  32.4534912  41.0909882
  42.7982330  33.6543770  41.7388573  77.0665970  54.1245651  53.9434166
  77.6481247  54.6373787  53.3820953  76.1861801  54.3362617  53.6331367
  79.0701981  43.9195862  38.7900200  79.6436844  44.5060959  39.2833328
  78.1849060  44.1833000  39.0409126  85.2596436  71.4252243  25.4925442
  85.0528564  71.3981400  26.4267483  86.1846390  71.6691360  25.4589615
  38.9387474   0.5265983  12.3996363  38.3390121   0.5237637  13.1456518
  39.2084885  -0.3869921  12.3057022  51.8327599  66.4966202  41.3094597
  51.4811401  67.3857117  41.3553505  51.7523422  66.2545776  40.3868637
  -0.1355498  63.6930389  35.0463982   0.5175373  62.9933281  35.0570297
  -0.3686655  63.8170891  35.9664536   9.8528948  70.8983536  85.4928436
  10.4350510  70.1618652  85.6796799  10.4247923  71.6657562  85.5088501
  54.7893333  36.6093178  36.5914841  55.2335815  37.3253136  37.0455971
  54.4778709  37.0001488  35.7751045  55.7458305  39.8162384  58.6808586
  55.5555725  39.2035828  59.3912735  56.5734596  40.2257576  58.9329567
   0.3829993  13.2935877  24.3042374   0.0965847  14.0952492  24.7418880
  -0.4295656  12.8445282  24.0711803  34.0381050  70.1272812  74.9977875
  33.9299545  69.2736282  75.4170914  33.8169060  69.9727631  74.0793991
  26.8152733  54.0376358  62.3227730  26.4195881  54.8927879  62.1543121
  27.7544270  54.2146721  62.3764496  48.9638252  46.3916283  52.7583618
  49.3660126  45.8048248  53.3987808  48.4311066  46.9895096  53.2827530
  47.0913811  25.9979877  17.1491394  46.8052216  26.6606770  16.5204983
  47.6648445  25.4210701  16.6446228  18.3868809  53.7985306  10.8838453
  18.9486809  53.8659592  10.1117916  18.7068520  53.0237389  11.3459597
  13.5694399  62.4681969  64.4712524  14.3389778  62.5984192  65.0254059
  13.8843164  62.6307869  63.5820656  61.9101906  21.5863171  64.4743347
  62.0489197  20.6670856  64.2462997  62.4418144  22.0723343  63.8439445
  76.2535248  37.9718933  47.5459099  76.6491470  37.5857277  46.7645035
  76.0104828  38.8581886  47.2782516   3.3531988  26.7519226  23.1104240
   3.1806378  27.2389870  23.9161663   2.5117631  26.7376080  22.6543388
  57.8664780  29.0368233  32.6131897  56.9235039  29.0640774  32.4510460
  57.9488220  28.6441555  33.4822464  10.1871128  58.6441422  61.8800049
   9.6077070  58.0299454  61.4291344  10.7309017  58.0919952  62.4418373
  49.9629898  20.8675976   2.5618813  49.9662170  21.1817017   3.4660721
  50.2178726  19.9472675   2.6271284  55.0109215  33.8274117  36.9818649
  54.1565247  33.6981201  36.5701332  54.9433289  34.6802826  37.4111328
   3.0120058  41.8482857  48.7698135   3.4832394  41.7123108  47.9478149
   2.6289501  40.9943085  48.9703827   1.9627522  59.6622772   2.3514981
   2.2223573  59.4225006   1.4619229   1.0265349  59.4664764   2.3887782
  21.7802315  19.5831623  79.5538940  21.9578381  20.4684620  79.8715897
  22.4511452  19.4282055  78.8889923  39.7529755  64.7463608  69.4416580
  39.8130188  64.5263443  68.5120239  40.3708954  65.4681778  69.5573502
  79.7188110  13.9455910  48.2362595  78.8206940  13.6228657  48.1622696
  79.6229858  14.8719091  48.4575844  28.8050537   4.4113226  20.5910416
  28.8984947   4.3025417  19.6446457  28.8288326   3.5195858  20.9381332
  16.8406944  70.2469482  38.1922646  16.1433907  70.0100479  37.5808067
  17.0193348  69.4404831  38.6759300  55.0817947  51.1082268  78.4976730
  55.7892685  51.5565910  78.9610138  54.6784630  50.5480423  79.1608124
  12.9147692  56.0851974  50.2379646  13.2210627  56.9664116  50.4521523
  12.7433319  55.6782036  51.0872002  11.8208294   9.4986620  74.3048706
  11.2515545   9.3367290  73.5525818  12.4150848  10.1892395  74.0112839
   2.7948127  31.7098083  40.8293266   2.6255791  30.8444862  41.2019005
   2.3944156  32.3198051  41.4488564  35.5883942  21.3009357  86.9053574
  36.4157829  21.3890686  87.3785324  35.7420273  21.7423000  86.0699997
  40.3357315   9.8385468  72.7022858  41.0517464   9.8562403  72.0672760
  40.0128403  10.7393732  72.7243423  78.3860626  37.8514633  66.8914337
  78.9284744  37.0830765  67.0692139  77.7881317  37.5677490  66.1999054
   8.8825846  61.5792542  46.3767624   9.4948845  62.1099243  45.8671417
   8.2273197  61.2924461  45.7406807   9.6557198  36.5852547  35.4081688
   9.0262527  35.8871918  35.5890274   9.8791780  36.9355888  36.2704697
  32.1848869  53.3927689  14.2724819  32.4122810  54.0941048  13.6620255
  32.9423943  52.8077850  14.2581320  74.2917404  19.9351902  46.8403625
  75.1332779  19.9234390  46.3843880  73.6463623  19.7553711  46.1567078
  20.7252750  46.6977654  68.1416779  19.8131466  46.9503708  67.9986954
  20.6783142  45.7894287  68.4399185  17.9671440  62.5530777  58.0648994
  17.4811935  63.3716202  58.1652756  17.4969158  61.9263954  58.6147919
  38.1374512  63.2642975  35.3851662  38.9617424  63.6914291  35.6182518
  38.1455994  63.2338905  34.4284859  22.6801014  66.9672394  30.9371433
  22.0693932  66.2309647  30.9712944  22.1357098  67.7193680  30.7044029
  67.9217834  55.3861771  85.2146301  67.3154678  56.0788002  84.9521637
  67.3829041  54.7727356  85.7141571  49.8464890   4.7940040  65.2694473
  49.4799347   3.9324470  65.4684219  50.7366219   4.6118364  64.9682617
  12.0513353  60.7244949  57.5898361  11.1624498  60.6074638  57.2545509
  12.5457087  61.0648193  56.8441772  -0.0254326  33.3580704  51.2254562
  -0.4496830  33.7704773  51.9778938   0.6292111  32.7748451  51.6095390
  39.3013573  68.3374710  44.8231087  38.6054688  68.0028992  44.2574005
  39.0865746  67.9994431  45.6924973  20.4757519  56.5755386   2.4272220
  21.3757629  56.7758942   2.1701846  20.5016460  55.6564636   2.6934195
  62.1225967  15.4724445  44.6674271  61.2748451  15.1348248  44.3783531
  61.9428139  16.3736801  44.9351654  70.4655609  61.7124634   2.5345438
  69.9920120  61.3848572   3.2991719  71.2729874  62.0812225   2.8927600
  17.2022457  48.7298203  40.1222954  16.7170467  47.9424171  39.8756866
  16.6329556  49.1752586  40.7497711  75.6154022  18.8956432  59.6947556
  75.2345810  19.5600452  60.2690201  75.0351181  18.8757191  58.9337654
  17.6152992  23.1724148   3.0975964  16.7230072  23.2496147   3.4353657
  17.6452637  22.3038101   2.6965256  24.3510361  62.8309097  88.1851425
  24.7896614  63.2547989  88.9228134  23.4179363  62.9605713  88.3546753
  40.1483612  52.6291313  11.1247282  40.6090851  51.9022484  10.7056723
  40.0196838  52.3418350  12.0286827  77.1618118  28.3973198  72.4104843
  77.9567795  28.2016830  72.9064484  77.3486252  28.0844326  71.5253677
   0.1313346  70.3325119  43.9522896  -0.0371427  69.3922043  43.8916855
   1.0400923  70.3945389  44.2464714  51.7063599  53.6915588  73.2234421
  52.6260719  53.9376755  73.1244965  51.5840683  52.9693260  72.6072845
  42.3706589  35.2473373  76.7416229  42.0072441  36.0780182  76.4348221
  43.2465744  35.4708023  77.0563812  50.3437080  66.0709610  78.9364319
  49.7259636  66.3314362  79.6196442  49.9203110  65.3318024  78.4998474
   3.7508509  51.0318909  74.3574524   2.8959789  51.4617958  74.3328018
   4.1431065  51.2298393  73.5070572  18.0278435  58.6548347  28.6693726
  18.1601143  58.7012100  27.7224903  18.6246014  59.3122330  29.0270538
  32.0257263  50.9186478  85.6521606  32.9569130  50.9790878  85.4389191
  31.8466320  49.9787292  85.6788025  48.3746109  40.3569107  15.6173258
  48.9623680  39.6910477  15.9742603  48.5466919  40.3483849  14.6757593
  69.6989517  16.0767651  51.8215027  70.0469666  16.9666519  51.7647667
  70.4300385  15.5166006  51.5608330  65.8835068  13.4901867  59.1709595
  66.5070038  12.8144064  59.4370499  65.3632431  13.0778875  58.4813461
  34.7017212  59.3248596  62.8922195  34.4648819  58.7431221  62.1699181
  35.6515884  59.4197845  62.8217125  77.1261749  56.9456940  70.7310715
  77.9687958  56.8669701  70.2838364  76.6945801  56.1050491  70.5785141
  38.2607613  62.8094254  73.5409012  37.7839661  61.9801483  73.5062790
  38.8820381  62.6986313  74.2605972  82.6530151  11.6707468  14.7744274
  82.8985901  11.6312857  15.6987476  83.4389267  11.9903765  14.3312407
  18.3127632  24.0437546  21.6012306  18.0341396  23.5037613  22.3408298
  18.9128914  23.4839382  21.1086006  71.4348755  50.3283920  77.9696503
  71.4829330  50.6270523  78.8777924  72.3469467  50.1892433  77.7146988
  36.8079567   5.3308139  53.0455055  37.0949783   5.5464106  52.1581688
  36.1458511   5.9910955  53.2501373  28.1199970   2.9677052  50.1875763
  28.2625179   3.7812881  49.7038383  27.1749706   2.8231575  50.1399765
  80.7239609  70.6635666  56.6008492  80.8893051  71.5371323  56.2461891
  80.9519653  70.0681229  55.8869209  82.1917648  39.3399696  38.9955826
  82.6950607  39.7721863  39.6855888  82.3853989  39.8449135  38.2057915
  57.7024422  31.6932278   9.2380800  58.6539650  31.6512280   9.3333311
  57.4250565  30.7779541   9.1985645  30.8098927  36.1560059  82.9698792
  30.6821003  36.2416306  83.9146347  30.1249561  35.5489426  82.6895828
  21.5563183  55.1051750   8.7780790  22.0949192  54.7786293   8.0573092
  20.7557735  55.4175339   8.3564262  12.0127897  66.6443024  65.8010254
  11.9565201  66.3231201  64.9010773  12.0741835  65.8520508  66.3346863
  81.6650620  18.9289169  54.7721443  80.9197540  18.4378891  54.4262619
  82.3876190  18.3011150  54.7692528  58.3956299  44.6106415  59.5818253
  58.9946709  43.9469032  59.9236336  57.9319954  44.9351616  60.3538132
  51.3545265  15.9633856  32.8709831  51.3161316  16.5064526  33.6582794
  51.0435028  16.5358658  32.1697235   7.3582568  47.1441956  70.4825439
   6.9202628  47.3477097  71.3089676   6.7518706  47.4506416  69.8082886
  83.8900986  45.9221535  34.5644531  83.7626724  46.3690681  33.7276382
  84.8011169  45.6291924  34.5432396  25.2911110  12.4242601  19.6858387
  25.4702244  12.8474550  20.5255146  25.1373558  11.5060711  19.9083672
  48.9883690  32.7907524  65.5850143  49.8794441  33.0420952  65.8280029
  48.6388817  33.5571671  65.1303711  75.7844696  19.9128819  79.4637985
  74.9669800  19.4168701  79.5075684  75.9955902  19.9448071  78.5307159
  22.1396961  15.8977165  67.2174911  21.6889706  15.2025414  66.7381058
  21.7863922  16.7087135  66.8518524   2.1639838   8.0109339  26.0305157
   1.7877859   7.2205482  26.4178104   2.2648787   8.6138859  26.7670631
  18.8713379  60.0100975  10.2396908  18.1605930  60.6252060  10.0588179
  19.6698456  60.5118217  10.0757113  74.4242477  29.8826065  48.6180916
  73.4905624  30.0934696  48.6188889  74.8360901  30.6206894  48.1688156
  11.4012175  43.0078392  70.8302612  10.8989248  42.4038811  71.3772278
  12.3157253  42.7898712  71.0102539  58.0222359  11.3174448  54.6473007
  58.0612564  10.6175737  53.9954643  57.2180481  11.1443386  55.1367378
  53.3657494  20.1900463  84.7534332  53.0880585  19.6058369  84.0478668
  52.7311134  20.9063778  84.7350159  59.7028008   4.9073963  72.8325043
  58.7633247   4.8308020  72.6659317  60.0555496   4.0442486  72.6162262
  40.7350426  41.0916328  74.4721222  39.8873482  40.7349358  74.7374725
  40.9284859  41.7620697  75.1273499  78.6772995  26.3494339  85.0924149
  78.8958054  26.2329178  84.1678009  78.4281464  27.2707520  85.1653900
  69.7116241  64.1193771  52.1966743  69.2471542  63.5415688  51.5911674
  69.1461182  64.1627045  52.9677467  62.8751793  38.2701340  68.8013153
  62.3466835  39.0310707  68.5606995  63.2972183  38.5217285  69.6227875
  55.7914810   4.1495643  86.7017441  56.1666412   3.6616004  87.4348068
  56.4391251   4.0659413  86.0018921  81.6566162   5.1510410  24.0411644
  81.9835892   4.7833881  23.2200985  80.7479172   4.8544106  24.0913353
   2.5907543  63.0865517   0.8006411   3.2794542  63.5794411   1.2467175
   1.7899462  63.3118553   1.2741128  24.0303936  61.0234756  35.1929665
  23.9449768  61.9738693  35.1175461  23.6292667  60.8131104  36.0362206
  51.5456390   1.6251925  69.5630035  51.0130615   1.2959616  70.2870178
  51.5453377   2.5754316  69.6782303  42.9301758  69.8814697  55.4339294
  43.0399246  69.7253342  54.4959488  41.9855499  69.8238144  55.5774193
  45.5060844  15.0968733  27.4049797  44.7092018  15.6134377  27.2851086
  46.2160759  15.7369976  27.3561401  41.2392845  57.4065247  77.0336456
  42.0975952  57.8285027  77.0718918  41.2104073  56.8513374  77.8128586
  41.9406662  47.7367516  13.8854189  42.5675240  47.3969460  14.5240211
  41.3792725  46.9892464  13.6797285  47.9432106  38.6677856  75.9125977
  47.3992538  39.0787697  75.2407074  47.6378822  37.7612228  75.9464798
  84.2932358  23.3279839  30.7137165  84.3316879  22.5428734  30.1674976
  83.4156952  23.3112869  31.0956573  14.9939327  53.1987228  73.5262146
  15.4340801  52.3487625  73.5348358  14.3954535  53.1660995  74.2725372
  18.0525360  47.0202255  67.6175308  17.3128185  47.2884254  67.0724487
  17.9534130  46.0723114  67.7062378   8.9157848  20.1257057  72.2852859
   8.4365816  20.7339096  72.8480301   8.2982883  19.9083996  71.5869217
  78.7053680   1.1990013  11.4624033  79.3444290   1.3131602  12.1658249
  79.1676102   0.6855789  10.7998600  66.8659363  45.3045502  19.1024551
  67.6299744  45.3060150  18.5258560  67.2117462  45.0490227  19.9576454
  68.3772659  15.4227667  83.4305954  67.5752029  15.8213024  83.7683792
  68.3748703  15.6339798  82.4969940  23.0916634  47.3003769  75.3761215
  23.8076401  47.8662605  75.0873566  23.2627583  46.4609146  74.9491959
  86.6639481  38.5007744  31.0843353  86.0063629  39.1383438  30.8062649
  86.4329987  37.6986542  30.6158333  77.5471039  62.8564072  44.6004906
  77.4704056  61.9336624  44.8431625  77.5999451  63.3202362  45.4361343
  14.4027920   9.1058426  64.2902374  15.2639656   8.8283224  63.9778366
  14.2678547   8.6065493  65.0956726  17.1556950  44.7595291   4.4919720
  17.6532574  44.7771873   5.3094993  16.5088100  45.4581947   4.5901556
  62.9811821   3.8913200  62.7679214  63.6410141   4.0781441  63.4357147
  62.1477928   4.1014218  63.1892853  76.9073639  65.7822723  80.7101669
  77.5335007  65.8785629  79.9925919  76.0519867  65.9123535  80.3007278
  69.4311523  30.3858604  33.9662971  70.1904907  30.8950748  34.2497520
  68.6826019  30.8304272  34.3641167  47.7463722  15.0884867  35.7516708
  48.2649384  14.2877522  35.8300629  47.9806633  15.4425411  34.8937759
  44.0078659  16.0670757  30.8764477  43.5944977  16.0857220  30.0133076
  43.9099388  15.1610785  31.1693859  32.2751541  34.0803299   4.5854526
  32.8012009  33.8870697   3.8094647  32.6523438  34.8873978   4.9355974
  61.7488022  30.8113003  15.4312372  61.7138176  30.0864773  16.0554466
  61.3713264  30.4537106  14.6275730  58.0714226  60.1963615  13.0439711
  58.0863953  60.8105087  12.3099213  58.9942970  60.0373421  13.2420740
  64.5249100  31.6453362  13.3604507  64.2306442  31.6317997  14.2711954
  64.5749893  32.5751534  13.1387215  30.7686367  48.4034309  27.4369202
  31.2766418  49.1025200  27.8485489  30.7305489  48.6476555  26.5121841
  20.8570251  50.0817413  16.6060925  20.3001938  49.3051758  16.5502548
  21.2057419  50.0628433  17.4973106  60.6242027  44.3960381  83.6672668
  60.1312180  44.1329575  84.4444351  61.0234833  43.5855446  83.3511887
  14.9774256  59.4779778  30.9343777  15.0247498  60.0032997  30.1356125
  14.0507183  59.2537422  31.0190201  38.6052322  18.9528141  79.7273102
  38.6948929  18.6281796  78.8313141  39.4449005  19.3721714  79.9152679
  73.2574997   8.0119114  74.2949524  73.6538467   8.1198034  75.1595306
  73.0935364   8.9054651  73.9934387  65.8231812  11.0811834  71.7781448
  65.3834534  10.5241995  71.1357727  65.4786987  10.7907705  72.6226654
   6.3693628  16.6922226  63.5887489   5.9701233  15.8416071  63.4062805
   7.2493634  16.4817257  63.9010315  28.7042141  52.2101288  63.9197998
  28.0792637  51.7751846  63.3397217  29.2847481  52.6904335  63.3294449
  74.5774536  55.1189117  78.7255936  75.1572266  54.5297890  79.2083206
  74.6775131  55.9646301  79.1626053  38.6352730  43.9712677   6.8218632
  38.5344925  43.6113129   5.9406657  37.7456017  43.9946060   7.1742454
  82.7704849  32.8000450  69.9204865  82.2142105  32.6394081  70.6827087
  83.3773270  33.4828262  70.2064819  66.2990570  29.4418831  40.6488571
  66.5688095  30.3110981  40.9453812  67.1167145  28.9498615  40.5741348
  31.5978622  62.0194740  47.5771217  30.7713642  62.0951042  47.1002464
  31.3499966  61.6658669  48.4313812  37.1946411  64.6396255  57.6053772
  37.4765396  63.8086815  57.2228966  38.0078888  65.1200790  57.7603798
  38.2963066  63.7967415  38.9868507  37.9363556  64.6502914  38.7457695
  38.9477158  63.6117668  38.3103294   0.9587818  51.1937370  43.6092911
   1.0359039  51.2837677  42.6594620   0.0297157  51.3379898  43.7888985
  60.3247566  69.1653976  82.4071732  59.5852013  68.8763046  81.8726501
  61.0702133  69.1615753  81.8067551  45.7814560  51.5289154  83.5505981
  46.4870033  52.1181793  83.8174362  45.1612549  51.5524521  84.2793198
  64.2750397  21.3341923  87.2824707  64.6878204  20.5306873  87.5990448
  64.9948883  21.8416023  86.9075317   3.9271977  56.3968124  46.3991241
   4.2611537  55.6193123  46.8465652   3.1550095  56.6508522  46.9045181
  64.1265259   0.4092756   1.7927859  63.5193405   1.0785906   1.4772285
  63.7810478   0.1570526   2.6490917  37.4052658  68.8251801  -0.0185870
  37.3081093  69.7736511  -0.1033482  36.5194435  68.5085373   0.1583076
  60.9158859  24.5501957  72.5957260  60.2830505  24.7217274  71.8983536
  60.7897606  25.2685680  73.2156219  30.1898289  59.6778870  59.4235992
  30.4069176  59.0281448  60.0921364  29.8591900  59.1629410  58.6875687
  78.2072144  63.3550072  65.3747482  77.4168091  63.7894974  65.6952362
  78.7775345  64.0710983  65.0951385  26.1806278  58.8426056   7.7975988
  27.0874634  59.1201744   7.9273682  26.0346928  58.1784630   8.4712830
  70.7767715  56.7585297  38.8184357  70.3452682  56.8604393  39.6667595
  70.8259048  55.8116837  38.6869202  25.4439526  22.8804646   8.4204836
  26.2133408  23.2258873   8.8732023  24.9693699  23.6582603   8.1271610
  65.6094666  16.6572247  45.7984734  64.7410507  16.4618702  46.1504974
  66.1408234  16.8573704  46.5690842  48.4837608  41.8702927  88.0533142
  49.3346710  42.1772194  88.3663330  48.4241371  40.9681244  88.3675995
  63.6178360  25.9980316  62.4750099  64.4244843  25.6655827  62.0812645
  63.3451729  26.7106323  61.8970070  11.0685673   4.2593741  59.9103508
  10.2608232   4.4657688  60.3806496  10.8853054   3.4278708  59.4730301
  43.4405670  52.4516335  22.2287216  43.4918861  51.5855637  22.6330986
  43.8202896  53.0424957  22.8790512   0.7370951   6.2378044  27.5483131
   0.5338823   5.4820261  28.0994358   0.2185133   6.9514661  27.9197865
   0.9989614   6.9387722  42.8890495   1.1827880   7.2570200  42.0052185
   1.5797478   7.4494133  43.4531136   1.0377837  48.1670570  74.0831757
   1.3348562  48.8593521  73.4926605   0.3031301  47.7597122  73.6242828
  49.1203957  64.6950836  88.0684433  48.2576942  64.3830032  88.3415527
  49.7213554  63.9975815  88.3303070  44.6984634  70.1654205  36.2210045
  44.6274261  69.7303925  37.0706711  43.9615555  70.7760391  36.2022095
  45.0399971   8.7225008  66.4841766  44.7899246   7.9717007  67.0226822
  44.2154121   9.0361280  66.1127853   6.2802453  28.0641842  13.7401428
   6.9802923  27.4652195  13.9997721   5.6590481  27.5140667  13.2629461
  60.9590149  34.9155502  24.1286163  60.2010002  34.3348122  24.1948986
  61.7045135  34.3644409  24.3668251   0.7072160  62.0594978  43.9573174
  -0.1269579  62.0443382  43.4881096   0.6249113  62.7914696  44.5686073
  44.8850441  54.7044830  38.2142296  45.5925293  54.5514984  38.8405609
  44.2504692  54.0112076  38.3956528  54.4749680  49.4305420  38.2189560
  54.1697617  48.9726982  37.4357185  54.7140541  50.3037148  37.9080849
  14.0760279   1.4489973  35.2183189  14.6377573   1.0705597  34.5419464
  13.5716085   0.7076026  35.5531731  62.0664482  19.8398800  52.1037788
  61.2540092  19.8419762  51.5976448  62.2633057  18.9126492  52.2369118
  64.0938721  45.4997406  83.1824112  64.0721436  44.9172974  82.4231186
  64.7702713  46.1432991  82.9713287   2.8653665   5.1603155  57.2608757
   2.4295037   5.9773421  57.5032043   2.1790512   4.6359630  56.8482552
  51.9041824  15.6048508  88.6648407  51.6591072  16.5300980  88.6555023
  51.0765190  15.1367331  88.5549774  44.1886635  60.2291298  49.5121918
  43.3593674  60.3660774  49.9701729  44.3448792  59.2869377  49.5762138
  70.8871918  12.2727966  79.5808487  71.5676117  11.5995512  79.5798721
  70.0884857  11.8064661  79.3341904  82.9269028  51.8120575   0.1716957
  82.3845901  52.2709961  -0.4697861  82.3822021  51.0827942   0.4678451
  10.1041708  40.5106735  20.1324863  10.3554850  39.7264328  20.6203747
  10.0379896  41.1956863  20.7977772  16.2197819  60.9933739  23.9903603
  16.7931995  60.8493614  23.2375774  16.4474239  60.2933578  24.6022320
  70.8718948  41.4075394  81.5470200  70.9020615  42.0556297  80.8432465
  71.6555099  41.5830231  82.0679626  79.0658340  52.2399330   4.5096726
  79.8494110  51.7047844   4.3837199  79.2964859  52.8389359   5.2197628
  54.6715088  32.9115067   1.8103693  54.5113907  33.2614555   2.6868000
  54.5473289  31.9669514   1.9032474  69.9839325  46.6195297  47.1671104
  69.7390976  45.6957016  47.1138458  70.8109512  46.6207314  47.6490631
  28.2953224  34.3054733   8.4617128  27.4614677  33.8718109   8.6429710
  28.0933762  35.2401657   8.5041103  28.8208256  39.2156143   4.8333349
  29.4546280  39.9056396   5.0292726  29.2497883  38.4085770   5.1177897
  66.4461136   2.1524451  57.2832031  66.2065430   2.5610983  58.1149750
  65.7010040   1.5911683  57.0687218  67.2966232  41.8939133  19.6519299
  67.7660370  42.6109161  20.0783005  67.9789734  41.3935547  19.2044125
   2.7902601  55.2192192  40.3174210   2.4949501  54.5704193  39.6786079
   3.7376628  55.0921059  40.3674431  56.0715981  24.1320381  64.7501602
  55.9100914  24.2530994  65.6858368  57.0120544  23.9645576  64.6891403
  22.6712189  61.6465416  74.5769348  22.6684113  61.2841187  73.6910019
  22.9316025  60.9135513  75.1347504  83.3929367  67.4061050  34.0343246
  83.4952316  68.3565445  33.9850464  84.2744217  67.0624771  33.8889313
  46.6444435   6.1529770   4.6506829  46.2288895   5.2985930   4.7671866
  47.1298256   6.0732608   3.8295352  56.7516136  71.2665482  22.7395878
  57.4855766  71.8380661  22.9652004  57.1444054  70.5671310  22.2173195
  18.0640526  57.5747757  83.5134277  17.6287632  57.2062721  84.2821655
  17.3669586  57.6649094  82.8636856  21.3962059  55.8419724  83.5059586
  20.4636059  55.7161293  83.3308716  21.6357594  56.6100159  82.9873428
  84.3856430  48.2026405  36.3970070  84.1908035  47.2713470  36.2923050
  84.0564728  48.6078796  35.5947227   2.9869928  49.9004555  85.8312225
   2.7441752  49.8535347  86.7559280   2.9462373  48.9939384  85.5265961
  71.2038193  41.7069244  16.0781822  71.3651199  40.7795944  15.9041948
  71.0984268  42.0984993  15.2111225  18.8043976  49.2547150  28.8927269
  19.0708885  50.1239166  29.1922321  19.5748196  48.9104424  28.4408913
  21.1988506  26.6276722  34.6019440  21.0563240  26.1420689  33.7894745
  22.0117416  27.1105995  34.4528809  55.2421227  67.5005188  24.5542412
  55.4998169  66.6981735  24.1003017  54.4466782  67.7853088  24.1043549
  44.9883652  42.2990074  50.9639931  45.5017586  41.5037880  50.8215599
  45.5969582  42.9043465  51.3875656  15.3170385  51.6786156   3.9138367
  14.9997492  52.5653000   4.0851502  15.2474012  51.2321091   4.7576461
  33.3845482  55.4853516  75.8051147  34.2597885  55.3927345  76.1814270
  32.9592438  56.1488419  76.3483734  33.7878113  59.1202850  34.0334587
  33.0637703  58.8601608  33.4639549  33.3640404  59.4221420  34.8369102
  66.8001938  67.1895599   8.7601538  66.4048157  66.4757004   9.2604628
  66.1663666  67.3764267   8.0676451  63.8154373   2.4835713  85.2348404
  63.0539322   3.0329709  85.4205856  64.2325516   2.3563504  86.0869370
  77.5126190  20.7430229  33.9652634  77.2916946  19.8123055  33.9997330
  77.0273895  21.0765781  33.2105942  62.9192772  69.5192261  39.2195625
  62.7683182  68.7012787  38.7458572  62.1920509  69.5747147  39.8394775
  82.6395416  44.1078606  72.1513367  82.6888123  43.2054253  72.4666367
  83.5375748  44.4330711  72.2146759  54.3383904  52.5611458  87.0844498
  54.0297737  52.8604164  87.9396820  53.6496201  51.9737244  86.7733841
  58.0635986  71.5442657  34.0323029  58.5504570  70.7247162  33.9454880
  57.2934685  71.3115616  34.5509377  84.7742462  24.3063450   0.8373729
  85.1936722  24.8649673   0.1829598  84.0308609  23.9158306   0.3779041
   6.0493259   3.7456312  36.7204170   5.4503541   3.2308216  37.2611923
   5.8835535   4.6529016  36.9765663  14.7438307  33.2551270  87.2539062
  15.0104408  34.1448479  87.0224991  15.0503473  33.1395226  88.1533051
  21.7494678  45.5591087  26.5031204  22.3172951  46.2702446  26.7999153
  21.8899574  45.5193596  25.5571213  56.6565628  34.1591835   9.9882088
  57.0449142  33.3146896   9.7596416  56.4851570  34.5798721   9.1456709
  84.9053497  58.2571564   0.3967738  84.4064713  57.4822807   0.6554722
  84.8080750  58.2980309  -0.5545931  73.6978912  62.0448570  64.4570160
  72.9397812  62.5561104  64.7400665  73.4400177  61.1343536  64.6009521
   6.2545419  46.7042885  25.2428703   5.6153312  46.8599586  24.5475941
   6.5663495  45.8129311  25.0863781  59.7938995  45.3118553   5.6658406
  60.3490639  44.5754242   5.4095430  58.9552193  44.9112701   5.8947124
  67.3414307  68.5524597  15.3075371  66.7237244  68.2763138  15.9846048
  67.9502945  67.8184967  15.2250614  76.0568466  62.0480957  26.3173618
  75.6961441  62.6574287  26.9614429  76.1496506  62.5695572  25.5200558
  47.6221504  50.1191940  29.9021149  47.4802818  50.5376930  30.7512112
  46.7625122  49.7766685  29.6573009  71.9618073  40.8394279  40.9365425
  72.4433517  41.3146210  40.2593880  72.0157166  41.4026070  41.7086525
   1.6469045  38.9160423   7.8178053   2.1846161  38.8971138   7.0261364
   1.6469003  39.8350677   8.0854235  17.1580696  42.7367401  36.1204224
  16.8868370  43.3696404  35.4555168  16.4298134  42.1177940  36.1731491
  72.8214951  48.8067932  32.0032578  73.0801544  48.8273506  32.9246178
  71.9407272  48.4320488  32.0100594  21.1361732  14.6123505   9.6301498
  20.7946167  14.9064140  10.4746008  21.6163387  13.8093977   9.8324852
  61.4979935  53.8269157  33.2646065  61.9557266  53.7704926  32.4258385
  61.7739029  53.0439758  33.7411690  85.9506226  45.1629524  41.9210281
  85.2797318  44.5694695  42.2585487  85.8140030  45.1648903  40.9736328
  56.6838913  69.9884109   4.7646518  56.4950829  70.7341156   5.3343067
  56.9889374  69.3035736   5.3597827  27.3142357   3.4864714  79.9742813
  27.1185627   2.7030017  80.4882050  26.9180164   3.3173521  79.1194992
  52.9265480  62.7517509  66.3098984  52.6126404  63.0815201  67.1518860
  52.4332771  63.2502861  65.6584625  72.8326263  24.3591499  41.2585754
  73.7459793  24.0729351  41.2491074  72.6885834  24.6709461  42.1520348
  52.4473801  39.3410149  38.8628082  52.3989372  38.6986160  39.5707664
  51.7888947  39.9976273  39.0897255   9.0539389  11.3867540  88.5632172
   8.7577305  10.6137667  89.0438232   8.6465960  11.3033743  87.7010345
  80.7947769  53.3560638  35.3941269  79.9362640  53.6707687  35.1110153
  81.0514297  52.7238197  34.7228394  51.5962791  44.6119995  84.0229874
  52.1646614  44.1588287  84.6457367  51.1158600  45.2463760  84.5549622
  18.1786652  34.3196869   0.5827485  18.1618328  34.6766815  -0.3052277
  18.5462646  33.4417610   0.4810083  41.8184052  40.5130272  79.2987823
  41.6909943  41.2507858  79.8951950  42.7681541  40.4026756  79.2537842
  50.7859688  34.3141212  60.3663406  51.2585030  33.5367317  60.6640205
  50.9074249  34.9521179  61.0695038  38.1728287  26.8888912  80.9963226
  38.6145210  26.2208519  80.4720459  38.0160828  26.4658852  81.8405533
  31.3479404  57.4288826  64.0117950  31.3685017  57.3692131  63.0566788
  31.0482941  56.5664406  64.2992630   6.6789560  45.9370270  85.0175476
   6.0848131  46.6506577  84.7852631   6.9486365  46.1323929  85.9149551
  28.9439831  48.9193039  74.5353165  28.1968689  49.2681465  74.0491486
  29.5196705  49.6732674  74.6632004  79.9871826  63.0489502  35.4783134
  80.6674042  62.9823532  34.8081665  80.3583221  63.6337090  36.1390266
  37.5507278  46.5729523  46.9649849  38.0871315  45.8091240  47.1772881
  37.5173607  47.0758514  47.7787476  83.2918701  54.4827881   7.4010258
  82.4844055  54.9831123   7.5189447  83.9915695  55.1208000   7.5410104
  66.8532562  54.0122452  16.8672314  66.2295151  53.3328209  17.1232929
  67.3715363  54.1711922  17.6561222  40.2003326  35.5644531  54.6604767
  40.8151360  35.9933243  55.2557220  40.0620995  34.6977654  55.0425453
  29.7493591  57.0763168  16.8445225  30.6622677  57.2688217  16.6305771
  29.7533798  56.1550598  17.1043377  78.8134384  56.7171059  55.6230202
  78.2720566  55.9985390  55.9498253  79.7098694  56.3861580  55.6788406
  83.6435776  19.0592079  51.1083679  83.2720108  18.5933418  50.3592758
  84.2396469  18.4279156  51.5113640  85.7503891  26.0920792  88.2265244
  84.9192886  26.3756714  87.8456192  86.4051361  26.6634693  87.8252182
  39.2667961   4.3115115   8.8318024  38.9590454   3.5603540   9.3390341
  38.6743813   4.3524923   8.0810728  33.0406418  37.5696602  88.5768738
  33.1499748  37.7126923  87.6367569  32.0926514  37.5402946  88.7060165
  57.8588524   8.8264389   3.4020393  57.3609772   8.7186632   2.5916469
  57.3253708   8.3957481   4.0699711  75.5984879   2.2205606  21.4237213
  74.7876740   2.1142373  21.9212227  76.1722946   1.5273160  21.7499084
  66.4402618  36.0705338  15.6131420  66.7835541  36.1117363  14.7205696
  66.1653366  36.9669647  15.8056383   5.1423364  28.9332352  65.3321075
   5.9169731  29.1001129  65.8690567   4.4295635  28.8361759  65.9635849
   7.6301665  38.1124115  28.9912205   7.5252810  38.9013939  28.4594917
   6.7366982  37.8600311  29.2241364   1.8646005  32.1484718  60.7536736
   2.0971563  31.5772610  61.4857025   2.6623149  32.1998215  60.2271309
  59.0584602  61.2630768  32.2280350  59.4061394  60.7515259  32.9585609
  58.1937485  61.5469551  32.5245361  72.4688492   4.8666549  20.9108486
  72.5086365   5.7066483  20.4536171  73.0447159   4.9781861  21.6672668
  60.3472137  53.0614357  36.6422386  60.2879868  52.6513824  35.7793465
  61.2438850  52.8879700  36.9288101  48.6927795  21.0354710  43.3337021
  48.6680489  21.8333645  42.8055115  48.9308586  20.3455429  42.7143898
   3.5732458  70.6985016   0.2172770   2.9779155  71.0101624   0.8989536
   4.4476342  70.8369141   0.5813085  41.5245857  60.1963806  81.6329651
  41.8818550  61.0306053  81.9373550  41.2617836  60.3643112  80.7279968
  76.4925461  50.2138405  72.9802551  75.7666626  50.4991722  72.4253616
  76.7703323  49.3799324  72.6012268  82.4260178  48.4724846  59.9030304
  82.6137390  48.5174751  58.9654961  83.1802139  48.8904457  60.3186378
  16.8601780  16.9889793  65.9742737  17.7559261  16.9953041  65.6368942
  16.3263264  17.2977352  65.2422256  22.5494862  59.5378342  87.9493332
  22.2975082  60.0498734  87.1808624  23.4589787  59.7861252  88.1148911
  48.3571091  39.6369629  36.8407936  48.0090103  39.0820770  37.5387611
  49.3074112  39.5553284  36.9213676  76.2559967  42.3946762  10.5756636
  75.4659271  42.9184418  10.7086802  76.7230682  42.4497757  11.4093561
  81.7187805   8.2305517  20.7079964  81.2217560   8.9676743  20.3532352
  81.5571823   8.2643461  21.6508522   7.7175241  40.2265854  65.3670502
   8.6030293  40.1242409  65.0182877   7.5851183  39.4531288  65.9151993
  54.4271584  19.7298832   7.4511065  55.3721237  19.7427864   7.6031132
  54.2835541  20.3961830   6.7790542  25.1095505  56.8072319  18.1601334
  25.9429035  57.0620308  17.7641144  24.5152473  56.6975098  17.4178410
  61.4757195  14.6347885  86.7863464  60.7492676  14.5835905  86.1651459
  61.1670532  14.1563625  87.5558014  64.9090042  58.8878098  72.2139435
  64.3429947  59.6500015  72.3361130  65.3358002  58.7679787  73.0623016
  71.8844376   2.7508466  57.0613441  72.2289276   1.8642373  56.9541931
  70.9556656   2.6250598  57.2557487  77.8296814  23.3450470  84.9390564
  78.3100128  24.0860329  84.5696564  78.0889206  23.3268604  85.8603058
   3.1318629  56.2444801  35.7439270   2.2220120  56.0183601  35.5508614
   3.1480548  56.3849030  36.6906319  66.9230957  14.4570885   9.0929918
  66.2344284  14.7960825   9.6648817  67.7249985  14.8706179   9.4126329
  67.1931763  19.5171242  25.4509888  67.5952530  19.5687237  24.5838661
  67.2509460  20.4084187  25.7952061  62.6237450  21.8079033  67.0633469
  63.1227875  22.6240139  67.0972748  62.2871399  21.7700348  66.1680832
  45.9215317  21.7258110  10.9187365  45.4969826  22.5704346  11.0690689
  46.1267090  21.7239151   9.9837875  66.2109070  49.2160149   9.4665298
  67.1564713  49.3587608   9.5085239  66.1140747  48.3915939   8.9898930
  33.8012772  61.9100380   1.4479510  33.4826431  62.7290802   1.8272533
  33.0935669  61.6217422   0.8715305  51.2911186  63.9749031  34.8358192
  50.9813538  64.6958084  34.2875710  51.8428802  63.4517593  34.2543488
  32.3052216  12.6700134  83.4502792  31.4837894  12.6614571  82.9589539
  32.4145889  13.5824356  83.7181549   0.9263425  17.5082035  86.0777969
   1.4230611  18.3168106  85.9526672   1.5889928  16.8500786  86.2875519
  61.4449654  53.3348846  24.4959202  61.1137466  53.7593689  23.7045021
  61.1867409  53.9204407  25.2077370  71.4214859  48.8698578  49.6030121
  71.4663010  47.9679985  49.2854004  70.5141373  48.9786720  49.8878098
  20.1538925  71.3731003  14.5853081  20.1448650  70.6888199  15.2545710
  19.8529434  70.9340286  13.7897711  80.8569031  33.0840073  30.7878056
  81.1731873  32.6651802  31.5882931  81.6453094  33.2248001  30.2635612
  13.6234884  62.8307114  59.2188339  14.3647366  62.2257004  59.1915970
  12.8937330  62.3321190  58.8512878   8.5160265  35.8989067  20.6982841
   7.7225285  36.1864090  20.2466946   9.2045536  36.4719429  20.3609619
  70.0400543  22.6686573  33.5872993  69.8276825  22.1371555  32.8200760
  69.1900482  22.9441833  33.9305267  76.5120392  54.2675133  48.7958794
  76.3746490  54.1082382  47.8620758  76.1510010  55.1413002  48.9454727
  12.2451506  36.8239632   2.2064402  12.0052805  37.5285187   1.6045291
  13.0665541  36.4790955   1.8563070  82.0082474  25.0192509  83.0950394
  81.7176361  24.8380947  83.9888916  81.2166061  25.3049850  82.6390839
  85.3248215  17.4573021  82.7207336  85.8165665  18.1369534  83.1817017
  85.5643845  16.6445923  83.1660919  54.3661537  27.8335037  25.8044147
  54.3252754  28.2125340  24.9264069  53.9050636  26.9983082  25.7264462
  12.5722466  60.0135155  25.8886089  11.6900663  60.1224861  26.2437344
  12.9678307  59.3338242  26.4342861  53.0736847   8.2212362  61.8065948
  53.1598320   7.6314778  62.5555916  53.2774277   7.6753030  61.0472031
  47.1613922  17.1345749  88.5652313  47.8206024  17.8012619  88.3723602
  46.7972794  17.3954525  89.4111557  36.9426765  65.3093414  60.4715080
  37.2743225  65.0093765  59.6251869  36.4167671  66.0813828  60.2626762
   3.9825649  55.0632133  62.8112869   3.2033985  55.3495140  62.3346710
   3.6834302  54.9503136  63.7135086  62.1185722  21.0956802  17.0841808
  61.8343620  20.8452015  16.2051373  62.1444855  20.2720947  17.5712833
  78.7572174  30.1073666   0.9881190  78.4299927  29.2087498   0.9475792
  79.3972397  30.1614513   0.2784201  55.1854973  16.0036201  27.9585667
  55.0963821  16.9357300  28.1572151  55.3363838  15.5908623  28.8089161
  81.4643402  66.9824753  80.7822266  81.2671280  67.1409225  79.8590622
  81.0297928  66.1530914  80.9810410  10.5937595  52.4042854  30.5414906
   9.8483095  52.8858147  30.1827869  10.8825197  52.9305878  31.2870464
  83.2487259  56.0364914   1.2445142  82.5351562  56.3862724   1.7780888
  83.4524994  55.1900177   1.6422526  17.4767723  66.4082489  22.3414688
  18.1654663  66.3686066  21.6778698  17.7925777  65.8453522  23.0483265
  61.6984215  46.3044472  46.2616348  61.6798820  45.7608109  45.4740105
  62.0458755  45.7281151  46.9423332  65.8617325  58.6517258  82.3915863
  65.9019165  58.5164757  81.4448395  66.5102234  59.3344040  82.5637436
  55.2173882  20.9911613  87.4599838  55.0498734  21.1733341  88.3846436
  54.5082626  20.4034119  87.1993713   9.2641754   7.6264033  83.1624374
   9.9808588   8.1931610  83.4477158   8.9457922   8.0307388  82.3553619
  45.7362099  65.4131393  62.7144814  45.0457230  64.7686005  62.8694954
  45.9457626  65.3208160  61.7850723  48.7323570  11.1007652  80.0518341
  48.0892181  10.3933382  80.0982513  49.0278168  11.2154942  80.9550323
   9.8454628  51.9001732  88.2514572  10.7806568  51.9203873  88.4545212
   9.5461044  52.7950668  88.4120407  82.3335800   0.0476058  78.2014847
  81.7769012   0.4403593  77.5291138  83.1439667   0.5559552  78.1684494
  52.4684792  22.9020996  65.7201614  52.9486961  22.6794262  64.9226379
  53.1328239  23.2639790  66.3066101  46.4835548   7.3247147  69.3390121
  46.4112625   7.9957013  70.0178223  47.2503281   7.5830450  68.8275833
  51.4952583  13.3317623  11.3031731  51.7597427  13.9164581  10.5929546
  50.8052139  12.7888184  10.9220171  41.9951286  69.5416336  27.5161095
  41.4984779  68.7596970  27.7572594  41.3731346  70.0784302  27.0249863
  45.2397995  27.6032867  31.9927483  44.7400780  27.2372990  31.2629795
  46.0971069  27.1820297  31.9311142  72.3145142  35.7566452  77.5206909
  73.1581421  35.7247276  77.9718094  71.8015289  35.0553055  77.9221878
  54.9975739  12.1263905  55.7182007  54.7181396  12.8366871  56.2958069
  55.0468330  12.5283098  54.8508682  38.1712990   2.5016625  10.6407681
  37.5817490   2.0809746  10.0149231  38.4633560   1.7899745  11.2103596
  58.0331841  67.6412506  72.2804337  57.2965927  68.2178879  72.4832840
  57.6299706  66.8661728  71.8893967  30.2423782  12.1463718  81.6452026
  29.8420601  12.7056198  82.3109512  29.5082188  11.8537664  81.1051865
  70.8798523  62.6541748  11.5499420  70.1605835  62.1035576  11.8593121
  70.4486542  63.4132919  11.1574612  40.8065033  66.0668869  16.3860912
  40.7128334  66.8890610  16.8672276  40.0708771  65.5308685  16.6823387
  64.7109451  16.6534252  29.4502563  64.8744812  16.0330639  30.1606369
  64.9710999  17.5020008  29.8086834  43.5923119  52.4652557  39.1631737
  43.1508408  52.2444725  38.3430595  43.0006943  52.1495094  39.8461952
  81.2003174  21.1144333  38.0063629  81.1665268  20.8415604  37.0895042
  81.4753494  20.3293667  38.4799232  59.7231483  31.5352249  61.8190231
  59.1483803  30.9941483  62.3604164  60.4718513  30.9708214  61.6263466
  46.9093513  69.8280258  37.8755989  46.5263214  70.3790283  37.1930199
  46.2714920  69.1256943  38.0024605  57.2071571   7.7313962  65.1135483
  56.7298508   8.5541286  65.2208862  57.6195030   7.8042617  64.2527924
   3.0505214  40.5319786  84.9395142   2.2865057  41.0322952  84.6528244
   3.6611700  41.1930695  85.2655487  20.1464157   0.9851350  82.6377487
  20.7215996   0.3881272  83.1162643  20.3171768   1.8438206  83.0246964
  32.3165054  56.9524002  49.9461327  31.6121674  57.1967163  50.5465050
  32.7286720  56.1924706  50.3570557  14.0703745  49.0687294   8.8583622
  13.4517365  48.3715363   8.6405487  14.8957214  48.6132927   9.0245342
  53.8280449  51.1762772  61.9138107  53.7933502  50.3959694  61.3605042
  53.1191063  51.7316246  61.5894241  47.7465019  59.9783821  28.9559307
  47.1402664  59.8934174  28.2200718  48.3341141  59.2276688  28.8700638
  13.9088945   7.8629079  66.7442856  13.1066504   7.7016416  67.2409058
  14.4830809   7.1319413  66.9728241  75.7092209  41.8486557  19.3787060
  74.8308640  42.2010956  19.5219402  75.9519653  42.1578369  18.5059433
  17.5615311  39.7518654  83.2569351  17.3426743  39.9751091  82.3522263
  18.4886627  39.9745483  83.3410110  27.8821335  71.2525330  14.6002293
  28.4374065  70.6182556  15.0536537  27.3841953  71.6773605  15.2986660
  78.9364471  44.7224503   5.8468690  79.2730942  45.5943451   6.0535116
  78.5306702  44.4233284   6.6605678   9.7758255  41.3231354  75.5256958
   9.7473888  41.1768036  74.5801697  10.6513042  41.6747208  75.6874237
  67.0282211  33.2898331  23.3460693  66.6298523  33.8110542  24.0431099
  66.7054749  32.4014206  23.4970341  55.0528526  68.5776291  79.5993042
  54.4153061  68.0260620  80.0526733  55.8462219  68.5132370  80.1309586
  10.1462317  52.7222252   2.2287199  10.8319359  52.1195869   2.5165844
   9.3977661  52.1581268   2.0342405  15.3117685  60.2130280  83.5662079
  15.1001663  59.6775780  84.3308945  16.1598091  60.6046295  83.7752686
  46.0011902  51.5337410  35.7052727  45.5984459  50.6705551  35.7998047
  46.9295692  51.3504105  35.5612907  45.3001213  11.4094362   2.3214285
  46.0964775  11.5442362   2.8351161  44.9267082  12.2854109   2.2241473
  54.7479401  51.3752899  73.8885269  54.8656540  52.2359047  73.4863892
  54.2229424  51.5460892  74.6704712  35.7434082   2.3003228  56.7702217
  35.9377098   1.3880560  56.5551682  34.9744453   2.2539225  57.3383560
  33.3499947  42.9967728  59.8526802  32.8059654  43.3656807  60.5485039
  32.7468719  42.8659668  59.1209946  12.8120852  66.5035553  79.5914764
  13.4463682  66.3878174  80.2989578  13.2856283  66.2455063  78.8006592
  28.8408775  64.3437119  47.5044518  29.6251526  64.1135178  47.0062943
  28.1168499  64.1816483  46.8996773  41.2665596   6.6793890  61.9800835
  40.9151649   7.3643246  61.4112091  41.8121262   7.1487346  62.6111946
  78.3708038  10.1979122  11.4777870  78.0495300   9.3081131  11.3319254
  78.8023834  10.4343281  10.6567659  59.7670326  22.7612591  83.5096130
  60.4728546  23.1403542  84.0333786  59.4110374  23.5004730  83.0166016
   2.0250375  25.8085022  32.2838860   1.9196138  26.6280289  31.8006763
   2.1645916  25.1471043  31.6061630  82.1874008  51.8121071  37.4590874
  81.6816483  51.0746994  37.1175156  81.8589706  52.5713425  36.9774971
  47.1792297  27.3954868  58.5407181  46.9573746  26.4865551  58.7428474
  47.3171272  27.8040924  59.3952675  14.6563129  55.7424088  29.4309578
  13.7527571  55.9811211  29.6379242  15.1600466  56.5374184  29.6054344
  81.6685333   8.4871902  63.8158340  82.5822296   8.3672447  63.5569687
  81.2325821   8.7937069  63.0207062  46.0121002  46.2674980   4.4792724
  45.7103119  47.0859070   4.0851107  46.2395172  45.7120972   3.7335918
  82.2452011  56.9201584  87.9676819  81.7496414  56.2567062  87.4875946
  82.7938385  56.4191818  88.5712204  78.3322983  26.6910114  67.9777298
  78.8038712  25.9447079  67.6077499  77.4121475  26.5134583  67.7827225
  52.6753540  11.4258833  38.2488708  52.0291557  12.0372858  38.6022072
  52.1556625  10.7711353  37.7825470  67.3820801  15.3892365  17.8866119
  67.0799255  15.1750717  18.7692604  67.7555008  16.2668571  17.9676476
  27.7685928  42.6539230  70.4792480  28.4973278  42.4109154  69.9081802
  27.7955322  43.6103096  70.5081100  73.5383835   2.4345896   4.4348149
  74.0314331   1.6243895   4.3055687  72.6427078   2.2131438   4.1799459
  83.0401993  37.8701363  13.1336069  83.6216507  37.3282967  12.6001654
  82.1745453  37.4784164  13.0177059  71.4569168  22.8826847  17.3783455
  70.7013702  22.8671188  16.7908649  71.5594406  21.9738789  17.6608219
   5.5433235  31.4607544  84.5356140   4.9475102  31.5507812  85.2793427
   5.0186825  31.0330257  83.8588333  78.7405777  65.0669174  69.3026047
  78.3625870  64.2637100  68.9445343  78.5246887  65.7411499  68.6583633
  72.4975128  47.9161148  38.9986877  72.7985764  47.7084274  38.1141205
  72.1205521  48.7927666  38.9237328  61.5223923  16.3519268  59.5771446
  61.9001274  16.7845783  60.3428841  61.0974197  15.5698509  59.9292641
  47.9676552  40.9597206  80.7652054  47.8705978  41.6459961  80.1050262
  47.8489532  41.4122200  81.6003036  49.3256798   2.2324505  15.5224676
  48.9014359   2.2035244  14.6649055  48.6103439   2.3913195  16.1383305
  44.7132111   5.2875924  78.0219040  45.2972946   6.0412955  78.1056137
  44.4048042   5.3229880  77.1164398  81.1136017  52.4472656  24.0464287
  80.1728363  52.2903595  24.1274681  81.2626724  52.5280647  23.1043663
  81.0158997  63.1712036  39.9220276  80.5240707  62.3597336  40.0479507
  81.6087189  62.9815712  39.1948128  76.7336044  16.5115242  72.7719421
  76.0171051  16.5829659  72.1412735  77.2789307  15.8004885  72.4353714
  77.3272400  13.6804829   9.7912464  77.5820770  14.6025515   9.7583885
  77.9773560  13.2725506  10.3632307   6.0271282  41.8110733  59.7318535
   5.6257000  42.6800194  59.7276611   6.3888974  41.7101135  58.8514214
  13.5509720  23.9988804   0.3806515  13.8826609  24.3246632   1.2173594
  12.9196644  24.6610088   0.0991040  38.0798454  20.1085854   7.4919486
  37.4936600  20.4811687   8.1505842  38.7104149  19.5942631   7.9960184
  58.2774582  67.1817703  46.1053772  57.6977234  67.1059418  46.8632584
  59.1524010  67.0137405  46.4553452  69.5565872  13.9763460  30.0099735
  68.9450226  13.5583010  29.4037876  70.3723526  14.0496454  29.5146198
  72.1520157  10.0996637  37.2550507  73.0965424  10.1741333  37.1188164
  71.9847641  10.6016665  38.0527039  31.2759132  17.2838993  10.2632875
  31.3157310  16.4029827  10.6356230  30.6145210  17.7357521  10.7873287
  58.5334129  54.4551468  10.4068041  57.8715630  55.1283417  10.2487164
  58.6183853  54.4218864  11.3596449  26.0380001  45.6036415  45.9061279
  26.0056267  46.3394661  46.5174751  25.4650249  45.8655891  45.1854935
  17.8664684  40.9476395  24.9894943  17.3026123  40.3153725  25.4350662
  18.3320217  41.3936501  25.6969986  44.6533546  48.8646164  37.0895996
  45.6098099  48.8743896  37.0531464  44.3985596  48.1527100  36.5026588
  21.0923576  53.5943909  39.7129974  21.5085430  54.3447227  39.2887077
  20.9591560  53.8747444  40.6184769   1.9612179  68.8129349  61.0420303
   1.7009869  68.4348984  60.2020302   2.3508358  69.6570816  60.8143501
  28.1629696   2.7299929  53.3689537  28.8077583   3.3939612  53.6131401
  28.1798153   2.7202988  52.4119530   8.4301252  12.1362505  29.2401428
   8.6716070  12.6769171  28.4880810   8.7938499  11.2734241  29.0414772
  62.4448738  17.5121880  54.6765137  61.6231880  17.9696026  54.8549423
  62.5602570  16.9263973  55.4246902   9.2072134  55.6337318  58.8531303
   8.4168148  55.5822754  58.3156815   8.9720688  56.2240486  59.5689964
  22.4696217  52.8443413  70.6839828  22.0933113  52.8975143  71.5625000
  22.7130337  51.9241333  70.5829773  19.4196453  39.9658813  22.6401463
  19.3076077  40.8001671  23.0958290  18.7677021  39.3874092  23.0358372
   0.3460830  20.6598568  50.7941628   0.6708699  21.3491879  51.3734474
   0.0433129  19.9718800  51.3868294  48.8620949  55.9916191  83.8139038
  48.9810677  55.5595436  82.9680939  47.9539604  55.8054161  84.0523453
  10.0940733  22.0282326   8.8538179  10.6216621  21.3385849   9.2566423
   9.2439699  21.9645996   9.2891426  12.1204920  63.3045120  42.2740631
  12.6130686  63.0484047  43.0538101  12.7879648  63.4295959  41.5994759
   8.6403198  25.2191868  32.3288536   9.4531174  24.8058987  32.0376778
   8.9151287  26.0650539  32.6827202  38.6012497  55.1263771   6.8891730
  37.6913528  55.1669731   7.1835728  38.6074448  55.6096230   6.0629373
  63.8550606  41.7610245  84.8502350  63.9176712  41.5973930  83.9092026
  63.0607719  41.3006058  85.1210709  82.6588898  51.6845970  43.5799103
  81.9581604  51.3780937  44.1554604  82.2029114  52.0757713  42.8347321
  39.0298119  61.5431061  27.3737602  38.8341484  61.2155876  26.4958763
  39.2661057  60.7618103  27.8737316  18.3918896   7.1859050   5.2941508
  19.0954723   6.7489681   5.7740340  18.1366329   6.5576363   4.6186104
   4.8690987  51.9644585  63.2127190   4.8631964  51.7564735  62.2784081
   5.2568474  52.8382645  63.2611351  74.2848969  36.9498520  26.1347065
  75.0050049  37.4931526  26.4548626  74.2282867  36.2315674  26.7648621
  10.0656662  45.0689926  80.7438049   9.7340755  45.9589195  80.8634415
   9.3613358  44.6105423  80.2855759   0.1531042  45.7852097  34.5701981
   0.3736816  45.9346466  35.4895706   0.9886614  45.5711632  34.1551552
  80.8401489  15.1444559  52.4455566  80.2660675  14.6164141  51.8907242
  81.3945465  15.6232748  51.8294296  19.3578625  45.4035378  73.7553024
  19.5650711  44.8026848  73.0395660  19.7119827  44.9774284  74.5358505
  75.3640823  69.7793121  14.7562122  76.1226120  69.6227875  15.3186693
  74.9534378  70.5634155  15.1206074  72.0338516  62.9668999  51.7414055
  72.3624420  63.4449921  50.9800377  71.2963867  63.4912643  52.0535164
  10.1186981  30.0400810  35.6411667   9.5341425  30.0567837  34.8833733
   9.5342379  30.1090336  36.3960724  48.7476692   2.3939474  65.9988174
  48.3713264   2.5460968  66.8656845  49.3396835   1.6518738  66.1216125
  46.2462120  14.9039326  87.4635315  46.5108681  15.7508297  87.8226318
  46.3228607  14.2970819  88.1997986   4.1240902   6.2147765  75.9830399
   4.2995405   5.3115902  75.7190247   3.5426519   6.5545115  75.3027954
  66.0927887  11.1145372  81.3901138  65.9831314  10.5232983  80.6453705
  65.4051514  10.8565884  82.0039902   0.6128368  63.2696114  23.9778519
   0.9330372  63.0936089  23.0931339  -0.1940465  62.7592583  24.0464840
  77.5989380  24.1700897  53.1959229  76.7003174  24.4995823  53.1841316
  78.1208954  24.9090080  53.5086441  42.2057571  32.2480011   1.8636166
  42.3273430  33.0417099   2.3846507  42.5012398  32.4900513   0.9859299
  16.0468750  38.2663803  10.9050722  15.4079475  38.9726181  11.0011482
  15.6103067  37.4970436  11.2708073  84.2123795  59.7772675   8.5591955
  84.6549835  60.4796638   9.0356083  84.4848709  59.8962784   7.6493516
  29.9043198  58.5837135  48.0628395  29.5943489  59.1434784  47.3509331
  30.6313000  59.0705147  48.4511108  79.9885941  28.7129593  81.7745132
  80.8026199  29.0959873  82.1014404  79.3184967  29.3658581  81.9768066
  30.0880642  37.6224442   0.8347783  29.2714996  37.1407738   0.7026801
  30.4503231  37.2622795   1.6442732  30.3178616  68.0173187  67.7303467
  29.7581463  67.6658783  67.0379333  30.7461605  67.2479782  68.1057205
  76.5792007  54.7886658  82.7511215  77.1033249  55.4517632  82.3018799
  77.1344452  54.4927673  83.4724960   2.1982086  70.7349396  79.7750473
   1.5942508  70.0172424  79.9657822   1.7055805  71.5265198  79.9917145
  58.2866631  69.9516144  31.8015518  58.2127342  70.9021454  31.8867340
  57.4468689  69.6781769  31.4324837  66.2240448  33.4928589  39.8925438
  65.9116669  33.0455551  39.1060486  65.4270172  33.7192993  40.3718147
  52.3325577  44.9452400  28.2359695  52.7815781  44.3964157  28.8789349
  51.8657379  44.3249855  27.6759720  78.3163757  56.3349571  44.6253891
  78.5590744  56.1199760  45.5260048  77.6190186  56.9846535  44.7138405
  86.4924469  44.5999489  85.0305710  85.7986145  45.0090485  84.5133972
  87.2927094  45.0456505  84.7528076  46.1142731  22.0560932  72.7847977
  46.4552994  22.8922310  73.1023026  45.7818909  21.6196213  73.5691681
  64.8805542  49.6834335  28.7440414  65.0728836  49.2086945  27.9354229
  64.5931702  50.5483170  28.4514389  62.7662697  37.5478020  41.4229851
  62.1854019  37.6518288  42.1766472  62.8021202  36.6024933  41.2769051
   6.8417964  13.5486069  31.7283955   7.0570483  13.9494953  30.8862629
   6.4651799  14.2618132  32.2438850  25.8521996  25.0897751  19.9851856
  26.4624386  25.2240295  19.2600536  25.9567184  25.8675117  20.5333023
  59.6377487  32.6839333   0.3191805  60.1441345  32.8069611  -0.4837327
  59.3405304  31.7749786   0.2779883  65.7496567  23.7995434  55.0375519
  65.8328552  23.5074902  54.1297989  66.3986969  24.4976368  55.1249962
  37.5712662  37.8437271  14.6848593  37.5159950  38.1702881  15.5829315
  37.5676613  38.6324692  14.1425476  53.8108902  21.0356903  10.7035379
  53.8930092  20.3344402  10.0572128  54.7089653  21.2059898  10.9875908
  83.4750061   6.3074703  85.4222946  83.6780701   5.4009914  85.6531448
  82.5927353   6.2687092  85.0530624  47.6103745   1.4243158  32.1918335
  47.1521568   1.4225729  33.0322304  48.5241623   1.5982102  32.4176254
  84.6598511  35.0660057  22.8744221  85.1689453  35.8620644  23.0271988
  84.4355469  35.0999298  21.9444923  62.6405563  55.7124672  57.5548592
  63.1850471  55.9618874  58.3015518  61.8766670  56.2863235  57.6131668
  54.9486542  12.2848425  25.0824318  54.7512093  11.3482275  25.0831776
  55.8257828  12.3444118  24.7038441  12.5308218  67.4451065  73.8783722
  12.9544659  66.6724777  73.5044708  13.0484190  68.1823273  73.5545959
  39.6305199  42.2602959  31.5996857  39.3176537  41.5105743  31.0934563
  40.5617065  42.0854988  31.7359352  14.2227764  50.3601570  25.7694683
  14.3716974  50.6335602  26.6746235  14.5206661  51.1020546  25.2430840
  82.8323288  11.8737659  75.3585587  82.8585358  12.6777506  75.8773575
  83.7444916  11.7160339  75.1150131  54.2938042  35.4830589  10.9892092
  54.9634285  34.9702187  10.5366240  54.7513351  36.2726974  11.2779427
   5.8358631  36.8438148  66.7372971   6.5497065  37.4769287  66.8136063
   5.0501666  37.3802834  66.6318817  59.5504456  27.7444477  10.3186550
  59.1070480  26.9963303  10.7185946  59.0212898  28.5004635  10.5729513
  52.2734909  41.5914917  24.6378632  52.5758591  40.6903000  24.5253487
  52.9428749  42.1241035  24.2083530  28.5092373  66.9272079  65.8978882
  28.5963726  67.3579407  65.0475311  27.5772514  66.9938126  66.1057281
  55.8338966  64.2111816  48.5073738  55.8856087  64.3341064  47.5595093
  56.7140388  63.9334488  48.7612419  53.3182678  25.6479187  37.7038956
  52.3787766  25.7314529  37.8670235  53.6809921  25.3522701  38.5389137
  82.7416306  20.9773331  76.1708908  81.8806000  21.3952560  76.1569901
  82.8004227  20.5219440  75.3310089  13.1884356  52.0382881  45.2396965
  12.9286137  52.9450951  45.0771408  12.4263716  51.6430092  45.6630707
   0.7750583  -0.1595310  20.3842583   1.0149357   0.6177436  20.8887730
  -0.1585436  -0.2793007  20.5582542  68.5217590  58.7427139  67.2264709
  67.8967056  58.1832237  66.7654953  69.3725891  58.3349686  67.0650177
  49.5891991  30.1837864  68.0196228  48.7386208  30.0023117  67.6198578
  50.0612411  29.3528042  67.9659805  72.7393570  22.9606056  56.0214958
  73.6202087  22.8781757  56.3869171  72.2098236  22.3484592  56.5324783
  19.4645233  50.3239975  72.9135056  20.1317444  50.7933121  72.4127121
  19.9411144  49.9472389  73.6531982  31.6133022  -0.1852283  62.9600792
  31.5059757   0.4887255  62.2888870  32.5609283  -0.2689938  63.0660133
   2.2894468  14.2638149  11.8279066   2.5848386  13.3969641  12.1063766
   2.0537057  14.1521025  10.9069405  36.0856094  12.5188141  22.4000282
  35.9076309  13.3129511  21.8961411  36.5757599  12.8243065  23.1633492
  66.8983307  23.0025959   4.2256675  66.1038055  22.4695854   4.1963596
  67.4631653  22.5560780   4.8563952  61.3931198  46.7721252  89.4171524
  60.6211510  47.2968941  89.2052231  62.0886688  47.1376801  88.8705139
  48.2053757  -0.3138999  22.3117065  48.0262871  -0.2784606  21.3720760
  48.1406631   0.5958120  22.6023407  20.1852989   5.6548796   6.5626688
  20.6333866   6.0125537   7.3291664  20.8920097   5.3685818   5.9840274
  55.8731041  55.7371063   9.1870508  55.9264450  56.0909424  10.0748482
  56.2561722  56.4182625   8.6343184  77.0035324  68.9377441  79.6826706
  76.1705399  68.5118866  79.4801712  77.5082779  68.8743591  78.8718414
  19.9359245  22.3883801   0.3819476  20.6595440  22.3823471  -0.2446075
  20.3575363  22.2906895   1.2357223  18.8674850  27.9051838   8.0307121
  19.6556358  27.3625259   8.0546455  19.1305752  28.6884575   7.5474954
  14.9063768  53.2823334  42.2386436  13.9617567  53.3701553  42.3659706
  15.2345142  52.9757118  43.0839500  59.5568542   0.6213626  48.5951881
  59.0096207  -0.0639763  48.2116852  58.9532928   1.1403511  49.1267853
  55.7406502  54.0152626  39.1431847  56.0235634  54.2159462  38.2510452
  56.3050613  53.2920837  39.4164696  14.1422043   4.9231534   0.8660652
  14.1065035   4.9904647  -0.0880975  14.6334047   5.6967926   1.1425370
  37.5538826  61.7725410  47.5255356  38.1656761  62.4954376  47.6646652
  37.2764397  61.8656044  46.6141663  18.9025993   6.7692575   9.8186350
  19.2230663   5.9343910  10.1600008  19.1483192   6.7599344   8.8935585
  42.9716148  15.7851496   6.3110356  43.0033989  16.5897255   5.7934647
  42.8382072  15.0905704   5.6660595  50.4004288  60.7136269  77.8707962
  51.2002563  60.5377235  78.3663406  49.9357338  59.8768463  77.8611526
   4.7181840  67.1812057  79.3442154   5.4742928  67.1655426  78.7574539
   4.3112917  68.0333939  79.1878586  59.1430092  19.8960190  31.2023029
  60.0836792  20.0258179  31.0817852  58.7429161  20.6800442  30.8261890
  57.2174454  31.9233532   6.3902454  56.3115959  32.1704674   6.2042308
  57.3172836  32.0696640   7.3309140   2.7181754  67.9748001  83.8005905
   2.9857404  68.1164398  82.8925323   3.5097771  68.1414032  84.3123016
   6.6002679  54.7328720  13.7375593   7.1788845  55.4284744  14.0499191
   6.8866673  53.9521828  14.2116156  82.9786224  14.4261141  77.0942917
  83.0557709  15.1927671  76.5263824  82.1911240  14.5905542  77.6129913
  61.3030014  13.1338949  41.1211510  62.0439796  13.6856794  41.3715820
  61.7030334  12.3190584  40.8174286   9.4728308  29.7192955  21.9834404
   8.9284382  28.9542904  22.1695518   9.6987228  29.6329174  21.0572968
  56.8797340  39.0253029  81.1427002  55.9310188  39.1146812  81.0522308
  57.0998077  38.2594490  80.6123505  25.7786274  10.4096432   2.5626187
  26.1522903  11.1262894   2.0497582  24.9577866  10.7630768   2.9054594
  26.3134708  49.4804573  42.6127968  25.5939293  49.7754822  43.1708755
  27.0112991  49.2471733  43.2250443   7.9105511  59.8606071   5.1120887
   8.8612843  59.7890549   5.1970525   7.7457647  60.8014717   5.0500379
   6.4286842  17.8516350  82.6342468   5.5723863  18.2556992  82.4938278
   6.3404574  17.3863583  83.4660873  50.9344673  67.2803345  46.2170792
  50.7061462  67.7573700  45.4192505  51.4681435  66.5462799  45.9128036
  43.0641441  69.7050323  80.4802094  42.3610916  70.0474625  81.0322037
  42.7927742  68.8105392  80.2741470  55.8445473  12.4658232  20.9820194
  55.7587013  12.7570982  20.0742626  55.2595329  13.0414495  21.4746056
  81.0551071  35.9908142  34.2847900  81.9655075  35.7920074  34.5035896
  80.8663635  36.8009300  34.7584190  34.5058899   9.4687767  19.3407192
  33.8147087   9.3732996  19.9959908  35.2631569   9.7821360  19.8352757
  49.9240913  47.4416542  33.8183022  49.3812370  47.3139763  34.5962715
  49.7718391  48.3526077  33.5668755  50.4515648  27.8223515  35.8555832
  49.9820557  27.3561916  35.1638527  51.3539047  27.8732376  35.5402641
  71.5673599  69.6577530   5.2289648  71.6795349  69.3197556   6.1174493
  71.5858307  70.6093674   5.3306108  24.7778950   2.5360351  43.3446617
  24.8333130   2.0177627  42.5418205  24.0900383   3.1779153  43.1683769
  79.4925995  51.1363487  20.9240284  79.1995773  51.9805374  21.2671185
  80.4463272  51.2099762  20.8891983  81.4215240  30.9321232  51.3533974
  80.5710449  30.7968178  50.9355392  81.5538025  30.1482925  51.8866386
  17.8546066  12.6611099   2.1261005  17.6578350  13.0256281   1.2631757
  18.0073471  13.4264898   2.6802630   9.9667425   2.2199843  20.0889034
  10.2372608   2.9744163  20.6122437   9.0959110   1.9991914  20.4192600
   0.3936968  57.6275787  27.7978592   0.7844175  56.7546463  27.7583904
   0.8761649  58.0747223  28.4932156   9.5655842  67.0272903   9.6807108
  10.3827505  67.4884415   9.8699522   9.8057394  66.1007538   9.6900406
  53.6708069  51.0668297   0.9866746  53.5131149  52.0108833   0.9752758
  53.3458328  50.7594833   0.1404119  46.6010590  23.2254658  65.8032074
  46.5328522  24.1018677  65.4243927  47.1658516  22.7458897  65.1971970
  52.6652222  32.0671310  71.3751450  52.0792503  32.2084999  70.6315842
  53.4966583  31.8067245  70.9787445  58.1505547  65.5062714  39.2396049
  57.5575562  65.1987305  38.5540352  57.6475449  65.4171219  40.0490913
  71.5718002  23.5631466  30.9012394  72.2398682  23.7959995  30.2564983
  71.1131134  24.3844490  31.0781689  32.4380150   5.0026841  85.9428177
  32.1653633   5.4756694  85.1565704  31.6194096   4.7018580  86.3373032
   1.1892495  61.1331520  88.4914627   1.7785449  61.6131630  89.0733109
   0.3271951  61.5157547  88.6548843  69.4571609  53.9799118  45.4696960
  69.7455063  53.8805466  46.3770065  69.4633331  54.9250870  45.3185616
  28.7567749  25.9530716  76.3307419  27.9202194  25.8413410  76.7823181
  29.4160919  25.7486115  76.9938660  21.3836956   0.8850218   9.9973383
  20.8830280   1.0506196   9.1985016  21.2574883   1.6724918  10.5266724
  51.2319412  13.7710733  76.0462875  50.6533051  13.2032576  76.5552063
  50.8993797  14.6547470  76.2036209  48.6925774  51.9514694  45.3142281
  48.3114662  51.1529541  44.9490433  49.2324562  52.3043671  44.6069603
  45.1086426  39.8004799   5.6479921  45.6049004  39.5048141   6.4112391
  44.4790039  39.0981941   5.4849534  69.4488602  27.6927223  36.0880775
  70.3247375  27.3126621  36.0200462  69.2118759  27.5849190  37.0091896
   5.0518398  17.8597641  20.3725357   4.1665401  17.6323261  20.6567001
   5.3706102  17.0734215  19.9294968  65.2993393  60.8404846  88.7148972
  65.5286865  60.6847496  89.6310730  65.8919525  60.2745895  88.2201157
  71.8376083  64.0020828  84.2267685  71.1456985  63.4638252  83.8423615
  71.3742905  64.6188889  84.7934418  25.4964314  44.6042099  10.5527592
  24.9298573  43.8429604  10.6781654  26.2608700  44.2602921  10.0906076
  14.8916130  68.8406906  72.5787354  14.3968468  69.6399155  72.3979874
  15.0687256  68.8760681  73.5187454   9.4930801  33.5161476  24.2076721
  10.0717487  32.9805679  23.6649666   8.6487188  33.0665741  24.1734695
  65.2146149  70.5307922  63.9117622  66.1167984  70.7052765  64.1798248
  64.7325668  70.4456100  64.7343216  78.2773819   8.7002993  75.9027405
  78.2215500   8.3764143  75.0037384  78.9961243   9.3322306  75.8854523
  34.4370079  27.6139450  77.0886536  34.1977463  26.7976837  76.6496735
  33.8133545  27.6891937  77.8108978  60.0651054  45.2673798  36.9675026
  61.0147285  45.2393646  37.0843925  59.8590736  44.4651489  36.4877052
  20.5885544  65.7589798  69.4141235  20.2385693  66.3728638  70.0597992
  20.9294662  66.3159637  68.7142792  14.6705122   9.7594366  22.7020664
  14.8475294  10.6050062  23.1142654  14.9247894   9.8810043  21.7873001
   9.6657124  51.5262070  41.9476433   9.4834232  51.3865547  41.0183945
   9.6510763  50.6484413  42.3291435  73.7156372  19.8955746  82.1874390
  73.1860962  20.6672688  82.3882065  74.1781464  19.7036304  83.0032043
  52.5012894  50.8259621  21.1858025  53.1613159  50.1464310  21.0485535
  51.6936378  50.4494743  20.8362408  23.8944988  12.3419294   5.2760930
  23.6423225  13.1367750   5.7460480  24.8512917  12.3657131   5.2614450
  10.3349743  36.0519562  87.3873062   9.9253826  35.8807640  88.2353363
   9.6109200  36.0249825  86.7618027   8.6534672   8.8108387  39.1431313
   8.4174099   8.7168255  38.2202721   9.4522638   9.3381557  39.1335144
  13.8075590  32.8111992  27.1002178  13.3126869  32.9273376  26.2891407
  14.5908947  32.3287811  26.8358555   8.9728708  51.6531334  26.7561836
   9.8314991  51.7658844  27.1639538   8.3515425  51.9550095  27.4187927
  81.3752365  36.7303123   4.8112488  80.9860458  36.2087364   5.5131884
  82.3190308  36.6170082   4.9237356  52.2177277  58.7082214  62.9702225
  52.2111626  59.5861778  63.3515129  52.8323479  58.2155190  63.5140190
  73.1403809  24.2745304  29.0969162  72.8516769  24.7600784  28.3241768
  74.0886917  24.4026794  29.1198235  40.7084885  54.5890503  83.1267090
  41.3740616  54.4847870  82.4467239  40.2609253  53.7434196  83.1554489
   4.9374833  54.3563232  67.0874100   4.3068104  54.7572746  66.4893112
   5.1380153  53.5084991  66.6909103  26.2519112   1.4947262  38.4376068
  26.8604355   1.0512898  39.0286179  25.4869785   1.6855482  38.9804688
  28.5392513  44.8164177  46.2394753  27.6513691  45.1159286  46.0440598
  28.6124935  43.9746475  45.7897072  30.2282619  56.6140442  39.1702652
  30.9924717  56.6872139  39.7419815  30.3989582  55.8351059  38.6407814
  75.4802704  25.4165478  84.5296631  75.5828171  25.7969189  85.4020309
  76.2665634  24.8848095  84.4062729  62.4872208  24.2548637  51.8724327
  63.3248253  24.4847965  51.4702148  61.8434944  24.7892570  51.4073792
  11.3650875  12.6569242  89.3291016  10.5327873  12.1860046  89.2873535
  11.2642813  13.3771057  88.7066803  66.4212265  26.7832699  57.7782936
  66.7448807  27.6625080  57.9743080  67.1532974  26.3511238  57.3383446
  67.2639694  16.2672958  58.8361206  66.8719254  16.6079350  59.6401749
  67.0609589  15.3319492  58.8482666   1.5304837  15.5733948  14.0709143
   2.2450135  15.7625179  14.6791182   1.9588759  15.1691980  13.3163700
  81.5509033  28.9658127  22.2911320  80.7164993  28.4973087  22.3135452
  81.7376938  29.0778999  21.3590508  65.1194458  34.2767448   6.3493018
  64.2590866  33.8576546   6.3296666  65.7061615  33.6031876   6.6932631
  43.3003159  58.9923973  17.0792542  43.6390800  58.8685837  17.9658985
  42.3796120  58.7370033  17.1367950  54.0593834  -0.0871535  21.7630882
  54.9646301   0.1389893  21.9766769  53.5913239   0.7473736  21.7898922
  48.5167847  69.7606125  33.0326347  48.2206955  69.4672318  32.1709557
  47.7280922  69.7455750  33.5748253   6.2815094  52.4081612  47.1929207
   5.3306241  52.5178642  47.1890984   6.6149588  53.2217827  47.5711632
  55.3849220  10.7815275  43.0064201  54.6697693  10.2936420  42.5980606
  55.7129173  10.1979828  43.6906204  70.3027649  13.3803158  68.7553558
  70.2397919  12.4529228  68.9838486  71.1717606  13.4722652  68.3646851
  28.1337395   1.6943972  36.5638123  28.6902943   1.1731619  37.1424255
  27.3892231   1.9459267  37.1103096  16.7129021  17.2971897  72.5232925
  16.5803413  16.6255798  71.8542633  15.9973316  17.1611423  73.1443176
  31.4616966  55.2593689  73.6795349  31.9319897  54.4672241  73.9394684
  31.7795410  55.4477348  72.7965164  57.9843941  22.4907913  30.9397488
  57.1350822  22.2954006  31.3356304  58.2515678  23.3173656  31.3417759
  69.7339249   9.4486990  78.1988907  70.6045074   9.0790062  78.3460007
  69.2517395   9.2530451  79.0022888  50.2221413  68.7818222  58.5794754
  50.4838562  68.5675049  57.6840401  49.5934181  68.0995789  58.8150406
  49.6252708  50.6393929  78.9533920  49.9154434  50.2634392  78.1223145
  50.3544807  51.1925163  79.2336426  38.7759705  59.5986786  25.2757950
  39.2590637  58.7733231  25.3163776  38.9563751  59.9389534  24.3994980
  81.6307220  67.4974136  25.6447830  80.9626694  68.1274872  25.3747139
  82.4584656  67.9668732  25.5414104  12.8474560  65.2721405  87.6319504
  11.9476500  65.2470245  87.9574509  13.3397169  65.7158203  88.3226471
  26.2731190  13.8424740  21.9394321  26.5209465  14.3829775  21.1893196
  26.0913334  14.4711246  22.6379890  77.7974701   6.7330394  36.2122192
  78.7026978   6.4273362  36.1544075  77.8058472   7.5888510  35.7835617
  13.3623829   0.6367099  29.9388981  13.9142599   0.2528472  29.2574921
  12.8486948   1.3037835  29.4835205  54.9480667  49.4591866  53.3252106
  54.9872246  48.7625084  52.6699715  54.3036270  50.0769310  52.9797745
  43.2032127  19.6660385  79.2204742  42.7228775  18.8448143  79.3258209
  44.0613899  19.4929066  79.6075058  60.4434700  63.9703941  22.8307343
  61.2583237  63.5225220  22.6034584  60.2430305  63.6680908  23.7165489
  58.6540413  47.2189636  58.8039474  57.7986603  47.6482849  58.8194160
  58.5328865  46.4248161  59.3244095  79.2709808  70.9861374  71.7055664
  80.1538925  70.8450775  72.0473328  78.9275208  71.7146988  72.2227325
  59.3250771  36.3661957  67.8475494  59.6024895  37.2263336  67.5322037
  60.0640221  36.0524559  68.3688507  64.9570465  24.6131897  85.1012039
  65.3591080  25.4068604  84.7481232  64.6840515  24.1188087  84.3283615
  55.6398964  44.9348602   9.9371262  55.9274864  45.4670715   9.1953201
  56.4514618  44.6623497  10.3653021   6.8871913  33.1755943  21.1715984
   6.7201533  32.7882614  20.3123531   7.7631154  33.5543823  21.0973835
  66.7999344   6.9987607  66.9358521  67.7024994   7.2521853  66.7424927
  66.2658768   7.6581554  66.4928970  50.5160179  30.8757420  18.8127213
  50.1378441  31.7197990  18.5661755  50.1090851  30.2475243  18.2160816
  23.2029839  60.9613647  61.0830879  23.2925720  61.4718018  61.8878593
  23.1889324  60.0506439  61.3774109  38.3183594  22.6852932  86.3613586
  39.1214218  23.1804523  86.1996765  38.0245247  22.4147968  85.4914627
  34.1654892  41.3152733  86.4868011  34.7736244  41.9258919  86.0702133
  33.6205444  40.9928093  85.7689743  20.3392124  46.4940834  41.7284622
  20.2290154  47.3910446  41.4129524  19.6980343  45.9851952  41.2323227
  86.1540985   5.5266323  29.8927765  86.0755768   6.3722720  30.3343201
  86.9199066   5.1166701  30.2948933  84.7206268   5.4302740   4.4292111
  84.8479919   4.4938202   4.5810809  83.7750931   5.5282974   4.3170261
  47.6337242  29.5539780  10.2259207  47.3121452  30.1750050  10.8794832
  48.3841705  29.1325645  10.6448183  79.4150009  45.0319138  69.0475235
  79.8519287  45.2564621  68.2259903  78.4839478  45.1610184  68.8666992
  46.7585449  25.8529739  65.0136337  47.5963326  26.3150215  64.9844131
  46.5439186  25.6878853  64.0955353  85.2669830  30.9030190   4.7308741
  85.1237030  30.1353817   4.1773052  85.7009354  31.5344467   4.1571012
  41.6562767  49.9588928  76.6260300  42.1915016  49.2743301  77.0274506
  42.2492638  50.7049408  76.5365295  53.5649147  70.9487839  14.8759327
  52.9218025  71.6146240  15.1194286  54.3442917  71.1709671  15.3852844
  73.5264816  70.3436890  74.4584732  72.9624634  70.2211609  75.2220840
  74.0009842  71.1551743  74.6389236   3.9397800  19.5546360  35.3457413
   3.2017431  18.9463902  35.3061218   3.9973247  19.8016090  36.2687378
  18.4872398  68.8190460   7.8174334  18.2613106  69.5566254   7.2507153
  19.3754559  68.5781021   7.5542860  49.0367355  37.4555664  34.0082169
  49.5737686  36.8037338  33.5577316  49.6037216  37.7962570  34.7000885
  52.6871796  57.7052689  24.4659081  52.7594948  58.3001060  23.7194710
  53.5843887  57.6129684  24.7864170  48.2566643  70.4014587  87.3047409
  47.4435196  70.3636627  86.8011551  47.9899826  70.2138214  88.2046890
   2.0991888  50.3023300  88.5380707   2.2831645  49.6165733  89.1800461
   1.4491626  50.8610802  88.9640961  65.5878143   4.4247561  80.9717331
  65.2512436   3.6392624  81.4029541  64.8072128   4.8705783  80.6428986
  24.9268112  52.8008842  66.9590836  24.9911327  52.0304718  67.5234985
  24.0948734  53.2071037  67.2021790  22.9765873  37.8159676  72.3618011
  23.8486538  37.9546776  72.7312469  23.1306133  37.2965012  71.5727081
  19.7728615  55.9603424  72.1229858  18.9926662  55.4732056  72.3879929
  20.0194416  55.5779152  71.2808609  33.5166168  65.9024048  79.2121201
  33.1800652  65.7351532  80.0924606  32.7980347  66.3457489  78.7612152
  59.4463005  27.5234032  23.9096756  58.9801102  27.0118198  23.2484779
  60.3306808  27.6215916  23.5568886  74.5343323   3.7677350  72.1768951
  73.7657166   3.2016065  72.2473755  74.2040863   4.5709438  71.7743683
  55.6068611  15.9907007  76.0632401  55.0752449  16.5308533  76.6479263
  55.1447029  15.1533575  76.0244904  20.9381638  37.8764915  80.1699524
  21.7738686  37.9224472  80.6344070  21.1313286  38.2141457  79.2953644
  37.9003448  25.5734196  70.7202225  38.7591286  25.9940739  70.6781158
  37.3031578  26.2079258  70.3239899  23.3089466  46.1118965  23.8272419
  23.7052612  46.7028732  23.1869984  22.3662052  46.2211342  23.7025928
  46.9676781  14.9577141  63.7967682  46.3737221  15.5274277  64.2855225
  46.4993324  14.1257257  63.7283478  65.0008087  54.7787285  33.7946854
  64.8192596  54.0013275  33.2665558  65.5356369  54.4560051  34.5199738
  42.3835449   9.1986103   2.7349858  42.2965775   9.9841032   2.1949222
  41.6735153   8.6271124   2.4426162   2.7809567  60.3460999  83.5317612
   3.3462112  59.5746574  83.5716629   3.0667980  60.8906670  84.2652206
  46.1131973  39.1863518  71.2468796  46.4033775  38.2779884  71.1638107
  45.1644325  39.1254807  71.3581161   9.6557226  18.1643677  11.5934658
   9.9845018  18.5152626  10.7658138   9.8502731  18.8459778  12.2367296
  16.4389362  44.6086388  42.8159294  15.9096603  44.6156998  43.6134567
  17.0855942  43.9185524  42.9637260  66.9345398  43.4237671  70.5916061
  67.2720261  43.6974754  71.4444885  67.0523758  44.1900711  70.0302429
  41.5348396   1.4859447  50.9146729  42.4760399   1.4708494  51.0882950
  41.1315079   1.5068210  51.7824974  45.7348824   7.8309479  79.2106857
  46.3636551   8.4673023  79.5511703  44.8788071   8.2057238  79.4178238
  78.9695053  22.4081707  13.6326218  79.2014847  21.9381485  14.4335556
  79.3373032  21.8756752  12.9273558  86.9686508  61.8562698  72.3780823
  86.5308075  62.1921120  73.1602173  86.7502975  60.9244308  72.3628540
  11.2423353  26.5584087  77.0338211  11.7193689  27.3804684  76.9203033
  11.5901928  26.1897945  77.8458252  71.1651077  25.8828163  49.9328041
  71.0173264  26.1871395  50.8282280  70.7924576  25.0013180  49.9148560
  34.7039146  55.8260612  51.2120476  34.8263893  54.9538612  50.8372154
  34.9415512  55.7261200  52.1338806  60.1028099  44.3447342  88.5980072
  60.2833786  45.2823563  88.6650314  59.7435760  44.1082764  89.4531555
  60.9916039  57.2603188  41.3250999  60.2131920  57.0754128  40.7996330
  61.6572533  57.5144348  40.6859055  68.5321732  56.5795364  76.7095718
  68.6294098  56.7663498  77.6433182  67.5998917  56.3931694  76.5984192
  53.8939209  54.9967995  51.2195511  53.9466553  54.9940071  50.2638092
  53.2808380  55.7030220  51.4235382  25.6647224  68.0679092  29.1717625
  25.5226097  67.8949509  30.1024189  25.6231823  67.2053757  28.7587833
  77.2546844  31.7512245  20.8011074  77.4043579  31.5300617  21.7203007
  78.0039902  32.2962265  20.5608082  70.9286804  36.8695107  73.5146332
  71.1630630  37.1338387  72.6250153  70.2509995  36.2039871  73.3960571
  84.0735703  23.6940594  21.2615108  83.7103119  23.4005756  20.4259624
  83.3228760  23.7146835  21.8550224  21.0863628  61.5493088  10.5004349
  21.2684460  62.0121384   9.6825905  21.1530190  62.2231903  11.1769533
  45.9752274  15.1147242  12.4302254  46.3280449  14.2347097  12.2985983
  46.4442215  15.6580057  11.7968845  13.3835106  59.1772270  64.7861786
  13.9287643  59.2627907  64.0041275  13.9128790  58.6581497  65.3916168
  79.9863281  10.7462006  76.0527573  80.5318222  10.0190601  76.3526535
  80.5491180  11.5164013  76.1320724  20.8731670  53.3079872  29.0718346
  20.1135330  52.9707260  28.5970268  20.9631538  54.2115250  28.7689266
  50.1895676   2.7419362  44.0952721  49.2574959   2.9515026  44.0356445
  50.6157303   3.3807905  43.5238876  37.0053177  56.3935242  40.3495979
  37.8310623  56.8002815  40.0870590  36.7595863  55.8469772  39.6031837
  73.6168671  18.8795490  76.6034546  73.3072662  19.0872650  75.7218475
  72.9262695  19.2026882  77.1821518   2.2873662  19.2448616  49.4764328
   2.1605206  18.3002529  49.3877983   1.4557983  19.5665607  49.8246269
  33.8505402  54.0117874  34.4807663  33.4115295  54.7880554  34.1330490
  33.1388741  53.4040947  34.6819572   9.9721498  41.7506523  58.4496307
  10.4240761  42.3289375  57.8351555   9.0440989  41.8580627  58.2412682
  33.1897316   2.3202133  16.3506737  33.0445900   3.2462232  16.5447655
  32.3735542   1.8909386  16.6072025  51.1585426  16.0916748  60.5936012
  51.6042061  16.9354000  60.5178185  50.4694099  16.2420788  61.2406769
  78.9366760  14.8984375  71.7303772  79.0798264  14.7147818  72.6588211
  79.8169861  14.9902964  71.3658905  29.9446774  57.7521133  29.5094776
  30.4679527  57.2589951  28.8776150  29.2735596  57.1340027  29.7989101
  52.3327446  51.6305084  67.4179993  52.1142120  52.5338287  67.6471100
  51.5714035  51.3162117  66.9303436  81.9626999  44.7106743   5.0655947
  81.3675613  45.1687431   4.4721184  82.4772568  44.1396484   4.4951596
  66.8041077  52.9125443  74.7406845  67.2459488  52.0674210  74.8229828
  67.3090057  53.3832054  74.0775146  54.3479805  11.2539062  33.3164482
  53.7453766  10.7752981  33.8856888  53.9408417  12.1130066  33.2050171
  44.4498901  53.4405136  67.6949158  45.1766205  53.9196472  68.0930634
  43.7148933  54.0530434  67.7235489  71.1534805  43.0672569  29.4022121
  70.8252716  43.0479698  30.3011761  70.8759155  42.2311440  29.0279064
   2.7147286   4.5757475  26.2276268   2.0133922   4.0926309  25.7906399
   2.3250315   4.8719926  27.0501881   7.0700278  71.7514648  33.1689835
   7.0196548  70.7955933  33.1694031   7.8015585  71.9525070  32.5853081
   3.8563361   2.9902833  85.5760498   4.0156379   2.0989876  85.2654877
   3.9545424   3.5367415  84.7963257  70.0340424  40.7986641  65.6987839
  69.7184525  39.9894371  66.1010056  70.4042664  41.2990379  66.4259720
   5.7163000  52.7021179  70.9437485   5.4224968  53.5800285  70.7004623
   6.2424679  52.4107132  70.1991196  67.6144791  33.1498108   7.3133345
  68.2869873  33.8011894   7.5125160  67.8643417  32.3824730   7.8281088
  36.4063721  57.6259117  68.6512604  36.2511940  58.5509262  68.8423157
  37.3566589  57.5258484  68.7075958  40.2607536  41.6010590  18.5276451
  40.0748100  40.9365120  19.1909943  39.7652931  41.3176651  17.7592449
  35.9810104   1.7313573  16.0607071  36.6890411   2.1947792  16.5081043
  35.1839027   2.1757572  16.3494263  61.7041702  24.4802437  84.2311935
  62.3445358  24.7089806  83.5575104  61.7751999  25.1826973  84.8775253
  78.3910141  31.6657791  66.7548676  78.3480530  32.4900093  66.2700653
  79.2244034  31.7069530  67.2239151  24.9395332  53.7845688  11.2330561
  24.7794399  54.7187996  11.3665161  24.1324673  53.4576492  10.8355598
  51.0154343  62.3699913   2.3898668  50.4054642  62.0839310   3.0698202
  51.5123253  61.5827370   2.1672425  43.6158752  19.2270317  23.4181538
  43.3253975  18.5570564  22.7992935  42.8804855  19.8372898  23.4731197
  45.0177994  64.0236816  20.6808243  44.4462662  64.4947052  21.2872181
  45.8772240  64.0374832  21.1020470  45.6677284  68.5284805  67.2030182
  46.0808525  69.0945129  66.5509720  45.3760490  67.7640457  66.7062225
  53.8380280   4.2709079  59.0854111  53.8884048   3.8030128  59.9189377
  53.2358780   4.9957199  59.2536240  73.8025589   7.3904986  34.6720619
  72.9589615   6.9826593  34.4765282  73.6485519   7.8853641  35.4768105
  21.4470654  53.4936829  44.8993073  21.0924301  53.3849487  45.7817154
  22.2859058  53.0330811  44.9198608   1.0225861   7.3838644  52.4225349
   1.2361723   6.9839296  53.2655449   0.0786516   7.2556067  52.3288918
  46.4954224  67.7202988  21.8668861  45.5465584  67.6654892  21.9804115
  46.6143265  67.9225388  20.9388809  57.8558693  33.6684341  76.1680145
  56.9062233  33.5484962  76.1726837  57.9818802  34.5707664  75.8745117
  27.9250469  31.8989220  45.9864349  28.0315876  32.0012398  46.9321709
  27.1074104  31.4108696  45.8889313  59.3666573  37.9012527  78.7849884
  58.6605721  38.2854881  78.2653351  60.0634232  37.7286224  78.1517792
  24.6400013  21.1090202  35.5294647  23.8699741  20.7581959  35.9769173
  24.3149281  21.3816528  34.6714287  68.5605774  69.4440994  73.0718994
  68.0853043  68.7430038  73.5177841  68.7478485  69.0909882  72.2021408
  62.8854103  60.8945503  79.8375931  62.4556732  61.6466789  79.4303284
  62.4437370  60.1334343  79.4609451  43.7152939  15.8452663  79.5252380
  44.0850296  15.7794104  78.6447906  42.8839684  16.3035297  79.4022446
   9.6737328  67.6842041  71.2659378  10.2213745  67.8791428  70.5054703
   9.4476242  66.7593155  71.1674881  27.6561661  70.5803833  30.6206818
  28.5846882  70.7358093  30.7936668  27.4381390  69.8153381  31.1530304
  85.7199860  43.5112534   9.4509907  85.8061371  44.3984032   9.7999516
  84.8001099  43.4427147   9.1953402  72.1674576  70.0284729  54.7522240
  72.2858505  70.7185287  54.0995102  71.3409042  70.2457886  55.1832886
  75.0956573  12.5346508   2.4594975  75.9341736  12.7560902   2.8645685
  74.4431763  12.7523775   3.1251566  47.0875130  23.2114544  18.1401768
  46.9146271  24.1336136  18.3298168  47.8529472  22.9967098  18.6733055
  85.7402344  40.3821068   6.5083866  85.2279892  40.2337379   7.3032584
  86.5471497  39.8863335   6.6474266   2.7743764   0.0890290   5.4916043
   3.4806988   0.2933869   6.1044488   2.8317909   0.7721396   4.8235512
  55.6856689  61.3257370   2.4101505  56.0209961  61.9333687   1.7509327
  54.8765450  60.9830780   2.0304997   2.5904851  23.2098618  72.1222839
   2.6779909  22.8048840  72.9851685   2.2381134  24.0816174  72.3014679
  66.3239059  58.9277267  74.9368591  67.1046982  59.4219398  75.1865463
  66.4161301  58.0894127  75.3895798  60.8963394  46.1962509  74.7268219
  60.1510963  46.5387840  75.2202988  60.5446091  45.4412651  74.2551117
  11.8248444   5.4767189  26.2751865  11.5243397   4.6020145  26.0285664
  12.1424885   5.8601818  25.4576950  84.2187729   8.4215183  62.7660789
  84.1597595   9.1993065  62.2112885  84.8814163   8.6435900  63.4201584
   5.5031414  60.1302567  12.3744717   4.6159077  60.3187218  12.0686474
   5.6130214  60.6846542  13.1469994  79.0157394  19.2759590  76.8976669
  78.7278366  18.7234020  76.1710205  78.8884506  18.7335873  77.6760406
  32.4503746   4.9321656  14.0511189  31.5583344   5.0502877  14.3775234
  32.4288177   5.2857265  13.1618710  74.3950806  52.4272156  64.6979218
  74.4846039  51.6254616  65.2130966  73.5728302  52.8143806  64.9983292
  39.1905594  32.5655289  16.2283230  40.1411362  32.6600761  16.1674976
  38.8477478  33.4210587  15.9699154  52.3623619  69.9555817  27.8178978
  53.3075714  69.8071060  27.8455887  52.0300980  69.2752380  27.2322693
  41.5779076  59.9238358   6.1549368  41.1612778  60.3751945   5.4208217
  41.5177002  58.9952698   5.9304886  11.6792192  63.1003418  49.2602654
  11.2375603  62.2616653  49.3936386  10.9694834  63.7415276  49.2229614
  29.4817410  55.2359924  35.0418739  29.4421234  54.2809639  35.0926971
  30.3370342  55.4600868  35.4085999  32.5940323  66.5179901  33.2194214
  32.0768089  65.7884674  32.8780785  33.1439209  66.1251907  33.8973312
  80.4851608  36.1284256  24.4722672  80.4524689  35.1790581  24.3545303
  81.0943222  36.2588081  25.1990070  63.2477341  24.9440975  76.2072296
  62.6588364  25.3299274  76.8557434  63.0031166  24.0190296  76.1819458
   9.8454809  17.4932613  24.6590881   9.9610043  16.6527786  25.1023445
   9.3880949  18.0400524  25.2978764  11.1004648   1.8164682  40.7364616
  11.5342283   1.3741297  41.4661331  10.6577559   2.5638573  41.1385193
  21.5836830   3.2962387  74.3279343  21.3222218   2.9959240  75.1983795
  20.9698143   4.0016594  74.1235352  72.7589340  39.2046852  22.8801594
  72.3921204  38.3862381  22.5457630  73.7019958  39.0457382  22.9202957
  81.0974884  55.2601547  56.1120605  81.3581772  54.3849678  56.3989792
  81.8081665  55.5455437  55.5378418  83.4174423  66.7859116  11.8170748
  84.0147171  66.7190704  12.5620775  82.6192703  66.3460464  12.1097765
  40.9529762  68.5491562  86.1525116  40.3105431  68.4345627  85.4522476
  41.7649002  68.1910858  85.7936325  44.1142998  65.8279190  70.4981232
  44.9047127  66.2957382  70.2286301  44.3001747  65.5383530  71.3913345
  53.4583778  45.8339233  66.1611252  53.2038651  46.6826439  65.7990036
  53.8471146  45.3652611  65.4225616  57.8207359  20.8745995  86.4326477
  57.1088219  20.9265099  87.0703888  57.3941307  20.6066036  85.6187515
  46.8214302  45.5579262  13.6278706  46.4527702  46.3157997  13.1740551
  47.0475502  45.8864632  14.4980221  54.0475464  70.9819260  50.8317223
  54.4954300  70.2841873  50.3533859  54.3878021  70.9171753  51.7240562
  43.6995964  60.5946159  27.2831402  44.2677193  60.1251907  27.8939667
  42.8796082  60.1008644  27.2910194  32.0836449  15.6578712  79.6427689
  32.2013435  15.7160568  80.5909195  31.8436203  14.7444706  79.4868164
  37.2727737  49.6479187  30.6553593  37.4542160  50.5152092  30.2932549
  36.7912598  49.1952209  29.9629421  75.2642365   7.4305763  88.6342010
  75.1671524   6.7356644  89.2852859  75.1502991   8.2412148  89.1303024
  45.5392113   7.7680502  16.0821953  45.9433708   7.6477017  16.9414978
  45.6225395   6.9146852  15.6566877  47.8199158   3.8548193  53.6239166
  47.5998154   4.1879535  54.4938622  48.2363129   3.0090146  53.7896233
  15.9067688  43.2527924  31.7054996  16.7801952  42.9079590  31.8911057
  15.3309860  42.7846870  32.3101349  28.5934944   4.1925240  46.3766899
  28.6225433   4.4601541  47.2952538  28.0988579   4.8863459  45.9405975
  37.1323624  22.6176929  21.5805187  36.2760849  22.9246769  21.8784771
  37.6137733  23.4178410  21.3701878  14.1818151  51.9599457  50.0454178
  14.5795145  52.6634750  50.5583611  14.6753340  51.1769981  50.2896805
  37.2907677  70.8674316  50.2470932  37.2782173  70.6356888  51.1757317
  38.1761932  70.6476593  49.9573402  20.4199142  11.5344954  56.4469032
  20.6615906  10.6503048  56.7226448  21.2465267  11.9363613  56.1796036
  10.0948343  51.0179787   8.2034788   9.4336481  51.1389580   8.8849688
  10.4828615  50.1641922   8.3951006  25.5212746  60.4429054  11.8387890
  24.5712872  60.5135269  11.9324360  25.8191910  60.0914841  12.6778250
  77.1503067  62.9061356  37.2561340  76.4954147  63.5942192  37.3739853
  77.5113831  63.0659561  36.3841705  76.7371902  70.7937469  29.5677986
  76.7892151  71.5198441  28.9462624  77.0043869  71.1748352  30.4042244
  23.6964321  70.5210190  55.5163727  24.6142426  70.4363785  55.2581215
  23.2043724  70.3311615  54.7175827  85.0633087  60.9409904  37.0734901
  84.2547760  60.7422256  36.6012611  85.3254929  60.1061440  37.4614639
  45.2787323  30.3548260  67.8169632  45.8727684  31.1052284  67.8011475
  44.4038391  30.7423992  67.8409653  78.9921265  26.2993145  70.6729889
  78.8394089  26.6695156  69.8035889  78.2745972  25.6782780  70.7982864
  83.4169006  15.1589842  12.3174515  82.6265488  15.3223763  12.8321133
  83.6558456  14.2557783  12.5256786   4.4282794  59.4427948  88.3935318
   4.5620098  59.4593964  87.4458694   3.5681410  59.0384178  88.5069962
  24.8423405   1.8243563  70.4555664  25.5596790   1.4146359  69.9720535
  24.0505466   1.5249032  70.0087738  50.6431580  12.0583124  39.9132767
  50.6305122  11.1529064  40.2236214  49.8616219  12.1348305  39.3659363
  85.9344864  27.8183613  14.9204845  85.5607681  27.6097641  15.7766733
  85.9686508  26.9782810  14.4629574  56.5617027  20.4477062  83.9963150
  56.4828224  21.1408195  83.3408737  55.8430672  19.8473969  83.7977676
  27.8394356  40.7012062   2.3747671  28.3864536  40.1484299   2.9328406
  27.0754833  40.9047394   2.9143794  66.0566483  68.5853043  81.6479950
  67.0133591  68.6120453  81.6331100  65.8467865  67.8096695  82.1681671
  42.2087669  22.7072544  19.7257271  41.9397888  21.7962742  19.8440456
  43.0121422  22.7884750  20.2397499  81.7864227  40.8831711  50.7372704
  82.2462082  40.1688957  50.2960930  82.3800507  41.6306229  50.6654625
   0.2672350  13.7012053  68.1436081   0.6965801  12.9087353  68.4659271
  -0.6667232  13.4924707  68.1632004  63.5215416  42.0791206  45.4403343
  62.8872375  41.4681129  45.8152428  63.9361687  41.5884743  44.7306976
  69.0745773  16.1891232  44.2000961  69.3867188  17.0148296  44.5702438
  68.8496704  15.6549911  44.9619026  39.6590385   7.0037255  10.6295366
  39.8387642   6.2395792  10.0818033  40.1489258   6.8411522  11.4356480
  24.4670048  51.3387642  79.2194672  24.7655678  51.9436760  79.8985672
  24.9251957  50.5201454  79.4096222  52.5965767   8.5080805  50.5058212
  52.6502190   7.5524025  50.5117073  52.6317940   8.7556400  51.4297829
  85.9686813  13.6509275  56.0800247  86.9017944  13.6450415  56.2933159
  85.8090515  14.5264826  55.7276726  60.0367813  37.2886848  37.8697586
  60.0030251  36.7248077  38.6425018  59.5921898  38.0921555  38.1399536
  59.2780037  21.6276379  11.8779564  59.3269463  22.4709415  12.3281498
  60.0880356  21.1791573  12.1207352  61.6886215  70.2453918  30.2299538
  60.7439346  70.1789856  30.3692017  61.8927345  71.1638107  30.4062366
  61.1009293  22.5026054  19.1306973  61.7020187  22.1612606  18.4685764
  60.6146774  21.7348671  19.4313145  85.0300751  24.9861412  67.5760117
  85.5817337  25.7655449  67.5094681  85.1109619  24.7127571  68.4897690
  16.8648300   7.8192563  55.0727806  16.1101189   8.1220379  54.5678368
  17.3082695   8.6224566  55.3456573  29.4424343  51.0221710  70.9542618
  30.0195866  50.3611183  71.3365326  29.8988190  51.8510513  71.0988464
  15.0446129  60.0156097  42.3348846  14.1971836  59.7255020  42.6724243
  14.9080391  60.1077271  41.3919640  71.4579163  65.1965942  67.8950424
  71.2999039  64.6331787  68.6525497  72.3596878  65.4982300  68.0048523
  77.4309540  60.4493408  75.3520355  76.5139389  60.1802330  75.2982712
  77.4174576  61.2393227  75.8923798  38.2110825  47.5754166  39.5652618
  38.6926003  48.0553970  40.2390518  38.8875542  47.2614594  38.9652214
  68.7057648  69.7215424  81.2758026  69.3225250  69.0945053  81.6535034
  69.2354813  70.2470474  80.6762466  28.8885918  57.0103378  71.8336182
  28.2929077  56.9129410  72.5765228  29.6211166  56.4284058  72.0360870
  39.7102203  65.8249817  57.7098999  40.2896614  65.4175491  57.0660973
  40.3002205  66.2923355  58.3012581  52.0282784  23.7499275  13.0263615
  52.9668388  23.8713684  12.8828821  51.9751625  23.0952110  13.7226076
  39.3736496  61.4205437  12.0321178  40.2366676  61.0673981  12.2482586
  39.5274887  62.3531113  11.8808575  73.2819595  33.5062294  54.0606689
  73.9183807  33.5035553  53.3456917  73.5991058  34.1808586  54.6611023
  52.2153358  68.5246506  51.4312515  52.8144722  69.1109314  51.8933563
  52.7761650  68.0340958  50.8303680  63.1481743  13.0493040  29.5500240
  62.2462921  12.8035536  29.3439999  63.3853264  12.4910641  30.2905350
  53.9998436  29.2284927  10.2211580  53.9644089  28.4804764  10.8173523
  53.8457985  29.9890003  10.7816334  11.3828545  56.4603233   5.6815419
  12.2860155  56.5783424   5.9758239  11.0176659  55.8117371   6.2833791
  20.2441597   0.9821165  39.4356003  20.7423534   1.2285812  38.6563110
  20.3952503   1.6979911  40.0527916  74.4172516  40.2782860  15.7346621
  74.2635498  39.3340492  15.7026987  73.7459183  40.6101875  16.3307972
  83.0245132  44.6358757  36.7908096  83.3481140  45.1565857  37.5259132
  83.1707001  45.1885605  36.0230865  57.5538330   2.1907914  84.7467346
  58.4488144   2.3363864  84.4400711  57.6572151   1.8599464  85.6389771
  52.7737694  17.4996395  40.0110130  52.8543282  17.7264271  39.0845642
  53.6035728  17.7777576  40.3987122   8.0943995  58.5046234  55.0056953
   7.3791237  58.8387184  54.4644089   8.5870361  59.2849579  55.2598953
  10.1750469  13.0104523  20.7583275  10.0814238  12.1473789  21.1615276
  10.0171051  13.6271572  21.4731407  72.5481796  33.3961792  49.3222466
  72.0517731  32.5945625  49.1572495  71.8909912  34.0919838  49.3084717
  12.2152290  48.9584045  30.1531982  12.6056929  49.2144241  30.9887981
  11.2754812  49.0915985  30.2771549  18.7633934   9.9117727  67.0139313
  18.1713333   9.4375086  66.4301758  18.6388721   9.4988270  67.8684540
  60.2314453  15.5887117  26.5015125  60.8921814  15.5294104  27.1915455
  60.2257843  14.7198048  26.1000137  16.6269360   2.3404956   2.6639059
  17.4100971   1.9324714   2.2945759  15.9357891   2.1498387   2.0297139
  58.6900330   7.7262540  12.9345684  58.5775414   8.2966661  12.1741695
  59.6360703   7.5947595  12.9974737  21.2947292  16.9624062   1.5422140
  21.8211155  17.7596340   1.6020195  20.4702702  17.1868382   1.9736439
  43.5027237  70.2542953  64.1009750  44.3204536  70.7225189  63.9326973
  43.4803734  69.5650940  63.4370995  47.6275101  18.9532394  61.4128647
  47.1547318  18.2365322  60.9897232  48.1594467  18.5258923  62.0841675
  65.2112274  52.5261040  58.2670059  66.0007095  53.0662117  58.2319298
  64.9974823  52.4745636  59.1986122  84.7116241  51.7694778  15.0385027
  85.4245682  52.2036705  15.5069351  85.0704193  51.5899239  14.1694441
  60.7375565  50.8573227  26.8732033  60.1392250  51.4419212  26.4079323
  61.2141685  51.4306946  27.4734631  64.2156677  38.0539360  71.4491119
  64.0512161  37.9512291  72.3864670  64.7286758  37.2820168  71.2099609
  63.3085442  18.0036755  61.8554649  62.9781303  17.1696930  62.1894264
  64.0402374  18.2201176  62.4334068  29.0349350  47.0988503  35.3711548
  28.8018417  46.9877052  36.2928619  28.2033157  47.2826271  34.9342690
  44.4532394  19.0608006  88.2218323  44.8526917  18.3401775  88.7090378
  44.4560699  18.7650242  87.3114777  59.3971214  46.9307556  62.5122261
  59.5517159  46.1142693  62.9872856  58.9299164  47.4861832  63.1362877
  46.0810852  43.2173042  87.0946426  45.9579468  44.0852737  86.7103271
  47.0271950  43.1425591  87.2192230  64.6084976  69.1863022  78.4005432
  64.7233658  68.9168549  77.4892654  64.4751968  68.3671875  78.8775253
   2.3006792  43.1041222  78.2840118   2.8736353  42.5284348  77.7775192
   1.4289782  42.9581223  77.9165192  56.7097702  29.2955017  42.6729431
  57.1045876  28.4639416  42.4105415  57.4452095  29.8209839  42.9879456
  77.8756104  48.8525734  68.8161850  78.7409363  48.9262238  68.4136734
  78.0528946  48.7837219  69.7542953  26.2592735  13.1958408   4.2509646
  26.7382221  13.8909502   3.7996738  26.8795357  12.8581181   4.8970685
  13.5430098   0.8145278  87.0773087  12.6569929   0.8049941  87.4394073
  13.9561892   1.5807422  87.4753418   2.4696076  12.3568497  27.3608246
   2.7063980  11.9492817  26.5277290   1.6840026  11.8878975  27.6421452
  49.1534691  14.6893654  79.1714478  48.2249832  14.9219513  79.1646271
  49.6086693  15.5161524  79.0119171  11.3928823   5.1520896   4.1642642
  10.5936089   5.6456842   4.3479986  11.9747076   5.7859149   3.7447691
  63.2181015  62.3925972  11.2524042  62.7939491  61.5464859  11.3953028
  63.0348206  62.8900375  12.0493956  71.8139114  69.9505234   2.7141359
  71.7890625  70.9068298   2.7470484  71.7464371  69.6775436   3.6291018
  28.8454132  66.8189163  43.9115715  28.5629864  67.3548203  43.1704407
  29.1247139  67.4524155  44.5725555  71.7820206  28.1445618  25.0070972
  71.3429565  28.2488804  24.1629581  71.3247910  28.7494793  25.5912628
  76.2919464  36.9558258  89.1142654  77.0897446  36.7779350  88.6161652
  76.4054794  37.8497543  89.4371185  40.4711914   2.9879186  85.9772034
  39.6047478   2.8712919  86.3669586  40.3791313   3.7566586  85.4143600
  65.7691040  36.7397690  59.3427238  64.9715424  37.0706520  58.9296303
  66.3873215  36.6342506  58.6195984  77.8415680  39.9620323  74.5459290
  78.2997894  40.3369408  75.2980652  76.9239578  40.1976585  74.6827011
  78.0415726   0.5177944  15.5177746  77.6900177  -0.3718887  15.4845505
  78.3967361   0.6020966  16.4026375  17.5617580  30.2372093   2.7274485
  18.2409687  30.6852913   2.2233386  18.0435333  29.7324200   3.3826671
  62.0563354  55.9243088   5.4828115  62.1559792  56.5363617   6.2119837
  61.9284821  55.0726891   5.9007039  69.4423141  70.3835449  47.3449364
  69.0787125  69.5270081  47.1205063  68.7834854  71.0095901  47.0445137
  15.2791929  24.6322918  38.1423798  14.8763065  24.0183964  38.7564201
  15.1790848  25.4882107  38.5590515  13.0242939  53.1745872  61.2509003
  12.7081718  52.9972000  60.3649940  12.8177862  54.0975075  61.3985786
  62.0848122   8.3179932  39.4482613  62.7551651   7.7846704  39.8753738
  61.3717384   8.3617687  40.0853233  33.1855354  60.9977951  27.5910969
  32.2561340  61.2116699  27.5092583  33.6199646  61.8464241  27.6766930
  16.8820915  50.9795723   7.9207163  16.9964695  50.0977211   8.2749557
  16.1302986  50.9058838   7.3328304  25.2973652   2.4361224  46.2771416
  26.1767750   2.6496785  46.5890160  25.3789730   2.4191077  45.3235779
  85.2941666  56.9366684  17.3933544  85.0256195  56.1013603  17.7759457
  86.1639709  57.0987778  17.7585907  57.6761017  18.8566093  68.4521713
  56.9571762  19.4484787  68.2306519  57.9899483  18.5342674  67.6072845
  24.2176170   6.0232639  14.0650949  24.8123741   5.4080782  14.4940958
  23.4683895   6.0847936  14.6576357  19.4145718   7.5221696  15.7228374
  18.9907017   6.9413161  16.3546410  18.7322102   7.7156305  15.0800400
  41.5937729   0.0619268  69.5501633  41.7206459  -0.7563162  69.0699387
  41.9737625   0.7334765  68.9837189  71.2930374  52.2664757  86.9859238
  71.3780441  51.4748268  86.4546127  72.1867065  52.6007690  87.0623169
  20.5334511   5.2143788  11.7089386  20.5565414   4.9633794  12.6323547
  21.1058941   5.9795980  11.6543493  66.0862656  65.5584793  59.7287521
  65.8381042  66.1221695  60.4614868  65.6129684  65.9184418  58.9786530
  76.7428055  14.2931147   7.0436378  76.5966263  14.4504375   7.9764357
  76.4082184  15.0796490   6.6127710  24.8917255  25.2285175   6.9815545
  23.9913406  25.1570625   6.6646399  25.1996956  26.0682621   6.6406522
  24.3103199  46.2693863  71.6268539  23.7032986  46.3816681  70.8953171
  24.5252953  47.1616058  71.8988113  34.6945763  60.0466499  18.0294380
  34.0858650  60.6292114  18.4836636  35.5580635  60.3025284  18.3537025
  37.5004730  40.1830406  48.4381065  36.8973694  40.5575371  49.0801773
  38.3356361  40.1210556  48.9016724  23.1663265  62.1623955  29.1223030
  23.0692806  61.2112122  29.1677399  23.9407101  62.2983322  28.5763321
  20.1855679  43.5479622   0.8343188  21.0372047  43.1272545   0.7162051
  20.3865929  44.3790436   1.2645782  25.1812286  20.9674244  82.2806549
  24.8908176  21.7980099  82.6575165  25.1766109  21.1186390  81.3354874
  28.4129448  64.5968475  27.1992111  28.8926945  65.3981934  27.4087811
  28.9758263  64.1365738  26.5766830   8.2467651  17.1742420  86.1057892
   7.6831250  16.4606705  86.4047089   8.4071026  17.6977806  86.8909149
  74.6346817  29.5538311  42.5689659  75.5697556  29.7301331  42.4650993
  74.3237915  29.3790150  41.6806984  63.9252243  20.2986069  44.4505577
  63.7203598  19.8223495  45.2551956  64.6088867  20.9178562  44.7062225
  68.1146393  17.3238735  81.5391998  67.6681061  17.7240601  82.2853165
  67.4931717  17.4061890  80.8158417  65.3430176  24.4193363   8.2626009
  65.0415802  25.1791916   7.7646174  64.9249115  23.6717529   7.8353539
  46.9010048  17.7710552   2.3366995  46.0470695  18.1585503   2.1446803
  47.2231445  18.2634430   3.0916920  25.1618252  46.0938683  29.5702705
  24.7349911  45.4343910  29.0233383  25.8813744  45.6251335  29.9930859
  68.8572388  28.1649265  40.4183273  69.6137772  27.9276104  40.9545746
  68.8242722  27.4912243  39.7391586  47.8526726  67.4159927  76.6857376
  47.8662415  66.4741669  76.5154190  48.0476036  67.4933319  77.6196823
  24.9660625  63.8242683  65.3945007  25.6829948  63.9768333  66.0101013
  25.1443729  64.4199829  64.6667862  35.9708633  40.5851746  30.1785431
  36.2649918  41.0997391  29.4269161  36.7644348  40.1589775  30.5023270
   8.8302460   3.6492884  36.5260620   7.8815808   3.5234432  36.5053291
   8.9580965   4.5541768  36.2413445  20.2714348  38.1271324  85.3126831
  19.4986935  37.5986290  85.1132126  20.3503666  38.7258186  84.5699997
  86.5979156  27.1314240  60.8395767  86.3437271  27.2481232  61.7550011
  87.4941635  27.4646397  60.7955246  53.3035507  22.0070114  36.1714821
  52.9169388  21.1396046  36.2913475  52.6420059  22.6124344  36.5062180
  24.8097439  20.4731197  87.8829727  25.4803295  19.9824715  88.3581696
  25.2874012  20.9107342  87.1782990  17.9417076  48.2763329  59.3564644
  17.5979328  47.9123878  58.5406227  18.8743992  48.0617371  59.3401909
  39.1067162  48.0248222  78.6369705  39.8882370  48.1204796  78.0926285
  39.4270363  48.1171112  79.5342484   8.6119919  14.7309008   8.7614183
   8.3087997  15.2368727   8.0075626   7.8330774  14.6247225   9.3075418
  60.9041214   1.4850129  14.0070982  61.3775940   1.7085001  14.8084164
  60.7672424   2.3243549  13.5677805  13.2158384  65.4377213  57.2869682
  12.7597675  65.6829071  58.0920258  12.6196060  64.8299561  56.8495216
  43.3325882  64.9311295  16.4622250  43.0046425  64.4299088  17.2088585
  42.5648308  65.3966370  16.1304398  43.2919846  44.9919472   3.2161579
  42.7321358  44.2518311   2.9815829  43.2582474  45.0242119   4.1722188
  44.2491951  12.2401905   7.1525888  43.7018204  12.1725969   6.3702550
  44.3160095  11.3419418   7.4764957  35.5328407  10.6356993  87.5043106
  36.4100227  10.4428234  87.1732712  34.9645309  10.5542536  86.7383957
  20.7915955  21.9595432  82.1489105  21.4181633  21.8765125  81.4300537
  20.0580120  22.4455929  81.7722855  40.6348648  50.7312737  23.7554131
  40.6069412  51.1895981  22.9155369  40.0164795  50.0076981  23.6540813
  44.6912460   5.9075618  27.1606712  45.1469078   5.0891757  27.3577671
  43.7812119   5.6468596  27.0188751  69.3223190  62.6364555  57.1402740
  68.7780609  62.3373680  56.4118805  68.6978912  62.8530960  57.8326454
  31.8130817  21.1918869  80.5840683  32.7111511  21.5226936  80.5676575
  31.9090042  20.2414761  80.6453094  23.8986626  35.8909721  63.6580276
  24.5487270  36.1121407  64.3249130  24.0846767  36.4893799  62.9344673
  61.7830200   0.8477894   6.8621969  61.2679672   1.5650066   7.2317295
  61.2507095   0.0670872   7.0151091  48.0623207  51.4082603  41.4545364
  47.7327805  52.0547066  42.0788307  47.3250465  51.2461357  40.8660049
  23.7116146  29.2626610  62.8967896  23.5092735  29.5199699  61.9972992
  23.9318752  30.0836143  63.3369637  56.3902740  31.1158199  20.9647865
  57.0429916  30.6257763  21.4648342  55.7009735  31.3127651  21.5990658
  86.1813583  27.1211205   7.8189416  85.6566467  27.9163456   7.7266002
  86.3395462  27.0464821   8.7600241   1.8064839  40.2167244  65.9283600
   1.0549160  40.6490326  66.3339310   1.4393235  39.7556801  65.1741257
  53.9394875  40.0000801  74.8088913  52.9827805  39.9842110  74.7826080
  54.1502647  40.2496262  75.7086334  82.4896393  59.0823631  44.3209305
  82.1095200  58.2438049  44.0590935  83.1032104  59.2970200  43.6183052
  53.3120613  57.3719444  41.5751762  53.9630890  57.0239983  42.1845436
  53.2494850  58.3011322  41.7963715  26.8627968   0.8896948  55.8451347
  27.0966778   1.7811364  55.5865555  26.1504211   1.0019850  56.4745369
  45.3956871  18.1288548   5.5227623  45.1702232  18.3813267   6.4181142
  46.3351898  18.2991867   5.4552574  76.7799072  16.3811703  77.7030334
  77.5471191  16.7634087  78.1290741  76.8928528  15.4365816  77.8089828
   3.2914345  47.1248131  85.6200104   2.5957475  46.5028687  85.4068451
   3.6574566  46.8018150  86.4433746   7.5859795  60.5946922  70.3482208
   7.3176112  59.8397255  69.8245468   6.8320217  61.1838799  70.3229828
  70.0402374  48.2405510  32.3618011  69.9316330  49.1085434  31.9731808
  69.1493988  47.8984451  32.4366035  16.6635742  56.6628838  76.3411331
  16.0955238  56.1677551  75.7508850  16.6679955  57.5498466  75.9812698
  31.3350201  44.9071655  14.0480871  31.1690731  44.6016006  13.1562786
  31.3493080  45.8615036  13.9755087   1.0632159   8.0053530  78.4939957
   1.3048910   7.5699916  79.3114853   0.8874509   8.9113426  78.7480087
  84.4609909  26.8471527  35.7828217  85.4087601  26.7683067  35.8912506
  84.2379150  26.1802788  35.1334000  35.8624992  57.2520447  59.1585960
  35.9304237  57.8215446  58.3922501  36.1233940  56.3883133  58.8390121
  16.1672153  47.7833443  21.7091103  15.7954226  47.3536034  22.4793873
  16.7210255  47.1148453  21.3058281  35.8717690   7.4232793  75.9960022
  36.0729637   7.2938838  76.9228363  35.0821609   7.9643431  75.9955902
   9.8194637  58.0347633  47.8513527   9.4831238  57.5861359  47.0755692
   9.0601654  58.4936333  48.2107086  49.4956589  69.2224197  38.3785591
  49.8594322  68.7734451  37.6154633  48.6853905  69.6194763  38.0591202
  59.4934082   8.2381248  62.5121803  59.2947464   9.0774269  62.0970459
  59.5962486   7.6280489  61.7817955  66.3376770  26.6789246  22.4263535
  65.5845032  27.2690430  22.3995399  67.0979767  27.2588291  22.3828659
  63.9045029  39.5101891  43.6728668  64.3339539  38.6740799  43.8537712
  63.0509567  39.4384193  44.1001205   5.7873588  10.5481310  13.3500004
   6.4678907  10.8772697  12.7628241   5.0188065  11.0821486  13.1490421
  84.6063461  58.1731606  27.8865738  85.4675140  57.7555809  27.9024220
  84.3330307  58.1933327  28.8036995  49.7433739  19.4023438  82.8675308
  50.7000504  19.3717651  82.8593445  49.4977493  19.4622841  81.9443207
  53.8476906   8.2914591  22.3159580  54.6068306   8.8339052  22.1022053
  53.8069496   8.3026552  23.2722244  74.0708389  19.7754059  68.6332779
  73.4653931  20.1347065  69.2817917  74.8104706  20.3830013  68.6336517
  23.3370667  43.0819778  56.0223846  23.1592255  43.9135895  56.4617348
  22.5686913  42.9331093  55.4713211  11.0086937   0.0932119  45.4007568
  11.4595509  -0.5702932  45.9229813  10.7690048   0.7722329  46.0313988
  33.4092407  30.7493954   8.4781847  32.5560684  31.1832447   8.4881649
  33.9068832  31.2150421   7.8060546  53.9388084  40.9518547   5.0655308
  53.7569580  40.4990234   4.2420597  53.5605011  41.8232727   4.9482818
  36.0030518  49.0033722  70.8297958  35.4543076  49.7710304  70.6691208
  36.5020599  48.8920555  70.0205765  66.9958038  40.6152534  54.1028709
  66.0388489  40.6071205  54.1229172  67.2374115  39.7272530  53.8395958
  67.2069702  15.2184620  48.3159981  67.6669617  14.7908497  47.5936470
  66.3807449  14.7408514  48.3899803  83.9773788  35.0822372  87.9673080
  83.6981735  34.8905029  87.0720291  84.4589081  35.9064789  87.8966904
  32.8179131  30.7179451  77.5757980  33.4751129  30.6143074  76.8876190
  31.9920883  30.4757671  77.1567535  56.6285858   3.3766422  46.3168983
  56.8949776   3.8021536  47.1318893  57.4464188   3.2439818  45.8375397
  -0.2373671  41.0105553  62.3382301   0.5052512  40.5290527  62.7027931
   0.1466290  41.5640793  61.6582375  30.8739777  69.1384888  20.6218319
  31.5480728  69.6625595  20.1891918  30.6863441  69.6116104  21.4324989
  76.0145950  58.6387787  48.1521568  76.9688416  58.6686554  48.2210579
  75.7152023  59.4072685  48.6379700  53.8190460  30.0935574  88.4412384
  54.5836334  30.6555538  88.5669250  53.7949066  29.9292946  87.4985428
  65.8972626  26.3982868  71.4911957  65.7719116  25.5291557  71.8721542
  66.2891235  26.9143600  72.1957169  80.0434265  54.3799973  13.5770493
  80.1414261  55.2315559  14.0030508  80.9360275  54.0404510  13.5122766
  27.2220955  51.1389351   8.6764555  27.5113735  50.8460274   9.5406055
  27.9648952  51.6334267   8.3301058  75.9602432  35.7284203  18.1424484
  75.7698364  35.1469841  18.8785934  75.8491287  36.6099434  18.4985371
  59.2251244  69.4437790  16.3807926  58.8290672  68.5768890  16.2920742
  60.0393524  69.3874283  15.8807011  33.3425446  47.6000214  22.6619549
  34.1169624  47.3983536  22.1367493  33.5257339  47.2119751  23.5175800
  63.5099945  69.9257660  27.9711990  63.1730347  69.6150208  27.1308861
  62.7515755  69.9075241  28.5548935  81.5256271  67.3031845  46.6564140
  82.4170761  66.9545822  46.6614227  81.2351913  67.2050934  45.7496300
  24.7770367   1.8962721  80.6784286  24.0950966   2.3528228  81.1711273
  24.3688545   1.0727075  80.4112930  19.3910179  15.9842262  63.6093597
  19.7103863  15.4248590  64.3174133  19.3605194  16.8610725  63.9920387
   0.1541850  17.3928928  15.8245926   0.5632526  16.9060898  15.1091089
   0.8136194  17.3982658  16.5183868  57.8126221  23.4955673  49.1385231
  56.9528275  23.6389408  48.7430153  57.9212570  22.5445518  49.1372795
  11.1588335  63.6255302  45.6372147  10.8578558  64.5313568  45.7088203
  11.9736948  63.6826324  45.1382446  64.9687119  14.4075804  77.4032745
  64.0150681  14.3405447  77.4512558  65.1852036  15.1507874  77.9663086
  67.9464645  27.2775497   3.5529175  67.4948349  26.9685707   4.3382807
  67.3790665  27.0106297   2.8297009  79.9071045  20.2578049  67.3363419
  80.0326004  19.7694054  66.5227432  79.2114105  19.7858925  67.7941055
  63.0855103  15.6941004  70.6461029  63.8724823  16.2304745  70.7420578
  63.3285942  14.8442917  71.0134811  78.4649658  24.9374695  14.3713121
  77.5908279  24.8444843  14.7500801  78.7875671  24.0399284  14.2902050
  10.0838442  37.9666634  14.3635015  10.4393435  38.4811516  15.0881748
   9.6782446  37.2086067  14.7842999  84.0167694  57.0135574  80.2407303
  83.6104431  56.4776039  80.9218292  84.5556870  57.6425018  80.7205429
  61.0566826  18.1710510  42.9321327  60.8198891  18.2737865  42.0103912
  61.7973022  17.5647240  42.9230156  69.6853790  28.5398464  56.3123741
  69.2670593  28.9690304  55.5660248  70.4048843  29.1238632  56.5521126
  59.3136330  66.5148087  21.8075066  59.6400528  67.2830276  22.2760391
  59.7392464  65.7731705  22.2376862  14.4526548  57.0299530  56.5382195
  13.5669098  56.8408623  56.8479500  15.0207100  56.5047455  57.1018715
  70.1010284  39.9626427  54.8695335  69.7082138  39.4527664  55.5780220
  69.7273788  39.5902901  54.0708046  16.2375774   4.9082165  73.7524185
  16.4872456   5.4985166  73.0414734  15.3792238   5.2235646  74.0352936
  37.7747612  55.5660667  15.5157042  37.3213577  56.2832298  15.9587965
  38.6773376  55.8720779  15.4265795  20.3138046   3.7273474  88.1333771
  20.9000874   4.4476733  87.9017868  20.4381084   3.6107295  89.0752792
  82.3256073  44.5005836  15.5866461  82.5215454  44.3300133  16.5079212
  82.3972168  43.6446877  15.1640997   0.9530045  39.4128571  72.6630402
   1.3786541  39.0953331  73.4594269   1.5257573  39.1224060  71.9532318
   7.3518887   6.0504870  72.2323380   7.8728046   5.2492638  72.1783066
   6.4446907   5.7456474  72.2495804  26.9700184   0.7945432  16.8684464
  27.4990482   1.5801858  16.7301521  26.6037846   0.9038200  17.7460346
  52.1373863  63.2047462  48.4050865  51.7093811  63.7770767  49.0418663
  52.4534149  63.7983665  47.7239304  27.1623974  21.5029678  86.7109451
  27.4460049  22.3554173  87.0412979  27.9753342  21.0162964  86.5748749
  10.8494568  29.3285408  60.4616356  11.1653681  29.8537045  59.7263565
   9.9346437  29.1441460  60.2486877  51.0928688   5.0569539  53.1528168
  50.2218857   4.7765145  52.8717995  51.2578163   4.5595207  53.9538078
  75.7265930  21.1379833  16.1609650  75.2169342  20.3945999  16.4832458
  76.5836716  21.0384483  16.5753880  61.9961281  26.9990368  20.4318314
  62.8316422  27.2698174  20.8123856  61.4050522  27.7315407  20.6059017
  54.4310989  42.7617836  56.9321632  54.5754089  43.5430527  56.3982849
  54.6237411  42.0311813  56.3445053  22.4170380  38.9172974   7.3041778
  23.3413525  38.8554382   7.5451117  22.3740845  38.5473061   6.4224224
  74.2998810  13.3782616  42.8256454  73.8840027  14.2377234  42.7578049
  73.5738449  12.7716827  42.9711494  46.5136681  34.1418381  64.9594879
  46.1057205  34.9056396  64.5515442  46.3382301  34.2473831  65.8945389
  42.8089523  57.7749138  26.6717606  42.4726524  56.8897743  26.5315361
  43.5912933  57.8237152  26.1224041  26.6396675  30.1667309   4.7000456
  26.4913788  30.0928631   3.7572911  27.5674763  30.3881340   4.7799416
  54.9151001  10.9065084  47.0432396  54.1798058  11.4834518  46.8365822
  55.6131554  11.1867456  46.4512749  82.4993057  26.1286526  46.7846832
  82.4549179  25.3142300  46.2837067  83.2623672  26.5859318  46.4313202
  49.1376152  17.9343376  63.9512329  49.1327667  17.0177040  63.6755714
  49.9217644  18.3027020  63.5442352   1.3013496  71.8552246  25.4147129
   1.3732331  71.3300018  24.6177158   2.0108094  71.5395432  25.9743919
  76.1439362  16.5923615  84.3532867  77.0942993  16.6480446  84.4529648
  75.8377075  17.4916344  84.4706116  44.4426689  38.0300560  17.0770531
  44.5284462  38.4722519  17.9216461  43.5653496  38.2625885  16.7729645
  45.5409775  36.9193306  83.0831146  44.8429604  37.0143738  83.7311707
  45.1021500  37.0328255  82.2400436  46.5195808  61.0952759  50.9261665
  47.1138039  60.5673256  50.3928757  45.6448021  60.8462372  50.6278839
  54.9435501  13.4686508   3.1211722  54.1585541  14.0162992   3.1307337
  55.4686584  13.8153048   2.3998365  77.4708786  35.1407166  62.9635429
  76.6091537  35.2287560  62.5562248  78.0657120  34.9750023  62.2321434
  52.0356331  31.9708080  38.4413910  52.4973869  31.5747700  39.1804237
  52.5745964  31.7569275  37.6798096  57.5139160   4.0272183  26.7698021
  56.8128433   4.3635340  26.2115726  57.7243576   4.7550974  27.3547287
  80.3987427  53.6437836  21.8488541  79.9156036  54.0469666  21.1275673
  81.2344971  54.1100426  21.8675175  55.9288712  56.5646057  58.2143784
  55.7521744  57.4638329  58.4907837  56.5084610  56.2154312  58.8914185
  67.6206360  12.0733566  18.8769684  67.5178223  12.9489965  18.5042553
  68.4929886  12.0816278  19.2708759  66.3551025  10.7329111  49.0819588
  65.6198654  11.1174917  49.5592003  67.1279221  11.1692390  49.4405670
  65.7455902  36.0959816   4.5738888  66.6919479  35.9549484   4.6014929
  65.3844986  35.4079781   5.1328988  43.8530655  21.7150192  69.0095215
  44.1839828  20.9025192  68.6266785  42.9686890  21.8043346  68.6543732
  12.9664488  61.3432465   9.7912798  12.3673105  61.1007309   9.0852680
  13.6823893  61.8013725   9.3510761  51.2016373  54.4758034  81.5051270
  51.9034538  54.9233475  81.0324860  51.3761368  54.6638184  82.4273224
  69.5097351  41.3018684  63.0604858  69.7004089  41.0216675  63.9556732
  69.3498688  42.2428360  63.1329651  25.6913776  46.6279297  25.3861446
  26.5410519  46.3180237  25.0727062  25.0773869  46.3853149  24.6930447
  70.6958542  68.0847931  18.9977722  71.4711914  68.2628098  18.4654236
  69.9941483  68.5762405  18.5707722  32.4557190  63.3461494  66.3958740
  33.1927986  63.3121948  67.0056229  32.5194969  62.5314713  65.8974152
  42.5160789  10.9942770  16.9937954  41.8409309  11.6727409  17.0035477
  42.0958939  10.2324972  17.3930035  57.4982681  61.9860306  16.7738037
  57.8378220  62.3738213  15.9672356  58.0492058  62.3518028  17.4658394
  48.9636040  62.9754066  68.8258286  48.8170433  62.3213730  69.5091934
  48.6921844  62.5415649  68.0169067  56.7456551  10.9283524   9.3817339
  57.1965866  11.7702894   9.4452515  57.2707748  10.3343430   9.9180536
  37.5454483  38.4703560  74.4058380  38.3118782  38.3599091  73.8431473
  37.4319344  37.6178246  74.8260040  59.5002022  40.7327843  33.1894455
  60.4559898  40.7693253  33.2264442  59.2715225  39.9433937  33.6801643
  30.1876831  59.5504456  55.0367050  29.3587170  60.0255165  54.9787865
  30.7906017  60.0531349  54.4889603  79.8092117  61.1896896  73.6556320
  79.8179550  61.8710632  74.3278580  79.0367813  60.6622925  73.8592072
  59.3780174  14.1143904  51.8106651  58.9848022  14.9279079  51.4947510
  59.6685753  13.6648560  51.0171127  65.8425064  45.0464401  67.9153976
  65.2864914  45.0749817  67.1367645  65.2272949  45.0123367  68.6479111
  81.5205688  32.3495445  34.8787804  81.0277405  31.5535679  34.6793518
  81.6522446  32.3186302  35.8263741  12.5531635   5.8992043  63.7207184
  12.5190010   5.0035448  63.3847733  13.3807402   5.9439807  64.1996155
  30.3466053  65.4157181   9.5136642  30.3431072  65.2330627  10.4532681
  30.8659821  66.2150726   9.4269934  18.7101574  68.4878387  88.6694641
  18.8374310  67.7417374  89.2554398  18.1223888  69.0715485  89.1490936
  86.1931305  59.9233360  50.4865875  85.8472214  59.6567955  49.6348076
  86.5352478  59.1155586  50.8695831  74.6464386  50.5834503  16.1670761
  75.1528625  49.7989388  16.3775864  75.2780991  51.2999878  16.2287674
  57.7736588  46.0279198  82.9062500  58.6622086  45.8319817  83.2034378
  57.7956085  45.8667793  81.9629593  28.2166996  69.1595688  55.6492958
  28.1114273  68.2096024  55.5971947  27.6467552  69.4244614  56.3712540
  31.9444008  18.1595135  78.7753448  31.0905991  18.4641647  79.0826569
  32.0211258  17.2710781  79.1232300  40.3277931  54.8569794  52.7688637
  40.8836899  54.2436371  52.2882195  39.4482574  54.4850388  52.7032356
  46.9559097  65.4173813  31.4269466  47.0006180  65.8529663  32.2781219
  46.8858223  64.4863129  31.6377487   2.0428107  29.3772907  17.7458420
   1.2736279  29.0296516  18.1972141   2.4477947  28.6116600  17.3383770
  20.8293209  57.4696312  69.4594193  20.2600079  58.1593437  69.8006134
  21.6567135  57.9129257  69.2719574  76.0699997  14.4785480  74.5638504
  75.5532227  14.0963917  73.8545380  76.1114426  15.4115829  74.3541870
  76.0718536   9.9528847  54.1460762  75.9322281   9.2231617  53.5425491
  75.8422470   9.6000137  55.0057220  64.4931564   0.2719366  46.4189949
  63.9278793  -0.2250592  47.0103455  64.0674515   0.2008419  45.5646210
  47.5085106  52.1384506  80.3733902  48.2603493  51.5597649  80.2465363
  46.8010750  51.5552368  80.6483994  61.5498466  11.5395241  73.1469879
  61.1049156  11.8357477  72.3529358  62.2965355  11.0325241  72.8281784
  56.1643372  54.2432632  77.4133530  56.3731422  54.9910088  77.9732819
  55.3758583  54.5105286  76.9410248  73.0709839  24.4854622  84.1665039
  73.2225113  23.6184921  84.5428467  73.9329376  24.9017010  84.1691513
  80.3763046   2.8814745  45.2811852  81.1791916   2.5267451  44.8993797
  79.6924438   2.6604102  44.6489677  20.9111614   7.8048391  26.9570713
  20.6003189   7.2924438  26.2107067  21.4549561   8.4895897  26.5676689
  40.3801193  62.1893272  17.4067593  41.0598640  61.9533920  16.7754803
  39.8997383  62.9024544  16.9861431  58.1608887   5.6832480  80.3773041
  58.9856148   6.1548367  80.4942169  57.7823601   5.6413832  81.2554779
  31.1179714  35.6644135  22.3055649  30.5021152  36.2711487  22.7164478
  31.0302219  34.8557663  22.8101673  35.1817284  37.6881561  35.3385429
  35.2452927  38.2606392  34.5740471  35.1281166  38.2876091  36.0828629
  52.2690697  42.9115143  21.3240032  53.1902351  42.8100510  21.5635719
  52.2173233  42.5824547  20.4266338  58.4497185   1.0122091  87.4544678
  59.0640984   1.1693065  88.1714706  57.6966400   0.5938389  87.8716812
  61.9266624  14.5927134  67.8700943  60.9767685  14.6833344  67.9457550
  62.2777901  15.1983805  68.5228653  33.5654678   2.1052754   4.7074065
  33.4222794   1.6457189   5.5347738  33.5325241   3.0331972   4.9400172
  13.1650257  57.5456085  67.7651596  12.3834324  57.1304359  67.4005051
  13.8938255  57.1325645  67.3020401  63.4171829  71.8333740   4.6601157
  64.0539474  71.1295547   4.7842183  62.9985695  71.9311829   5.5153518
  15.4514742   5.3812842  61.7799187  16.2529888   4.8718505  61.6604118
  14.7792902   4.8827224  61.3153343  61.9712982  13.6650982  56.4439163
  62.7604027  13.2129612  56.7424355  61.3565826  12.9616270  56.2353821
   2.6967580  47.1755562  76.2206650   1.9482905  47.4862061  75.7112350
   3.2286973  46.6879082  75.5918045  29.8637085  47.3970871  32.0087166
  30.3570919  46.7759056  32.5443840  28.9503765  47.2554283  32.2576904
  68.3449326  21.1510258   6.0180063  68.9756088  21.4275665   6.6828423
  68.0376205  20.2963505   6.3201952  34.9036903  16.6760483  79.0527039
  34.2785721  16.0651608  78.6624756  35.6885490  16.1500874  79.2062912
  53.9640236  64.3427811  18.8159313  53.5862389  64.7169647  19.6118565
  53.6111908  63.4537735  18.7783642  85.3687134  28.2976761  68.5743790
  85.1310425  28.1528072  69.4902191  86.2861557  28.0301781  68.5198212
  40.1636925  50.6280632  26.6791306  40.2572174  49.7989388  27.1482162
  40.6518326  50.4995117  25.8658504  55.3196259  27.1328945  85.4894714
  54.8179245  26.8126793  84.7398071  56.1734238  26.7084484  85.4051971
  31.6651497  67.9344788  43.9243164  31.9902439  68.1920929  43.0616570
  30.8119202  68.3623199  43.9963036  35.2049484  48.7202072  58.5530128
  34.6616745  49.2521706  59.1344795  35.2681999  49.2339439  57.7478371
  58.0119820  68.0800705  60.5513344  58.2368011  68.9974442  60.7066383
  58.8557587  67.6425934  60.4378014  60.4934044  21.8760033  44.4411545
  61.4353981  21.7716160  44.5752525  60.4021492  22.7440948  44.0483131
  61.8474617  15.7550097  32.0771408  61.4324341  16.1231937  31.2971249
  62.6748390  15.3929815  31.7599430  53.4234352  68.3530273  15.6607494
  53.4969749  69.3002701  15.5443277  53.0265312  68.0418167  14.8472061
  80.2201614   2.0772595  66.7194595  80.3211975   1.4326220  66.0191269
  79.3138885   1.9751247  67.0100937  43.7318115   5.5163016  35.3658600
  43.4435501   5.7575269  36.2461700  43.9128494   6.3520193  34.9357033
  52.7274208  14.7029018  53.2487259  53.6494675  14.4887905  53.1065445
  52.2511215  13.9398117  52.9215240  11.7647161  55.2254028  31.2547112
  11.7573690  55.2102585  32.2117653  10.8627691  55.0244102  31.0050602
  32.1843376  46.3105431  53.9113083  31.9621315  45.7752686  54.6731071
  33.0188828  45.9559669  53.6046448  47.4097633   1.1904166  75.7856445
  47.6209831   0.8496904  76.6548538  46.6723938   1.7826509  75.9332275
  35.9017639   1.9631401  33.3615417  36.8437729   1.9323531  33.5285797
  35.7510681   1.2761582  32.7122498  66.2234802  14.8375835  20.2945843
  65.5573502  14.1512222  20.3321495  66.4194260  15.0316086  21.2112045
  69.0886078  16.1415405  86.2545700  68.2997208  16.1629543  86.7962570
  68.8598328  15.5711708  85.5206985  44.8438568  43.2933655  28.5140400
  45.5724678  43.0492821  27.9432659  44.7950821  44.2468758  28.4456882
  58.3552132  34.5491676  57.9956169  57.8519287  34.6352539  58.8052597
  57.8330154  33.9607010  57.4504166  46.3866615  19.1659966  11.7598810
  46.1324196  20.0191612  11.4081669  45.5575142  18.7111874  11.9078407
  74.6623535  71.0829086  57.3374176  74.2749100  70.4545517  57.9467506
  74.1437607  70.9923172  56.5379944  24.2218151  53.9027710  60.8086243
  24.0486450  52.9789734  60.9898376  25.0633106  54.0759888  61.2306595
  75.9474106  22.8638000  40.8946877  75.6187592  22.6295891  40.0267220
  76.6708603  23.4664078  40.7222862  23.6797352  63.5736389  36.1125412
  23.0774078  63.9306908  35.4598923  24.4843407  64.0793076  35.9978867
  17.5641594  24.1576023  36.9255524  17.7118053  24.8430443  36.2739372
  16.7506371  24.4122639  37.3609390  29.5210609   2.7754056  26.7517376
  29.1545086   2.9159760  25.8787479  30.2373981   3.4071143  26.8152943
  84.1040649  56.7737961  43.0870171  83.2332077  56.7695808  42.6897621
  84.4446411  57.6503067  42.9082108  51.4084091  42.1645279   4.5802674
  51.0458946  42.5823288   5.3614545  51.3859978  41.2280769   4.7772317
  79.9378815   5.5788765   3.6054633  79.6647644   5.0043087   2.8902636
  80.7077560   5.1487112   3.9776034  46.9301147  43.0288658   7.5354195
  47.6938553  43.5695648   7.3339753  46.2326012  43.3850822   6.9851322
  35.4640121  71.5249405  31.1207809  34.5451241  71.7928238  31.1099682
  35.4671516  70.6994476  31.6053238  36.6796036  32.0041656  81.0547638
  37.4445381  32.5699234  81.1597672  36.9169464  31.1942310  81.5063248
  52.5355873  16.7759533  15.7124805  51.7560120  16.8621387  15.1637859
  52.5236244  17.5542545  16.2695580  73.7909164  37.7299881  56.7614975
  74.0021896  38.6535263  56.6248512  72.9919357  37.7424927  57.2884789
  69.4793320  37.4080353   1.6369749  70.0117569  38.1401672   1.3259443
  69.9669800  36.6279488   1.3725787  64.4439545  17.0383663  80.0855255
  64.9942017  16.2807522  79.8868256  63.7367363  16.6856842  80.6256180
  44.3763199   6.5617580  11.5576601  44.1128731   6.6015253  12.4770327
  45.3263474   6.4481297  11.5854416  25.6560459  45.4834251  56.5797043
  26.1913052  45.3635216  57.3641472  25.2469616  44.6300392  56.4361382
  49.3422318  66.1348724  36.4535408  49.5199471  65.3177643  35.9877167
  48.3897400  66.2250290  36.4241791  18.4854221  68.4025345  82.6739578
  18.8744221  68.5467072  81.8113251  19.2143364  68.5058899  83.2857056
  36.3064728  12.2827969   4.6478062  36.1672554  12.9909153   4.0189829
  37.2576408  12.2279053   4.7399969  35.1727600  55.0772896  37.6229439
  36.0255280  55.4907608  37.4885559  35.1974678  54.2934685  37.0740852
  74.0352020  56.6855049   9.3476276  74.4540405  56.6277580   8.4888649
  74.6498108  57.1901093   9.8804169  47.3640137  58.6816177  58.7970963
  47.5499573  59.4704933  59.3063393  46.9557953  58.0832748  59.4228554
  51.8548088  42.1316376  69.5390091  52.7331390  41.8319588  69.7734528
  51.9523277  42.4933853  68.6581802  61.6838379  30.7761841  59.3474388
  60.8014450  30.6333694  59.0050583  62.0128899  31.5283318  58.8552704
  14.8376045  33.1425934  17.8004742  15.1098127  33.9459534  17.3569126
  14.1302109  32.7964973  17.2563782  76.6218872   8.2019768  86.0778961
  76.7118530   7.3238282  85.7077713  76.2562866   8.0577269  86.9506836
  40.3493195  46.5565758  38.3219872  41.1575165  46.6707458  37.8219681
  39.7346153  46.1696358  37.6985741   5.5530539   0.4888864   2.2918475
   5.2907209   1.2876258   1.8342133   5.8722067   0.7933951   3.1413457
  70.4619370  18.9788380  81.1819611  69.9335632  19.5321655  80.6067352
  69.8472061  18.3263798  81.5175705  82.9243698  41.4189873  73.2029724
  83.8587723  41.2170334  73.2513428  82.4896927  40.5812187  73.3624496
  54.5294075  41.7691040  46.3383789  54.0593872  40.9723091  46.5841980
  54.1905670  42.4396820  46.9314575  80.0497437  26.0988197  43.0458221
  79.7937546  26.6549778  42.3100319  79.2925491  25.5318718  43.1923065
   1.3399527  56.5514297   3.4846241   1.7713394  55.7604980   3.8079894
   1.4510187  57.1898842   4.1890907   2.2271757   9.4227495  73.2548065
   2.5309114   8.5226851  73.3725357   1.2766277   9.3696918  73.3541794
   0.3902166   3.8566155  36.9911079  -0.5042296   3.5833430  36.7873421
   0.3150943   4.3190417  37.8258209  61.9341087  58.6577911  32.0918465
  62.2945404  57.8288536  32.4067764  61.2787323  58.8982086  32.7467613
  42.8855515   5.0826211  15.8031034  42.1614075   4.5209746  15.5266972
  42.6903419   5.2931190  16.7162380  26.1373367   2.9406765  30.5341530
  26.5881729   3.7751079  30.4049149  26.0526028   2.5753083  29.6534958
  24.4296989  36.5809479   4.9846511  25.0283604  36.2880516   5.6717095
  24.5999813  35.9903946   4.2508383  57.4903183   6.5388436  45.9877052
  58.0585175   5.7697692  46.0313644  57.1173782   6.6112862  46.8662834
  18.2663288  33.5518494  22.3334332  18.1509762  34.0723000  23.1284542
  17.6016388  32.8660622  22.3975601  78.0222702  27.2353802   0.2608660
  77.3000946  26.7569103   0.6680059  78.3325882  26.6548405  -0.4340508
  17.1143818  33.6085930  83.9441833  17.1250706  33.1172295  83.1228027
  16.2875786  34.0904999  83.9242554  71.7391281  55.0678139  55.3848076
  71.3553009  55.9437103  55.3434258  72.6798553  55.2135696  55.2846718
  50.4161682  49.6371002  52.2821960  49.7130432  49.9470253  51.7114143
  50.8982849  49.0063438  51.7474632  48.0438004  38.9886398  23.1555042
  48.9936600  39.0852814  23.0872517  47.8359032  38.2529373  22.5795193
   8.5499668  49.5493622  61.8293533   8.9730463  48.6925163  61.8845673
   7.7278614  49.3813210  61.3687706  34.3392487  52.1358490  80.1847610
  34.4258919  52.7240715  80.9349060  33.9896431  52.6887474  79.4859695
  79.0511551   3.7636671  23.9863491  78.3718414   4.2104626  24.4914608
  78.8262482   2.8355131  24.0509911  69.3403549  21.5632267  80.7785645
  69.6133499  21.3749886  79.8806381  68.4077072  21.3484726  80.7953568
   8.7937536   8.3491020  20.0638008   9.2437887   7.5045419  20.0842571
   8.2844934   8.3688173  20.8740444  86.6692734  43.7864799  77.5403214
  86.4369049  43.5799217  76.6350174  85.8868179  43.5645370  78.0450363
  18.3527489  68.5748978  47.2547455  17.8819599  67.8578491  46.8299789
  18.0949059  69.3549194  46.7635002   4.4407363  44.2764168  28.5665798
   4.2102013  43.4228058  28.1999245   4.4135318  44.1452370  29.5143585
  75.4711609  10.7850800  85.0194550  75.6122742   9.8391132  85.0577240
  76.0072479  11.0775852  84.2823792  25.1561966  63.9373512  39.0552750
  24.5097294  64.6432266  39.0620651  24.6350231  63.1349792  39.0837364
   6.9286065  41.2640572  68.8321152   6.8771310  40.7545166  68.0234451
   7.2959518  42.1056595  68.5619431  39.5296974  62.9933815  80.1028748
  39.1173019  63.8202667  80.3527222  39.0615425  62.3296165  80.6093063
  45.4474640  62.5681877  83.7579117  45.9243774  63.3275833  83.4230881
  46.1316185  61.9519653  84.0195084  83.9899445  17.0128670  46.1175423
  84.6164169  17.3485317  45.4763794  84.5335617  16.6233063  46.8023376
  78.3701782  50.6082916  64.1404419  79.0394440  50.5493660  63.4586487
  78.0835724  49.7047424  64.2734528  82.1851349   1.8332844  84.9979553
  82.1185760   0.8824797  85.0861130  81.2848511   2.1457634  85.0878525
  75.5401459  38.2320557   8.0334320  75.5617752  39.1441345   7.7438154
  76.2500076  37.8101540   7.5493665  72.0615387  50.9222221  21.7355366
  72.9116898  50.5377274  21.9491692  71.5528870  50.8421402  22.5424366
  54.4988060  41.7024231  69.9140091  55.3244705  41.5561028  69.4523773
  54.4638596  41.0053673  70.5690842  72.0672836  43.3723526  55.3456841
  71.1113968  43.4126625  55.3158569  72.3171005  42.9874191  54.5056572
  37.7431412  63.3318634  32.4899368  37.2635345  62.5326767  32.2719650
  38.6583710  63.0559540  32.5395355  36.4903831  52.0548477  75.2919083
  37.1304474  51.5150375  74.8280640  36.1332207  52.6343155  74.6189423
  55.0163040   2.4626110  83.2903824  54.4439850   2.9426892  83.8888855
  55.8036728   2.2830880  83.8042526  47.0954285  51.9970360  75.7101517
  46.7934723  51.5791130  74.9036789  48.0475197  52.0342255  75.6186752
  43.3530617   5.7229791  21.7474861  43.9911957   6.3061109  21.3364201
  42.5639648   6.2571716  21.8380203  30.1370888  41.5912743   5.1794729
  30.7026577  40.9119606   4.8121958  30.0464668  42.2337799   4.4757628
  40.8335495  21.5228977  74.1805725  40.4039421  22.2634144  73.7524338
  40.2097015  20.8019676  74.0951157  61.3117905  40.8545227   5.9672084
  61.7934875  41.2689438   6.6830668  60.4667091  40.6205597   6.3510432
  29.5206356  69.4411774  44.6494751  29.0676479  69.4906693  45.4912491
  29.3006039  70.2627869  44.2104073  29.7723370  69.5743332  34.8003006
  29.6918221  70.5201874  34.6773682  28.9818230  69.3270111  35.2800369
   3.9064157   7.4155512  34.7556992   4.0832195   6.4773955  34.6861572
   2.9579575   7.4890447  34.6495972  38.2960205  62.2961769  57.0862312
  38.6872559  62.1565704  56.2238655  38.3218231  61.4349556  57.5032082
  16.7159882  46.1998672  74.4580307  16.0228100  45.9034767  73.8682098
  17.4524994  45.6167946  74.2741547  22.2348309  47.5023079  82.3803406
  22.8206844  46.8049583  82.6748123  21.4884853  47.4563904  82.9779129
  73.4493408  43.9703598  19.7158890  73.0720596  44.3670578  20.5010757
  72.6959763  43.6275406  19.2351112  74.6814423  51.8924751  54.8916512
  74.6698380  52.5586548  55.5788918  75.6082993  51.6826248  54.7771187
  47.1330948  30.4128952  24.9516106  46.6488495  30.1546555  25.7358627
  47.8537064  30.9499302  25.2810650  40.8825264  58.9118919  67.0234222
  41.4503670  58.5355263  66.3510132  41.3784561  59.6548767  67.3673096
   8.9327230   1.0151513  43.5121841   8.2362061   1.3820186  44.0567055
   9.4833279   0.5269771  44.1243515  59.4615898  24.6056976  81.4578857
  59.9954605  24.2749023  80.7355347  59.8589973  25.4466686  81.6838684
  73.0937195   8.2079964  12.2529860  72.9023972   8.3876238  13.1735096
  72.6047058   7.4084930  12.0583105   5.7521086  54.7756538  79.5158386
   6.4895086  55.1847000  79.0628967   5.1928062  55.5085411  79.7733002
  54.6914902  57.6293983  17.6359596  54.0402069  57.3974380  16.9739494
  54.8269157  58.5697899  17.5195351  17.9808235  71.2576904  28.8428783
  18.2794132  70.8730316  28.0187931  17.7195625  70.5073242  29.3766632
  72.4967651  68.4235611  26.2526684  72.4613495  69.3438568  25.9918327
  72.0701675  68.4008026  27.1092453  26.3418865  19.1041183   4.1837611
  26.9862518  18.4105663   4.3252115  25.6679840  18.6974716   3.6390359
  84.6687851  59.2261772  13.2327175  84.7144852  58.3636818  13.6453238
  84.2742844  59.0613899  12.3763037  21.3260765  19.9946384  11.5346403
  21.9269962  20.6384201  11.9097071  20.8211784  20.4869137  10.8873577
  21.8000450  17.1736450  75.4345016  21.9429817  18.0212955  75.0134430
  20.9509678  16.8816013  75.1028290  81.0720444  35.8455315  78.4476776
  80.1688004  35.5780067  78.2779465  81.5665817  35.0260468  78.4582977
  14.2725306  52.8619766  70.9174805  14.2887278  53.1033401  71.8436050
  13.7029390  53.5143890  70.5098648  73.8704376  14.4085531  33.9814186
  73.0299606  13.9850550  34.1559830  73.6392136  15.2303724  33.5485458
   1.4110582   7.7818537  34.0625648   0.5085121   7.8396602  33.7490349
   1.7187995   8.6881495  34.0750008  80.8448486  61.4317780  55.5744438
  80.4658661  62.1616745  56.0641937  81.7761154  61.4534454  55.7946854
  31.9999504  31.8712578  18.3406219  31.7345505  32.4360313  19.0664501
  32.7492485  32.3203278  17.9493179  44.5674858  17.4081802  25.7205563
  45.4341278  17.0977993  25.4582062  44.4042549  18.1658497  25.1588383
   2.8828809   5.7294884  62.9442978   2.4693661   6.0988350  63.7245674
   2.3414705   6.0377765  62.2176170  53.5615273  65.2181168  38.7573471
  52.7917709  64.6756287  38.9288445  53.2067986  66.0284348  38.3915787
  53.5831223  63.9108467  88.8237991  53.9071388  63.0194473  88.6947632
  54.3666267  64.4590378  88.7809372  70.8933792  70.1727524  15.0455236
  69.9499664  70.0296555  14.9697790  71.1929016  70.2781525  14.1425247
  75.6069946   1.5018759  43.1711121  75.2649918   2.1731467  43.7615891
  75.9663239   1.9932175  42.4323997  78.3516464  19.7094536  39.7670441
  79.2168045  19.8827896  40.1381073  78.5250244  19.1642761  38.9996109
  28.6717052   1.4975883  46.0774002  28.7830639   2.4452147  46.0010147
  29.1573372   1.2623188  46.8679962  10.8206072   2.0557334   3.0428283
  10.5074310   1.9866508   3.9447043  11.7691717   2.1538048   3.1255252
  73.9240646  63.5885620  53.9331665  73.2870178  62.9068031  54.1467285
  73.5923767  63.9819374  53.1260300  69.3424301  35.3302650  81.5159378
  68.7722397  34.5716057  81.6406403  68.8058548  35.9556961  81.0289612
  40.3168793  60.1983948  46.3304901  40.6847191  61.0787811  46.4069138
  39.3960304  60.3019028  46.5704041  45.1864624  40.9452171  22.4521408
  45.7286339  40.9875717  23.2398510  45.7242203  40.4731941  21.8163414
   1.3974555   2.3664229  10.8454342   1.3749492   1.5477189  10.3500051
   0.5375468   2.4175403  11.2627773  55.0365524  20.1395226  47.3750725
  54.8559875  19.2000141  47.3442001  54.2278671  20.5490704  47.0676155
  53.6916618  30.1632557  55.2630844  53.5014954  30.2032833  54.3258209
  54.4973221  29.6497974  55.3222961  62.3733215   4.3114748  49.5690575
  62.2813873   3.6650434  48.8691254  61.4941559   4.3902588  49.9393158
  72.4493103  23.7065544  24.5323334  73.1138153  23.0519714  24.7472591
  72.4337921  24.2901134  25.2909184  81.1099472  48.7571259  44.2842102
  80.3211899  48.3679123  43.9065857  80.9189758  49.6942215  44.3243599
  65.0055847  67.8617630  71.2586746  65.3770218  68.6304626  71.6915283
  64.1335068  67.7689362  71.6422043   2.7509904  54.6268425  72.9465485
   3.4846792  54.5415344  73.5553665   2.1552401  55.2420578  73.3741302
  69.8817749  42.5690994  35.3567963  70.8358459  42.5630569  35.2797356
  69.6465073  43.4968796  35.3463326  67.7069550  60.4080963  40.9174576
  66.8989258  60.5153961  40.4156494  68.1430588  59.6587448  40.5118561
  43.4331322  63.1606674  18.4814625  43.9824371  63.1720581  19.2652779
  43.8557014  62.5266876  17.9020386  22.6180515  20.5915966  84.9671936
  22.8569202  21.3826351  84.4840469  23.0842838  19.8865929  84.5179367
  49.2874107  34.7397766  41.9959526  48.7027359  34.1701431  41.4960480
  48.8440132  35.5880203  42.0065880  22.9353638  56.7275620  47.0833588
  23.4022236  55.9690399  46.7327652  22.1797066  56.3547974  47.5375175
  75.8723679  13.7284412  64.8719635  76.1505203  14.4889555  65.3823318
  75.0343857  13.9896917  64.4901657  33.8652649  50.2095718  82.9391251
  33.5013733  51.0874062  82.8241272  33.1115456  49.6252441  82.8572693
   5.7914453  57.0658836  59.2731819   6.2070270  57.8972206  59.5020981
   6.0254164  56.4758568  59.9896698  23.8143940  54.8506279   5.2927904
  22.8717632  54.8617363   5.1267900  24.0611572  55.7745361   5.3344526
   3.7638178  54.3648033  22.0761757   3.1939919  55.0470543  22.4312363
   3.4075730  53.5486031  22.4270859  44.4093246  43.0673637  80.3284836
  44.2467346  42.9723473  81.2669754  44.1426468  43.9647255  80.1288528
  28.8190746  67.0211563  84.5019455  29.0909882  66.3376923  83.8894348
  28.6175671  66.5512314  85.3111420  71.4969635  26.4979305  20.3316612
  70.8722458  25.7769527  20.4100513  72.1176605  26.3557930  21.0463409
  33.8189507  29.7229462  70.6907959  33.7985802  30.5800247  70.2650757
  34.7462082  29.5661144  70.8692017  45.2946892  64.2908707   3.4927158
  45.0835457  63.6907272   2.7775371  46.1348343  63.9778099   3.8279438
  79.0597305  30.1213150  49.2900352  78.4703217  29.5461960  48.8021164
  78.4896927  30.5815182  49.9060707  79.0821991  25.0438900  26.5282078
  79.9067307  24.9134560  26.0598488  79.3097305  25.6202679  27.2577610
   4.2440758   2.2999773  42.0570145   3.8816719   1.8476756  42.8188019
   4.8931699   2.9014158  42.4219513  31.3961353  63.4760246  78.8568039
  30.9337769  62.9974213  78.1687622  30.7047920  63.7706184  79.4496689
  33.5567207  63.5436134  53.7749939  32.6493530  63.5508690  53.4702682
  33.5381317  63.0108566  54.5700150  52.0896454  65.2001190   1.7794834
  52.9601021  65.0487823   1.4111941  51.5790482  64.4370956   1.5087006
  20.2534904  69.9851837  16.8480110  20.8832932  69.5001068  17.3811932
  19.3983555  69.6749115  17.1458549  35.4034157  50.2449532  24.9305420
  35.4970856  49.6057854  24.2241974  34.4926682  50.5338326  24.8729382
  38.5389595  61.2984047  82.1155930  39.1433105  61.9643745  82.4434357
  38.9997482  60.4701500  82.2493744  14.4337883  35.0770645  83.7283096
  13.8109217  34.7433243  84.3739777  14.0999231  34.7620659  82.8883438
   2.0403247  52.5882416  80.7128525   2.3911793  51.8305511  81.1808701
   1.1219592  52.3686523  80.5559616  20.6696625  11.6211348   5.9136629
  20.4101219  11.9833422   5.0665050  20.6975269  12.3777924   6.4992619
  22.0480824  42.6710358  79.2423630  21.8034325  43.5598106  78.9845810
  21.2335873  42.1717110  79.1831665  41.0318375  35.3954659  72.6820526
  41.0605049  34.8485031  71.8970413  40.5593071  34.8668900  73.3251343
  40.5757446  70.7420349   5.6006899  41.3080940  71.2573090   5.9389057
  40.6853752  69.8790970   6.0001421  42.3299294  41.3035469   0.5383480
  42.5119400  40.7241936  -0.2015535  42.9002991  42.0591202   0.3968812
  24.1056576  69.3955307  82.1514893  24.7360706  70.1065750  82.0364609
  24.5366955  68.7882309  82.7528458  47.7207870  40.4645576  29.9301014
  47.1916008  40.3720207  29.1378708  47.7098083  39.5942650  30.3284760
  78.0430832  22.7793751  46.6235161  78.2035370  22.7852573  45.6798820
  77.7001724  23.6525955  46.8136063  54.1823616  70.8613281  58.6314926
  53.9854088  69.9886017  58.9717751  53.3885574  71.3689270  58.8001480
  18.0937138  58.0344200  88.8427887  18.8820915  57.4947243  88.9012451
  17.8054066  58.1363106  89.7498322  44.7351532  28.5119228  11.0657606
  45.3932266  28.4095306  10.3782387  44.0891380  27.8297939  10.8824644
  20.1142807   0.0540246  46.6553574  20.8481808  -0.4875891  46.3650513
  20.4302807   0.4777653  47.4533691  74.1407394  10.6346893  63.4786797
  74.5270615  10.8751955  64.3207932  73.9369049  11.4714651  63.0609627
  29.0490475  65.7128220  13.8836985  28.6293621  66.5644379  13.7618160
  29.7765007  65.7130737  13.2615700  12.3546162  46.5075493   5.0844264
  11.7098322  45.8281364   4.8872290  12.6625605  46.8015671   4.2271314
  20.8457661  65.6588287  56.3583908  20.5662994  65.7309799  57.2710381
  21.7849007  65.4807510  56.4088440  55.2073555  13.8262796   9.5571928
  54.6029167  14.2911034   8.9785547  55.1845360  14.3221827  10.3756008
  64.4917908  35.2402496  52.4411507  64.1410828  34.3555984  52.3380852
  65.0026703  35.2026672  53.2497482  60.6492653  64.6713486  41.6431770
  60.1165924  64.9838486  42.3745003  60.0219421  64.2603149  41.0484085
  51.7120972  21.5422039  70.2092590  51.1653862  22.2141628  69.8020630
  52.5914116  21.9203529  70.2157288  29.2476559  33.0655441  15.6008177
  29.5505867  32.1704102  15.7531195  29.1090565  33.1138229  14.6549358
  35.9832535  20.8452015   1.9591464  35.9641991  21.7930775   2.0910573
  35.8317337  20.4790306   2.8304629  53.4400330  43.7976303  48.3793716
  54.1193047  43.6168900  49.0291061  52.7769966  43.1244354  48.5324326
  66.6648560  53.7993774  10.0479116  67.1076050  53.7751389   9.1996126
  67.3709488  53.7179680  10.6890316  44.9507866  39.6370811  19.4624844
  44.4034767  40.4111404  19.5948162  45.8452454  39.9504013  19.5966625
  34.5701256  19.0381489  85.7033081  33.9337578  19.4563255  85.1233139
  34.9190559  19.7552109  86.2327423  68.7972107  63.6142921   1.7580582
  69.4739151  62.9610214   1.9356878  68.7557678  64.1395874   2.5571697
   7.6471815  52.6350861  84.2734604   8.2006989  52.2727280  83.5816879
   6.7632871  52.3430176  84.0506134   0.8974050  16.4171124  30.6516342
   0.8081778  16.0497189  31.5310040   1.8133634  16.2637901  30.4198074
  81.4808350  47.9093552  40.9439430  81.2625961  48.7279625  40.4984245
  82.3969955  48.0134163  41.2009544  62.8103867  15.2048149  23.6654339
  63.5882759  14.7522554  23.9914799  62.6794205  15.9280605  24.2786179
  40.6267395  42.4118118  23.2122669  40.0835609  41.6261597  23.1494904
  40.2583542  42.8994484  23.9489708  75.5686874  68.6580734   3.8145897
  76.0200729  68.4730301   4.6381450  76.0014648  69.4414139   3.4750164
  36.9075546  -0.0602868  14.3692932  36.3588753   0.5877438  14.8111506
  36.5853653  -0.0723375  13.4680271  42.6854668  25.5196457  88.4303055
  41.7457809  25.3575687  88.5136948  42.8554001  25.4650574  87.4898911
  82.2718887  45.8743439  46.8300476  81.9375000  45.0075455  46.5996666
  83.2170639  45.8106651  46.6928864  24.1573448   6.0750928  45.4622498
  25.0338211   5.8649464  45.7845154  24.1225681   7.0316358  45.4691811
  80.0686722  15.0246420  66.8899155  79.8291702  15.5355549  67.6631165
  80.4076538  15.6714125  66.2710419  68.6666794   8.2735758  10.0638885
  69.3545074   8.0478716   9.4376459  68.6324310   7.5266728  10.6615467
  42.5850830  49.7169724  80.5618591  41.6607819  49.6382370  80.7978668
  42.9947433  50.1177330  81.3285446   2.0814829   8.8350525  39.9707794
   1.6371000   8.3639431  39.2659340   2.4983399   9.5789795  39.5359993
  47.7567825  58.5396309  82.6637192  47.4993057  59.1846848  83.3223877
  48.2178879  57.8625984  83.1589355  73.4284592  37.1166763  63.0022430
  73.5513000  37.6449699  63.7909431  73.2936249  37.7570076  62.3036537
   2.2335765  65.3141556  44.9145737   2.9616067  65.7560577  45.3515244
   2.3945200  64.3824844  45.0639610  19.0208874  52.6340485  83.8017120
  19.1673203  53.4838638  83.3862610  19.4022675  52.0011139  83.1932983
  56.2040482  70.6873856  41.0891991  55.7848434  71.2463760  40.4349556
  55.6813736  70.8123627  41.8813019  17.0920658  40.5773582  80.6041718
  16.3890533  41.0762444  80.1880951  17.3333836  39.9165344  79.9550934
  19.7941647  49.1628914  40.9452744  19.5869598  49.6781883  41.7248688
  18.9415359  48.9034805  40.5960464  71.3949738  53.6459618  38.9589691
  71.4196091  54.1832962  39.7507362  70.5235748  53.2499084  38.9653091
  28.3350372  65.2182236  16.4603004  28.6265831  65.6041031  15.6342678
  27.6185207  65.7834549  16.7490005  55.7926102  13.6335754  59.0842514
  56.4460182  14.3120327  59.2545013  54.9610481  14.1060991  59.0460777
  27.1327801  19.9506264  84.0055466  26.3719273  20.2684288  83.5194016
  26.7647858  19.5626984  84.7994766   2.3457060  37.1410255  69.2127151
   3.0279939  37.1015625  69.8829117   2.8029990  37.4269714  68.4219284
  81.4973755  52.5242805  18.8387699  81.1662140  53.1608620  19.4722786
  80.8837128  52.5742722  18.1058636  65.3263168   5.1283460  84.3385696
  65.8032074   4.3141580  84.4995346  64.4478149   4.8452349  84.0849762
  78.4068527  32.7249985  76.1516724  79.2362213  32.9446564  75.7272568
  77.7526245  33.2408028  75.6803436   5.9242711  28.3773117   6.2911639
   5.8565197  28.2779484   7.2407789   6.3227415  29.2389164   6.1683226
  10.8226566  46.2930107  10.5401077  10.2984161  46.6971855  11.2315149
  11.6497564  46.0689316  10.9666367  56.5694656  27.1007481  27.2455750
  55.8488731  27.3918781  26.6868019  57.3532677  27.2269440  26.7108250
  28.7825451  52.5431938  20.2409477  29.5502110  52.3414459  20.7759438
  28.0491409  52.5187454  20.8555622  38.4563217  66.2113800  34.7857475
  38.6346741  65.4394989  35.3229828  38.9197617  66.9229431  35.2274933
  12.1237516  41.1671371  53.8401718  12.8213081  40.5535622  54.0707703
  11.5199347  41.1331635  54.5821152  50.8874130  36.6550713   6.2956982
  51.5488167  36.7526131   5.6106720  51.3309517  36.9307785   7.0978770
  19.4648724  67.7522659  18.9666862  19.5213737  67.4205627  18.0705776
  20.1708851  67.3044739  19.4327984  82.8583069   4.4003968  13.5244751
  83.7949677   4.2223415  13.6093559  82.7596436   5.3072243  13.8145781
  62.0181427   8.2941504  75.4134369  61.9154167   7.3642602  75.6158829
  61.7059174   8.3790655  74.5125809  56.8222466  50.5910912  10.8053598
  57.3585091  50.8153381  10.0448532  57.4505615  50.4920197  11.5206509
  42.1382217  34.5917397  85.6373444  42.7126999  34.4030266  84.8953247
  41.6471252  33.7812691  85.7722244  33.9206314  60.3792191  65.9294510
  33.1244774  60.4867516  65.4090576  34.5610237  60.9529724  65.5088196
  49.1607513  12.2118196   6.9477253  49.6131744  12.2154083   6.1042004
  49.8522949  12.3670359   7.5910811  59.1853065  32.5506325  29.8691845
  58.6225777  32.3735237  29.1153927  58.5900917  32.5458031  30.6188049
  69.0034256  61.8847809  25.5345993  69.9042816  62.0403786  25.8182964
  68.9809952  62.1930199  24.6286640   1.5865642  22.2436962  67.0588303
   1.3686376  22.7428303  67.8459778   1.5931591  21.3312397  67.3479919
  70.0520248  40.0238228  12.6009417  70.7174835  39.8571739  11.9333878
  69.2731857  39.5680122  12.2817698  70.6866760  57.1682320  66.5353317
  70.0267563  56.6584663  66.0653534  71.3972778  56.5479355  66.6981583
  72.8663254  47.3320732  20.9379730  73.3917389  47.7705879  20.2687359
  72.7586441  47.9885826  21.6261826  16.8160076  13.9315405  84.6339493
  17.2543297  14.7824631  84.6399460  17.4030991  13.3632069  84.1353989
  66.8987885   1.9809182  75.8674850  66.9334641   1.0256311  75.8179321
  66.4326248   2.2451289  75.0743179  16.9720974   5.1962576   2.9014533
  17.2471428   4.4330888   3.4095430  17.4170361   5.0966902   2.0598190
  23.9765644   5.5772758  28.7824039  23.1800594   5.2356424  28.3760834
  24.6881924   5.1113396  28.3434048  78.4010391  57.4104156  11.6534538
  78.7292175  56.5893402  11.2868948  79.0533142  57.6577339  12.3088932
  45.9831924  33.4637375  82.1236954  46.0979309  34.0684738  81.3906479
  45.3495369  32.8202667  81.8064270  61.6149864  25.3322392   0.0130805
  62.3076363  25.2282333  -0.6393409  61.8959236  24.7889080   0.7493532
  59.0236092  36.7453423   5.8224449  58.6982994  36.9795265   4.9532127
  58.8219452  37.5064735   6.3667274  65.5956345  23.6291084  32.8436699
  65.3944168  23.4269352  33.7573814  66.5516968  23.6620464  32.8105927
  18.1192837  47.0930748   2.1450427  17.3472557  47.3255959   2.6609282
  18.6168861  47.9080124   2.0779920  78.4229431   8.6498919  68.9269104
  79.0523224   7.9340367  68.8393707  78.9526978   9.4442282  68.8589478
  32.1477318  37.8025017  79.7323685  32.9185371  37.2698860  79.5363846
  31.7630043  37.3913422  80.5064240  50.4942017  58.9817810  13.6784229
  50.2742157  58.0531883  13.6038761  51.3457756  58.9918480  14.1154060
  81.1851959  19.5677071  57.7034378  80.3862915  19.4885311  58.2247009
  80.9796448  20.2364578  57.0501709  72.6346436  44.0960617  84.6842880
  72.4285889  44.2648697  85.6036835  72.6467972  44.9629059  84.2784958
  43.2812729  71.4888763  21.1396790  43.3352890  71.2493591  22.0648518
  43.9305801  72.1841888  21.0339756  84.7669373   7.3523126  88.4876099
  84.6399612   7.2191758  87.5482559  85.7115707   7.4705215  88.5872269
  51.2282181  47.9602776  28.7703724  52.1361427  47.9805679  29.0728512
  51.2018471  47.2405548  28.1398697  78.7714310  25.0765629  77.1436996
  78.3160019  25.8398685  77.4989243  78.1823273  24.3428936  77.3195190
  25.4076061  10.2052689  75.6405869  25.1702175  11.0976086  75.3883820
  25.2180939   9.6784906  74.8641739  58.4192619  44.8160133  33.6654778
  58.9374008  44.0984650  34.0300102  57.6847954  44.3837547  33.2296562
  86.4339676   0.3088481  38.8595772  87.0725861   0.1256462  39.5486565
  86.9508438   0.6876824  38.1485558  42.9143639  34.3514786  28.2629242
  42.9948120  33.4003296  28.3341351  43.7874374  34.6821747  28.4741592
   6.4024353  18.7834377  34.2754402   7.1081190  18.8963356  34.9122276
   5.6297994  19.1481876  34.7069778  37.9589005   9.5414505  87.0798187
  38.0538025   8.5923958  87.1605606  38.6627731   9.8994274  87.6207809
  54.4708900  58.4618111  81.3355484  54.4261055  59.1661110  81.9822235
  55.2684784  57.9819870  81.5588455  40.1787682  50.7979012  43.8608856
  39.4237785  51.3662605  44.0131798  40.7316513  50.9222527  44.6323013
  44.3874130  31.6933765  86.2661667  44.5546379  30.7764206  86.4840164
  45.1386833  31.9538021  85.7332458  45.3405647  14.9366312  34.3818512
  46.0366783  14.7710342  35.0176430  45.7391663  15.5211010  33.7370682
  33.5241852  36.7782745  83.2150803  33.8821983  35.9351845  83.4930344
  32.5843925  36.6210747  83.1239319  38.6544456  51.2206421  58.1008949
  38.5704613  50.2895088  58.3062439  39.5620003  51.4330444  58.3187485
  13.0828495  53.0010185  56.4027596  12.7000160  52.9292030  57.2771263
  12.4773722  53.5652008  55.9217949  27.4543705  36.2680702  11.6035719
  28.2359486  36.0881844  12.1260729  26.8118477  35.6256561  11.9047432
  74.2379379  63.4681969  43.6309967  75.0485458  63.3698044  43.1315269
  74.4460907  63.1173897  44.4969292  63.2560806  38.9365540  23.0566082
  62.7702255  38.3638954  23.6501064  63.0549965  39.8218689  23.3599358
  38.1164703  32.1002541   9.3704243  38.9758415  32.4500771   9.6056538
  37.5032616  32.5726776   9.9334717   4.8512497  19.2910995   5.1060514
   5.1535773  19.5280170   4.2292962   5.0719342  18.3637581   5.1930490
  16.7471352  58.9605904  68.8234177  16.3620071  59.4329185  68.0853043
  17.6407681  59.2982368  68.8838120  59.7462769  68.8535843  55.1326675
  59.5709915  68.2389908  54.4200783  60.6284142  69.1802750  54.9556389
  52.2695961   5.5904970  50.7267761  52.0619354   4.8380628  50.1727448
  51.7397194   5.4621239  51.5135307  62.1506119  20.5992126  35.6421471
  62.0274849  19.9655113  36.3488960  61.9100113  20.1220531  34.8480034
  12.1899137  47.1320457  65.7654495  12.2029819  46.6330299  64.9487228
  12.9082851  46.7659416  66.2813339  46.4712524   5.4906812  87.2648926
  46.5266876   5.0356541  88.1052017  45.5888939   5.2996268  86.9468155
  51.2608109  40.2576637  75.0913315  51.2351379  41.1368370  75.4689865
  50.9410477  39.6872826  75.7903595  82.7164917   1.1258012  13.2326422
  82.8985519   0.3446495  12.7102556  81.7612915   1.1643575  13.2809553
  41.4843292  48.9385605  83.6145935  40.5874481  49.2607117  83.7043457
  41.8069229  48.8745728  84.5135193  48.2078819  66.8632736  58.6904259
  48.6042366  66.1309433  58.2183762  47.4019279  67.0503769  58.2091141
  83.8895798  21.0748596  80.1906433  84.0829391  21.8398170  80.7325668
  84.3348770  21.2499104  79.3616104  64.5220566  10.9444141  34.4677315
  64.4911575  10.7896366  35.4118309  65.1972275  11.6137791  34.3567314
  59.5270004  34.0335503  55.3875771  59.9179077  34.4375534  56.1623077
  58.5923767  33.9851227  55.5884857  63.7132530  56.7772408  43.9195175
  63.2982864  56.4827843  43.1087608  63.4392052  56.1361732  44.5753860
  79.7013321  44.1558914  81.1991196  80.5561829  43.7572479  81.0361938
  79.8722153  45.0977135  81.1984329  40.4538727  45.3318558  22.0710182
  41.3525352  45.6604996  22.0961456  40.4797974  44.5241470  22.5840149
  47.9955978  28.9277802   4.0483418  48.9334221  29.0921669   4.1468163
  47.9317856  28.3549957   3.2840922  74.8334503  38.4220390  70.0448532
  75.7833481  38.4467010  69.9294662  74.4924774  38.9767990  69.3432770
  12.0678043   9.1580086  76.9662018  11.9633293   9.0893612  76.0172043
  12.9029512   8.7266655  77.1470490  49.6775360  35.4689522  74.0079727
  49.3156357  34.8975754  74.6853104  48.9580345  36.0586205  73.7824936
  51.2581291   0.2855648  35.8934059  51.0631065  -0.6220717  35.6601830
  52.2122040   0.3456566  35.8447533   3.5696046  45.8784523  10.8640032
   3.6930494  45.8657532  11.8131247   2.8064487  45.3204231  10.7142420
  43.6798248  13.6681185   2.5728679  42.8143806  14.0770292   2.5670671
  44.2860451  14.3926830   2.7269299  11.1817617   3.9013984  56.1245842
  11.5059071   4.4269423  55.3931732  10.5780001   3.2772169  55.7219658
  74.2788086   2.5528884  30.8939056  75.1526718   2.9110749  31.0497932
  73.8827209   2.5006008  31.7637386  82.6617584  55.0946007  40.9441948
  82.2822495  54.9549675  41.8117828  81.9161301  55.0458603  40.3459473
  71.8802261  25.6682949  68.7823410  71.5802460  25.0706844  69.4672546
  71.5986786  26.5336094  69.0793152  79.6819763  51.4756660  11.9464798
  79.5894165  50.5297089  11.8332129  80.5545044  51.6734009  11.6061449
  36.4887085  17.4806461   4.4662642  36.9404945  16.8799000   3.8736227
  36.6043243  17.0932789   5.3339119  12.9341154  50.2200012  42.6259651
  12.1058855  49.7401390  42.6253166  12.8249979  50.8851814  43.3055687
  62.9604836  46.5111160  29.1320686  62.9704819  47.0067291  28.3132286
  62.7223320  45.6216049  28.8707561  55.3236923  61.6855927  58.1655960
  54.6487694  61.9965591  58.7689285  54.8491402  61.4821930  57.3595810
  59.4059334  35.0795441  39.5581627  59.4222260  34.9568939  40.5073318
  58.5599289  34.7245216  39.2852707  72.7986298  31.1366978  32.3782425
  72.2143021  31.5278969  33.0276642  72.2121658  30.7954979  31.7030621
  25.1295433  59.9091988  70.2908173  25.3832340  60.7599297  70.6487732
  25.6804371  59.8016777  69.5154572  12.1905079   3.4149296  76.6975098
  13.0112324   3.1036866  77.0793076  12.4033566   3.5878220  75.7804337
  85.4436798  45.9843521  44.5399017  85.1116943  46.8724556  44.6713943
  85.6639862  45.9463615  43.6091728  54.3548508  46.4562187  44.7096748
  54.2283096  45.5436058  44.4501534  55.2564507  46.6544037  44.4565430
   5.5606141   1.2639922  22.8165436   6.1438599   1.0079354  23.5310287
   4.7457328   0.7935445  22.9922695  76.9296417   2.8239238  59.9597664
  77.2080002   3.2464299  59.1472168  76.2508469   2.2061131  59.6881371
  10.3454447  64.2254028   9.7626820   9.8125982  63.4761543  10.0290184
  10.4436741  64.1249619   8.8158484  29.7642479  63.2665787  81.4512405
  29.8150768  62.3462715  81.1930008  28.8288860  63.4690781  81.4332428
  15.9482555  59.5700111  11.8437147  15.0110016  59.5510941  11.6502476
  16.3130627  60.1792374  11.2018480  85.0624542   7.8267059  45.1879654
  85.7092056   7.2302094  45.5649719  85.5816193   8.4638548  44.6973152
  17.8343468  65.8744278  81.9340286  17.4935741  65.3108749  82.6286621
  18.0360489  66.7006454  82.3732376  83.1987686   2.2251837  15.7301731
  82.6718979   2.9162807  16.1314449  82.7580643   2.0388238  14.9011488
   3.8464806  33.5663147  75.1245193   3.3868961  32.7780609  74.8352661
   3.6186874  33.6502075  76.0504303  24.4196129  39.0533142  63.2661476
  23.7011070  39.6679573  63.1171761  24.7416878  38.8442955  62.3893318
  82.3182220  49.4324341  23.8472939  82.7930679  48.6636696  24.1631260
  81.6926117  49.0834160  23.2124443  50.3617210  61.5087852  54.2676048
  49.7646828  61.5201111  53.5195084  51.0515137  60.8954010  54.0142708
  17.3399372  23.0095444   8.3485775  17.3872681  22.0821400   8.1163864
  16.4044628  23.1825123   8.4544106  67.2638855  49.9218826   3.2759502
  67.8443985  49.7094688   4.0067873  67.7130814  50.6274605   2.8105307
   5.8225822  67.6920547  55.1511574   6.6193709  68.2211380  55.1133385
   5.7476931  67.4372559  56.0707779  44.5800667   7.0459247  43.3874512
  44.4384308   6.2684174  43.9275017  44.8927917   6.7024846  42.5505028
  65.4947433   8.7016554  79.6233826  66.4307404   8.5306187  79.5190430
  65.1773529   7.9766755  80.1618042  61.8069458   9.6418114  68.6504593
  61.4125824   8.7998104  68.4229889  61.1024323  10.2777157  68.5258789
  62.2491989  66.8275299  41.0199471  61.5638733  66.1906052  41.2221489
  61.8192253  67.6781464  41.1082191  55.7371674  53.0768166  19.6682453
  55.0563316  53.4912338  20.1982994  56.5576286  53.4247665  20.0175343
   6.7739358   4.6325598  52.2614250   5.8264098   4.5147319  52.1940193
   7.1355982   3.7605994  52.1029434  40.9212990   8.6613817  59.5676422
  41.1890221   9.3162813  60.2123604  40.2171974   9.0836220  59.0755157
  66.7229004  35.1740990  75.2496796  65.9274063  34.6629906  75.1007233
  66.4701843  35.8252335  75.9041977  48.0915451  46.4253502  50.1090965
  48.3221283  46.5187798  51.0333977  48.8383713  46.7941971  49.6374664
  25.5852966  59.9020081  14.5815544  25.6506481  58.9582672  14.7275381
  26.1307011  60.2886696  15.2665796  56.7767525  66.1842728  58.6944389
  57.3393059  65.4457932  58.9277000  57.0090828  66.8696060  59.3209915
  83.6501541  35.9204674  15.6727991  83.5125122  35.3096466  14.9487934
  84.5121155  36.3011284  15.5044355  67.5701294  41.2396927  56.8684807
  66.7749939  41.0490074  57.3661118  67.2797394  41.2742615  55.9570427
  82.1760635  30.4645023  59.6649818  82.7106857  29.9375801  60.2589264
  82.2537308  30.0243149  58.8185577  28.6835823   3.5769520  83.1148834
  28.1409855   4.0216365  83.7660904  29.3129559   4.2410831  82.8337250
  43.9562225  28.8270550  82.9577789  43.7802696  28.3446331  83.7655792
  44.8995056  28.9886703  82.9759521  18.9868698  35.3677711  70.9553680
  18.1731033  35.8676758  70.8912277  19.4813747  35.6138306  70.1736069
  41.0253716   7.4267993  21.2018375  40.3150406   6.8084936  21.3731937
  40.7283745   8.2476330  21.5945950  17.6244946  21.3282738  75.7948685
  18.0270920  21.1136971  74.9533768  17.7307625  22.2760506  75.8764801
  24.6302147  53.0829239  53.5586662  24.7708492  53.5250130  54.3959312
  25.4610691  52.6435966  53.3772583  81.2570953  29.4608746  64.3681564
  81.9949265  29.4047451  63.7609596  81.6306992  29.8375340  65.1648865
  46.8720970  40.3937988  54.4539070  47.1220932  39.7306252  55.0972862
  47.3701401  40.1657143  53.6689453  80.5817719  26.6716824  18.4029083
  80.0595016  27.3236618  17.9355946  81.4138489  26.6478710  17.9303455
   2.4164393  19.8257427  15.8125591   1.8213081  20.2972126  16.3954544
   2.6630805  19.0425663  16.3045292  82.5639420  42.0428848  14.6768866
  83.3523331  41.9082146  14.1510239  82.0377655  41.2578239  14.5250492
  61.3367310  29.6023960  71.9833374  61.8708687  29.0037460  72.5053940
  61.8962784  29.8397560  71.2438736  41.8583717  45.4184303  18.3645306
  42.6430473  45.0979347  17.9197865  41.3433838  44.6306801  18.5390892
  66.3884430  32.3039360  59.8508949  66.0178604  31.4618664  60.1151199
  66.9569931  32.5544701  60.5790596   9.1468458  18.9845314  84.1163177
   8.7788000  18.3506050  84.7318726   9.8792400  19.3799801  84.5890198
  12.3396320  -0.0217343  54.7239571  11.9532404   0.3018163  53.9101715
  13.2838564   0.0108038  54.5702896  20.4856930   6.0742073  54.4598007
  20.7330036   5.6127205  53.6584892  21.2922039   6.5009375  54.7490654
  56.8349533  26.8839684  48.1409416  57.4911575  27.4966850  48.4729118
  56.2431030  26.7432537  48.8799591  19.7915459  64.9852448  53.8246269
  20.1486435  65.1484070  54.6976051  20.5385971  65.0938873  53.2361145
  61.7375641  50.9615860  14.4269533  62.2786636  51.2096558  13.6773491
  61.4151382  50.0866966  14.2105255  55.4851189   8.2466183  58.4642143
  55.0124588   8.5506382  57.6893616  55.7763252   9.0490370  58.8972893
  27.8373985  46.8743095  27.7511921  27.1413288  47.4958305  27.5380363
  27.5771179  46.0638199  27.3134823  49.4093895   3.4956675  49.4377365
  50.3413391   3.4103317  49.6387749  49.3850327   3.9989958  48.6239166
  13.1327677  40.9376221  82.7351608  13.7919550  41.6311340  82.7624054
  12.8161945  40.9434357  81.8318481  20.8707809  31.5794430  71.5412598
  19.9240093  31.7100029  71.5942535  21.1751823  31.6641674  72.4448090
  71.3777390   9.7249813  86.9916916  72.1203995   9.1233816  86.9391174
  71.7612152  10.5546045  87.2761230   3.6723306  59.4376831  50.0884972
   3.9533763  59.1154442  49.2321014   3.3634820  60.3278618  49.9198952
   0.4163664  39.2210808  86.0057449  -0.2410786  39.4195747  86.6725311
   0.6399676  40.0721474  85.6290283  84.5993347   9.2569456  22.6675625
  84.3283691   8.4612713  23.1255054  83.7807617   9.6483459  22.3626385
  82.8657761   7.9243693  18.1823559  82.0205460   7.7989798  17.7509632
  82.6466446   8.0565910  19.1047077   4.5923944  65.8948822  25.8713017
   4.2283998  65.1070099  25.4675713   4.1970148  66.6180038  25.3844719
   1.8726715  14.5590878  62.3965225   1.2209438  15.2578430  62.3397408
   1.9458365  14.2265358  61.5019341  28.4831829  51.5016327   3.4661462
  28.4181767  51.6462822   2.5221748  27.8052692  50.8531761   3.6563299
  52.9136467  67.8506699   6.4589982  53.0422935  66.9342117   6.7035050
  53.4391289  68.3428726   7.0897427  86.5115814  52.3911362  51.0897026
  85.6701126  52.8468971  51.0684662  87.1528625  53.0801926  51.2634315
  38.9199066  21.4896984   5.2419410  38.6644287  21.0131016   6.0317631
  39.2938576  20.8204517   4.6687913  86.5332031  50.7899323  18.7201080
  86.8112183  51.4379692  19.3674011  85.6019363  50.9675255  18.5880966
  41.5042152  17.0775890  78.7390900  40.6589851  17.4221344  79.0273743
  41.3117027  16.6287079  77.9158783  15.0326490  15.3633947  67.4084396
  15.2202826  14.4313316  67.5192719  15.7407513  15.6855984  66.8507538
   8.8693323   7.3800755  30.6422195   9.4058552   7.3942537  31.4347935
   9.2010031   6.6345687  30.1417732  20.7935829  48.1245880  21.6905651
  21.3023567  48.6891747  22.2724743  20.6406841  47.3297157  22.2014790
  73.4853668  36.3914871  42.2849426  73.2052002  36.4946251  41.3754959
  73.8014297  35.4894943  42.3373718  68.3095627   4.2680712  59.9093628
  68.7054901   3.4441411  60.1932907  68.5735245   4.9027247  60.5755234
   1.9912524  42.0201111  21.6599350   1.9985598  41.0878487  21.8768711
   2.9161010  42.2581825  21.5950546  56.2728767   0.7029883  38.1068268
  56.7932320  -0.0998855  38.1360283  56.8994446   1.3859303  37.8675995
  31.2154999  66.9373932   2.8091967  31.8525486  67.1984863   2.1441920
  30.9472752  67.7594223   3.2197461  49.6349220  48.1847763  -0.0867259
  49.8359261  48.3985138   0.8243973  48.8051338  47.7095490  -0.0438065
   9.7757483   8.8354588  65.5471573   9.8971014   8.0552282  65.0060959
   9.2710953   8.5284815  66.3003693  19.4327717  67.9508896  55.9087791
  19.7542477  68.0112534  56.8083572  19.6567039  67.0618744  55.6335602
  78.1876144  19.3273296  43.4063148  78.9842453  19.3533058  43.9363556
  77.9614639  20.2471790  43.2686005  46.2584114  58.7233658  10.9372835
  46.8443642  58.3095589  11.5710506  45.3791504  58.4998322  11.2425117
  82.7916412  55.4275894  85.4313507  82.6979980  56.1789513  84.8457565
  81.9120941  55.2855835  85.7812958  18.6044483  45.5111313   6.7212777
  17.8773670  45.5483475   7.3427277  19.3698978  45.3106880   7.2599249
  76.2601013  58.9917641  20.8462162  76.8717346  59.7232170  20.9305363
  76.4587402  58.4262047  21.5924835  43.0001259  31.8371143  83.0913620
  43.4473724  30.9908676  83.0831375  42.2367172  31.7100391  82.5280762
   9.8392639  54.1622620  51.2854919  10.6382265  54.6892242  51.2997894
  10.0364151  53.4130325  51.8476486  67.0911331  12.8316851  84.0997467
  66.1529312  13.0150928  84.0511246  67.5052948  13.5921602  83.6918488
  28.3674679  65.8768234  39.0290833  28.5976334  65.9735947  38.1050186
  28.4463959  64.9380569  39.1985321  84.5640259  20.1040401  89.0884781
  84.6462097  19.2009373  88.7820816  84.1888046  20.5759869  88.3450394
  71.8860092  48.4127121   5.6770253  71.7976685  49.2844505   5.2916718
  71.5216217  47.8215714   5.0182347  70.8116913  66.2032852  88.5988464
  71.4492035  66.5606995  89.2169571  71.0268097  65.2721558  88.5444870
  26.7818947  36.6549225  83.4962234  27.0555897  36.0467606  84.1828613
  25.8253574  36.6291084  83.5207520  17.6046543  54.2822342  32.4926262
  16.7440529  53.8865204  32.3547592  18.0728359  53.6524315  33.0407066
   4.0601835  15.6170969  83.2795563   4.6095152  14.9680061  83.7190399
   3.7433650  16.1802998  83.9857101  16.0541782  61.2513771  19.5147476
  15.1465511  61.4443970  19.2798309  16.5625057  61.9476776  19.0988159
  64.1408234  61.3300858  27.0831032  64.1431198  62.2811012  27.1917171
  65.0025406  61.0515366  27.3930950  29.7508621  18.6909237  74.3759613
  28.8065109  18.5798817  74.2659378  29.8875751  19.6372509  74.3311844
  54.0348358  10.6274128  62.7576027  53.9719238  11.2159348  62.0053291
  53.6773720   9.7971678  62.4427338  35.1900902  39.4527588   9.5249739
  36.1288109  39.6301041   9.4650908  34.9024391  39.3754463   8.6152973
  29.5519333  69.7163696  11.3157358  29.2618465  70.5890121  11.5814066
  28.8991127  69.1233749  11.6877689  44.1379814  66.7733307  55.9482307
  44.0152245  67.7199097  56.0199814  43.4670448  66.4007568  56.5203018
  31.2534790   9.6845751  41.7115326  31.4820328   8.7974014  41.4341927
  30.4294014   9.8712883  41.2617950  26.8414001  68.5303268   7.4628282
  27.2418671  67.7240524   7.7880645  27.3482094  69.2315598   7.8722739
  78.8299179  14.7475681  74.8418884  77.9027863  14.5332928  74.7382202
  79.2066803  13.9795628  75.2713623  62.9094772  39.8071861   1.7940977
  62.3431168  39.0371933   1.7433503  63.7731209  39.4554482   2.0100484
  63.2428818   5.7884016  21.5765247  63.0163727   4.9013691  21.2970638
  63.7613754   6.1421394  20.8538475  40.7026634  43.3980675   8.8653622
  39.9878006  43.9206696   8.5019236  41.2920341  43.2510986   8.1255817
  72.9695053   2.9589303  87.5412750  72.8988953   2.2272007  86.9282379
  72.3158493   2.7710321  88.2148132  17.2700710  48.5209579   9.1914940
  18.0740376  48.3633842   9.6865110  16.9586678  47.6470184   8.9559298
  72.8389511   2.3087072  13.8000154  72.4535904   3.1828582  13.7400980
  73.7218933   2.4588296  14.1378078  30.9691181  69.9593811   3.3176394
  31.8638420  69.6655731   3.1462333  31.0085430  70.9116287   3.2287283
  29.6850395  48.6588364  59.2912216  29.4626579  47.9968872  58.6365471
  29.4775791  48.2458496  60.1294556  82.4573746  60.5213661  34.0830536
  81.6425247  60.0509796  34.2590752  82.5333252  60.5201149  33.1288719
  85.6454010  43.2088280   3.6774888  86.4483337  43.3028183   3.1649578
  85.9315643  43.2874146   4.5875244  71.9463425  29.8214512  43.6403503
  72.5083389  30.5832558  43.7819290  71.2832031  30.1249371  43.0203705
  58.5768089   5.2754960  83.8857422  59.0211754   6.0604258  84.2061386
  57.6555672   5.4155960  84.1046524  51.8065491  37.3603058  70.1102142
  52.0102882  36.7792130  70.8430481  51.0679817  37.8851662  70.4188843
  80.7796097  63.5521660  49.9038811  80.6481323  62.6485977  50.1911240
  81.5887680  63.8255348  50.3360405  84.8936081  33.8794365  39.5141907
  84.7599792  34.4819107  38.7824821  85.7518387  33.4889526  39.3492622
   5.2998443   3.3925872   0.5550061   5.8197694   4.0199823   0.0527262
   5.3421717   3.7133152   1.4558800  45.5405464  45.3561249  17.3956242
  46.1134262  44.5896988  17.4207020  45.3034172  45.5079422  18.3104763
  59.0056725  64.7431488   0.4684287  59.1716957  65.4978104   1.0333644
  58.0542870  64.6386719   0.4817733  36.0012779  47.2843781  29.7868004
  35.5027733  47.5346832  29.0089359  36.1008606  46.3352928  29.7123089
  25.9247608  69.6664276  39.5278664  25.0790825  70.0671539  39.7290649
  25.7201481  68.7464142  39.3607330  64.2611237  50.5002670  43.5919685
  63.6880226  50.2824974  42.8568726  65.1436005  50.4803505  43.2217484
  59.6354942  54.0414047  39.7206497  59.5903130  54.8838272  39.2684212
  59.0552559  54.1431503  40.4751091  62.7164574  60.1707230  73.4273376
  62.1268196  59.6052475  72.9285355  62.2744331  61.0195160  73.4472275
  63.1012306  68.5841446  89.0297318  63.1170616  69.1319580  88.2449493
  63.8085899  67.9533234  88.8957977  31.6607800  51.0836754  56.7513962
  30.8092289  51.1381874  57.1851234  31.6883450  50.1984863  56.3881912
  59.6948700  56.2735825  57.1197968  59.5209084  56.2361298  58.0603104
  58.8432045  56.1161346  56.7122345   6.1438222   5.4252734   6.6808414
   5.7411094   6.2886233   6.5876656   5.4138041   4.8414407   6.8868642
  57.3106651  52.5379982  23.0952854  56.6281052  51.8726578  23.1828518
  57.1565361  53.1368523  23.8259335  60.6530113  60.3573189  84.9267883
  61.3429527  60.8827019  85.3319855  60.9162483  60.2827034  84.0095215
  87.0705872  69.2571487  52.0821419  86.5136795  69.0564957  51.3299294
  86.7764893  70.1198425  52.3745422  30.6801853  47.7615280  79.9067764
  31.5301228  48.1843376  80.0295334  30.5674400  47.7216759  78.9570770
  49.6827927  16.2403240  25.8015232  50.4296036  16.0347595  25.2391624
  49.1281013  15.4614849  25.7572670  74.7872238   0.4511298  15.9982996
  75.0554657   0.3697801  16.9135380  74.5053635   1.3617485  15.9113541
  71.2126083  63.0746231  61.4404869  71.8513031  63.6017189  61.9205589
  70.3633881  63.4305458  61.7019730  27.6028099  62.1451836  10.1961527
  26.7882710  61.9797325  10.6709003  28.0190907  62.8606606  10.6768150
  20.3540516  50.4398232  85.4217834  19.8474178  51.1689949  85.7793579
  21.2517338  50.6088486  85.7078476  23.4250927  29.8872871  16.2297096
  23.5541611  29.4358521  15.3955765  23.8243790  29.3087826  16.8794289
  22.8306217   9.2526255  74.0469208  23.3050117   8.4240761  74.1154175
  22.4008350   9.3534603  74.8962402  66.5652390  52.2270622  -0.1828705
  66.4537125  52.5964890   0.6930960  67.4650345  51.9007034  -0.1923964
  77.2378998  37.7009354  85.3575134  77.6445770  37.6111717  86.2193680
  76.8970566  38.5953140  85.3454895  32.3839798  66.3629303  69.4554443
  32.6642990  66.9932709  70.1190033  32.0825882  65.6053543  69.9569168
  56.3045540  20.8770695  27.6860733  56.5549927  21.7343330  27.3416729
  56.7513161  20.2504501  27.1168804   4.2649283  17.7773533  85.2469101
   3.9443336  18.6725750  85.1372375   5.1200476  17.8787022  85.6649170
  59.4356232   0.4432248  36.5020561  59.8569489   1.3008027  36.4447861
  58.8424149   0.4171961  35.7512856  65.6273575  70.4644547  71.2276306
  66.4716949  70.6001434  71.6576462  65.8453293  70.3498535  70.3026505
  58.8963051  32.8933640  24.0613632  58.0220184  32.7445068  24.4214954
  58.7409439  33.1406631  23.1498051  33.0185051  55.1844406  23.5504799
  33.6041145  54.4401741  23.4113388  32.6274529  55.3453293  22.6917439
  71.7897491   2.8349395   9.9025974  71.9189301   3.0006177   8.9687376
  71.0869370   2.1859453   9.9357357  56.2179642  43.1472359  51.0953484
  56.3896713  43.9853859  50.6660995  56.7625961  42.5191422  50.6208954
   5.4027929  63.7857742  39.2507172   4.9026375  63.1202049  38.7783890
   6.0516334  64.0922241  38.6172142  73.4020844   6.1217613  18.6046753
  72.4986420   5.8577962  18.4304771  73.6383057   6.6737752  17.8592129
  76.7132797  56.5583038  29.9387493  77.1541748  55.7377815  30.1591759
  76.0250854  56.3028870  29.3244362  46.3199539  69.2531357  12.8402786
  47.0470924  68.6381912  12.7435884  46.1894188  69.3229065  13.7859659
  37.0225983  60.4858932  72.7740479  36.5573883  60.0928612  73.5125198
  36.3607483  60.5610123  72.0866318   2.1815479  13.4195166  56.8633995
   2.5865171  12.7031784  56.3744316   2.6390269  14.2042532  56.5615196
  20.8749733  -0.0468596  64.8833618  21.6636391   0.0762067  64.3550720
  21.1413689   0.1930127  65.7709045   2.9390574  70.0319290  43.7554283
   3.8161483  70.0506058  44.1383057   2.9262578  69.2353668  43.2248116
  42.2281227  53.8357010  57.9137230  42.4265327  53.5648994  57.0173225
  41.8190193  53.0669899  58.3111572  47.5442123  63.8452911  51.9446411
  46.8573418  64.0896378  52.5649147  47.2840576  62.9803810  51.6276550
  67.9845657  27.1183186  85.1171341  68.0718613  26.3045006  85.6134262
  67.7723923  27.7792187  85.7762451  17.8015118   1.3293496  87.2156601
  18.4135704   1.9443442  86.8114319  17.7805061   0.5834314  86.6161652
   8.3864050  35.5847626  85.6238022   8.9200602  34.9979286  85.0880127
   7.7914805  35.0027466  86.0966110   0.7820881  10.5189161  33.1507225
   0.2327006  10.6154242  33.9286003   1.3735423  11.2709351  33.1804199
  75.3504944   3.6772482  74.7642136  74.7309570   3.3247349  74.1253510
  75.3043823   3.0701191  75.5027924  64.8691406  36.0346146  85.0946808
  65.2796249  35.2017021  85.3270340  64.0423965  35.7869339  84.6807022
  35.9688873   0.6116334  41.6315727  35.3153038   0.6218017  42.3308296
  36.2586632   1.5212092  41.5613327  78.0549622   3.1157317   3.2079310
  77.7150116   3.6683593   3.9116814  78.6903610   2.5436580   3.6383235
  28.1686096  69.9984665  85.3556671  29.0629921  70.3381424  85.3251114
  27.9461975  69.8268280  84.4406281  40.9026489  30.1369705   9.5472383
  40.4503784  29.3065300   9.6957207  40.4906006  30.4970284   8.7618694
  59.3469276  52.7285919   7.7952552  58.5109520  53.0108719   7.4241796
  59.2454720  52.8559227   8.7385073  81.4821091  59.8937111  83.4360733
  81.7677078  60.8067513  83.4040375  81.0017242  59.8218155  84.2608643
  47.0498657  21.7164326  81.5275879  47.7191696  21.2429390  81.0335541
  46.4900284  22.1084900  80.8574295  43.4817848  22.1823807  23.0818882
  44.0144539  22.4353008  22.3278809  43.9384079  22.5581436  23.8345699
  61.7605476  42.7742424  59.6863365  61.6136284  41.8283882  59.6837692
  61.8112030  43.0112686  58.7603340  21.1901951   8.7712393  56.9204483
  21.6249771   8.2079277  56.2802353  20.3858719   8.3030510  57.1442680
  23.0692558   8.1965227  17.9102821  22.8622723   8.0657930  18.8356457
  23.4491615   9.0742464  17.8715057  74.2476578  22.8288097  45.1979675
  74.6306839  23.4694862  45.7971802  74.9733124  22.5672398  44.6311836
  43.1673927  11.7461576  26.9093513  42.9813309  10.9066544  27.3298817
  43.8329315  12.1505423  27.4659138  61.7189751  66.6387024  26.8792648
  61.9278221  66.2503967  26.0296574  62.2936172  66.1865768  27.4970016
  73.6227798  64.4566193  25.2423687  74.4342041  64.9632416  25.2082977
  72.9953690  64.9750977  24.7386169  54.5006371  47.9784088  29.2958050
  54.5494194  47.0479050  29.0766754  55.0898972  48.0796547  30.0433025
   2.8255665  37.5499649  75.7491455   1.9138688  37.3909798  75.5046768
   3.0152273  36.8856468  76.4116669  78.0465775  43.9995232  46.3164520
  77.2154846  44.1456184  46.7683105  77.9129257  43.1888428  45.8253670
  57.9356232  20.8505745  44.4083633  57.9986839  20.0110397  43.9529114
  58.8275261  21.1978092  44.3951607  31.8041382  35.1018219  34.9326591
  31.4014568  35.6091423  35.6374283  31.5284328  35.5454178  34.1305122
  76.7647781   3.1332986  41.2827644  77.3374786   3.3302538  40.5415154
  75.9663391   3.6313076  41.1074905  65.4093857  58.0724258  21.2535858
  65.9308929  58.6765480  21.7820778  64.9854202  58.6297913  20.6010303
  18.8622360  41.9177780  31.5171661  18.3673954  41.6849365  32.3027534
  19.0830097  41.0775146  31.1153545  36.9415131  51.4759445  49.8257179
  36.9835243  50.5790138  50.1573563  37.3988342  51.4423027  48.9855042
  17.1758251  67.8976822  71.2015305  16.2783089  68.0183716  71.5115814
  17.1233902  68.0372009  70.2560043  81.8283310  44.9808922  12.9740515
  81.7036057  45.9265900  13.0536385  82.2061234  44.7176704  13.8132286
  67.4143295  61.5819778  19.8382244  67.7045288  62.4449120  19.5426559
  66.9402847  61.2193947  19.0898647  33.8535538  39.1770515  20.5788403
  33.5438347  39.3432350  19.6885090  34.8030128  39.2866859  20.5265141
  44.8032188   3.7198660  23.0614262  44.3725357   4.2858815  23.7020283
  44.5079918   4.0504045  22.2130051   4.8060060  23.9438057   6.2948942
   3.9581711  24.3618336   6.4454260   4.5884013  23.0815258   5.9408426
  55.4886475   5.5400367  65.0994644  56.0905914   6.2841253  65.0843735
  55.9853401   4.8386674  65.5209045  66.3367538  42.4855118  37.2951965
  66.9429092  41.8802032  36.8680992  65.8128662  42.8448410  36.5791969
  63.7869301  30.2430115  63.2600670  63.3893280  30.7538128  63.9652100
  63.0443230  29.9246597  62.7468262  16.0297489  37.9783440  23.6080074
  15.1092958  37.8239403  23.8205109  16.3476734  38.5403748  24.3146076
  72.9392395  22.9175720   7.8444266  72.9305954  23.0841370   8.7869835
  73.5622101  22.1993008   7.7338390  80.1279449  50.1554642  36.4755898
  79.2391586  50.4314651  36.6994438  80.1604233  49.2307129  36.7205696
  54.2207870   5.2068949  34.2423325  54.7870064   5.6832218  34.8495712
  54.5576744   5.4310083  33.3748550  29.1199303   5.3155923  48.9138641
  29.2383232   5.8514900  49.6981010  29.9722061   5.3364120  48.4786377
  64.6288300  18.0442028  85.7726593  64.1057892  17.3403530  85.3889160
  64.1151123  18.8366776  85.6167450  60.9817009   7.4800687  16.9921169
  60.5700645   6.6867232  17.3347397  61.6541901   7.1603594  16.3906364
  47.1148682  58.0659103  63.5795250  47.2834930  57.2676544  64.0801086
  47.9623718  58.5093689  63.5432167  52.4359550  61.6399994  51.9200096
  52.4603119  60.7094421  51.6970749  51.5359039  61.9073982  51.7338982
  14.6426916  30.6574402  24.1747723  14.3331385  31.5622673  24.2159672
  14.4253550  30.2906933  25.0317974  70.9169083  50.4174919  13.2533607
  70.4536743  49.6416321  13.5690994  71.3571243  50.7656860  14.0287323
  52.1170540  62.4313622  75.8323517  52.0843620  61.4889030  75.6682434
  52.8344269  62.5410500  76.4565125  72.0987091  15.4003925  65.5218506
  72.8889160  15.8338852  65.1995316  71.4245605  16.0793209  65.4934692
  84.0306778  17.7063999  37.6501198  84.2323914  16.8160076  37.3624649
  84.7477798  18.2379818  37.3045349  49.0351410  50.1489754  49.7423096
  49.0116806  49.8308182  48.8398361  49.9109650  50.5220985  49.8420372
  51.2954979  40.3240204  72.3741379  51.1208420  41.2621765  72.4489059
  51.7091484  40.0904236  73.2051315  15.4203396   2.8721702  37.1964989
  14.5746565   3.1158216  37.5729103  15.1987543   2.3163304  36.4493904
  61.9485092  41.5279961  41.7902832  61.3124542  40.8155060  41.7268600
  61.6833572  42.1470299  41.1100464  20.4110394  53.6796608   2.9073329
  20.8924294  52.8556633   2.8329823  19.5451012  53.4843063   2.5492520
  71.5752869  26.3453846  -0.2590405  71.1077118  26.5239391   0.5568752
  71.7549057  25.4055939  -0.2314268  65.7314606  68.5026169  51.5518608
  66.2943726  69.1319885  52.0027046  65.8249207  67.6940002  52.0554771
  54.4413185  57.0237007   4.3390517  54.0679550  56.7735023   5.1841745
  55.3680878  57.1773338   4.5226946  74.3429108  46.8375587  84.5080490
  74.9684219  46.5368538  83.8488541  74.8702011  47.3459892  85.1242447
  49.3640366  46.1978531  60.2220306  50.2422409  45.9605408  60.5198097
  48.8866119  46.4051552  61.0253487   5.7695837   9.1738539  73.5439835
   6.0262833   8.5144100  72.8994141   6.4700174   9.8254662  73.5119629
  83.4385757  32.1958389  40.9834328  83.8402939  32.6504402  40.2430344
  83.3034439  31.3013649  40.6705589  41.2791023   0.0040302  10.7985392
  42.0765533   0.3919949  11.1588001  40.5776443   0.3328981  11.3607092
  80.5242081  14.8717251  42.1176300  79.5905075  14.6848526  42.0201187
  80.5914688  15.3235703  42.9587860   8.3554745  43.0862579  12.3699245
   7.4419489  43.3236084  12.2106552   8.8178024  43.3707352  11.5815363
  66.3573608   3.5630226  32.1171646  66.7306976   3.8176215  32.9609871
  66.1812057   4.3925042  31.6731377  64.8698502  14.0139380  48.4758644
  64.1269531  13.7954435  47.9131927  64.6620865  13.6054716  49.3162346
  14.3706913  53.1913185  76.4142685  14.9578381  52.6658783  76.9577789
  13.8251677  53.6664276  77.0410919  18.4885597  70.4020615  12.5149088
  18.4289665  69.8220215  11.7558050  17.5790539  70.6072617  12.7315273
  45.5737000  65.2394409  86.0286102  46.3943863  65.0072632  86.4631195
  45.3917351  66.1323013  86.3217468   3.0434031  45.9352608  33.9321365
   3.0449777  46.5995827  34.6212730   3.9685462  45.8020859  33.7257233
   3.0535357  60.0488434   9.1559238   2.9390748  59.2436409   8.6511688
   3.9359345  60.3467178   8.9348478  33.6543350  23.4663391  19.6402969
  33.9100647  24.1790752  20.2258244  34.4785385  23.1590958  19.2627754
  58.5597458  30.3207188  52.9018364  58.6581650  30.3301239  53.8539162
  57.8300018  29.7221527  52.7423859  46.8121452  11.4594650  21.6269245
  46.8768616  10.5281277  21.4156094  47.5867195  11.8510380  21.2232704
   4.5135260  23.7548561  76.6424103   4.9951148  23.1761303  76.0513229
   4.9207516  23.6164837  77.4975433  64.7174072  58.7915154  61.4281883
  65.3962021  58.3928604  61.9727516  64.4774551  59.5930862  61.8930969
   5.5442877  68.8065720  46.8249702   6.4312224  69.1250687  46.6572151
   5.0872178  69.5582657  47.2021713  41.0803757  68.9150848  42.7432060
  41.8200417  68.3418427  42.9444885  40.4738731  68.7886505  43.4728661
  16.9219799   2.9423759  34.6538544  17.0188255   2.7020738  35.5753250
  17.3633251   3.7884793  34.5793190  82.1402359   7.7778745   3.0489979
  81.4860535   7.3410482   3.5943971  82.5133896   8.4523869   3.6164653
   8.3820572  46.7977791  19.5199337   8.8745184  47.2323608  20.2162476
   8.1071968  47.5089569  18.9412193   6.6986766   2.6320317  44.4100113
   6.5047355   3.1749659  43.6459160   7.5760403   2.9032161  44.6800537
  85.3827362  10.9233656  15.4051647  85.2301865  10.1330376  15.9231815
  85.5996017  11.5952415  16.0515251  51.1290359  67.7276001   1.0583946
  50.1800728  67.8526001   1.0497398  51.2451935  66.7808914   1.1389384
  13.4248514  57.3781433  22.3343277  14.0923138  56.9091072  22.8350563
  13.9198685  57.8803062  21.6870060  55.2322578  35.3348160  73.5634079
  55.0448837  36.0278053  74.1965637  55.2328758  34.5302963  74.0820389
  46.4612503  25.5775909  20.3913746  45.8044624  25.6532955  19.6991825
  46.4222984  26.4161739  20.8512611  22.7850399  24.9351807   5.1495938
  22.5344143  24.0432796   5.3902850  22.0582638  25.2516632   4.6130619
  17.8700314  53.6862221  76.1341324  17.2401199  53.2812576  76.7303238
  18.6888065  53.2177200  76.2964478  40.0723419  47.8844490  47.8800392
  39.5705261  48.6872368  47.7388191  39.6192703  47.4419098  48.5977554
  80.0518723  48.7025452  22.5268993  79.5336380  49.5065804  22.4923496
  80.3293915  48.5574112  21.6223812  75.3345261  46.7091866  87.5872803
  74.5486145  47.0214081  87.1388397  75.1450424  45.7938194  87.7932739
  84.1731873  16.7529354  21.0807838  84.4066772  16.1594315  21.7945557
  83.2410812  16.5938034  20.9321804  84.7868805  19.8163319  18.9284039
  84.1747360  19.4573631  18.2860260  84.2471008  19.9993382  19.6974125
  73.7880859  25.0313148  79.1962738  74.1103516  25.7258835  79.7706909
  74.3594894  24.2853336  79.3786011  75.4579163  56.5963058  49.6160278
  75.3197021  57.3602142  49.0560532  74.8314896  55.9475975  49.2950974
  20.1184807  52.9930038  47.2835541  20.7686768  52.8422203  47.9696579
  19.5587692  53.6867867  47.6322899  48.2326851  66.6779251  61.4127083
  48.0387535  65.8434296  61.8395958  47.9652710  66.5492706  60.5026741
  72.1033783  33.1770592  60.3308296  71.8508453  33.3988075  61.2270927
  72.0789948  34.0111198  59.8618088  57.3727798  20.8409138  17.8552761
  57.5570984  20.9617195  18.7867603  57.5550728  19.9153309  17.6931210
  84.9689331  25.1706409  84.5546494  85.5199051  24.4860287  84.9340744
  84.0900650  24.9798679  84.8824310   5.7322340  51.6029205  12.9764357
   6.4074364  52.1025543  13.4354591   6.1675844  50.7892189  12.7222900
   6.7427039  53.4201546  31.9561615   7.1801515  53.6350479  31.1323338
   6.2011714  52.6587334  31.7482853  72.1090927   5.2626653  47.5119438
  72.9794693   4.8682718  47.5679588  71.9651031   5.6488924  48.3758469
  63.7083473  41.5550270  26.6539383  63.9646149  42.4763718  26.6129227
  64.5125961  41.0738373  26.4593372  74.5666580  65.5055923  46.4017067
  74.3854599  65.9688873  47.2194824  74.2463531  66.0932999  45.7174339
  33.9174805  40.0882454  76.9797363  34.7484703  40.1172104  77.4539185
  33.8005638  40.9780273  76.6467896  58.4128990  28.5919018  13.1164122
  58.1534882  28.5475235  14.0367212  59.3031425  28.9431095  13.1351700
  69.1062698  66.9549713  27.3062954  69.0001526  67.3575821  26.4443932
  69.8278122  67.4380417  27.7091045  80.2030563  45.5393562  49.0817070
  80.8530731  46.2347946  48.9813004  80.5024643  44.8450928  48.4946899
  70.7823029   8.4414129  69.4262085  70.4310837   7.7349548  68.8841858
  70.2623215   9.2084475  69.1863861  37.1777687  55.9917412  64.6277008
  38.0880318  55.7308960  64.7677536  37.1268425  56.8810577  64.9780655
  18.8176842  60.8747444  32.0705681  18.1437969  60.2472916  32.3321228
  18.9282475  60.7296829  31.1309052  67.8992844  42.0463486  43.2902908
  67.1947708  42.6771507  43.4385223  68.0851135  42.1105843  42.3535004
  69.5446320  69.6216507  26.2579803  68.7192535  69.9177704  25.8741894
  70.0018311  70.4285965  26.4946976   7.2069750   3.7231295  28.6555233
   6.9367714   4.3499365  27.9844532   6.8455205   2.8869336  28.3616543
  57.8629761  13.2977848  73.1365967  56.9414101  13.0566235  73.2303543
  58.3387909  12.6127710  73.6062698   1.9655097  70.1158829  74.9711456
   2.9080307  70.2326584  74.8517761   1.8014750  69.2097092  74.7100449
  38.5688667  43.4757080  54.0524597  38.2059402  44.3453484  53.8844032
  37.8941994  43.0294189  54.5642052  77.2495270  13.7439432  69.9984283
  76.6013718  13.6574554  70.6974564  77.9503860  14.2687330  70.3852386
  14.2453489  50.3062630  28.5838795  13.8542490  49.7274780  29.2383118
  14.4238243  51.1182251  29.0583229  37.2046013  71.4356995  22.2934589
  37.3911629  71.2592239  21.3713512  37.9508896  71.9544296  22.5937996
  61.5364113  21.9971123   9.8701057  62.2877197  22.5829372   9.7774906
  61.6537056  21.5911160  10.7289658  31.4780750   4.8216743  68.0355530
  30.5711555   4.9666295  68.3052139  31.9322281   4.5799103  68.8427200
  55.7613182  68.3812485  13.8824406  55.1853943  68.0514297  14.5721989
  55.2736893  68.2332764  13.0721588  78.3173904   7.0791845  81.8509750
  78.0469284   7.6296792  81.1161041  78.4054718   7.6865668  82.5855255
  11.7613811  51.7700310  28.2025108  12.0211143  50.8933144  28.4855995
  11.5818586  52.2410851  29.0162106  82.2858810  35.5132446  17.9892139
  82.8873596  35.6202431  17.2523251  81.8735657  34.6623421  17.8402348
  83.8750229  61.1386414  55.8081436  84.0016327  61.3814812  56.7253304
  84.6553421  61.4690475  55.3629875  40.7738686   2.0319664   4.4477777
  41.6291351   1.9619180   4.8718538  40.7307434   2.9386237   4.1438951
   4.4727230  37.5388985  55.1574135   3.5389395  37.3290939  55.1412659
   4.8176422  37.0395241  55.8976097   6.6824217  14.8151846  87.5872192
   7.2481947  14.5207882  88.3009872   5.8555260  14.3551960  87.7317429
  76.6570663  32.0686874  58.8516579  76.9053116  32.3215446  59.7408524
  77.0414658  31.2000618  58.7335205  74.9514313  60.6886215  49.4162788
  74.0699768  60.6418190  49.0460358  75.1734695  61.6193161  49.3892288
  82.1195297  44.6141968  26.4117260  82.1656799  43.8120842  25.8914223
  81.3127747  44.5245476  26.9190044  26.9829044  35.3607979  86.8581390
  26.1958828  35.0050278  87.2707596  27.4019432  34.6036797  86.4489822
  31.9858589  14.2526779   5.5410943  32.1627731  13.3439236   5.2979922
  32.6009369  14.7650757   5.0163455  77.7940216  27.2722168  78.3675537
  78.6710510  27.5102558  78.6681976  77.6436386  27.8284798  77.6032333
  27.2048130   9.2241278  19.0656033  27.3164177   9.1273060  18.1198750
  28.0005474   9.6696939  19.3563080  69.3885040  14.4720154  71.3426437
  68.8489151  14.1529036  72.0659943  69.7195435  13.6782322  70.9224548
  63.5631714  69.9823303  86.5734253  64.3605576  70.5059433  86.6524963
  62.9869080  70.5061035  86.0168228  18.7766685  50.6201439  14.6150045
  18.1528645  51.1390114  15.1228189  19.4933872  50.4435501  15.2243996
  45.0270309  53.4240265  45.1074409  44.3927574  53.8756523  45.6641846
  45.8784409  53.6516991  45.4809418  84.2706299  66.1820984  28.7369900
  84.5612335  67.0389557  28.4246273  84.6046677  66.1276474  29.6323605
  22.7269001  48.2492142   6.5096755  21.8564682  48.6183624   6.3603053
  23.3186970  48.8301697   6.0316615  41.8066788  47.1978035  40.8155670
  41.1757126  46.5784302  40.4488373  41.8773422  47.8870277  40.1551056
   8.3571491  20.0233955  68.3233719   8.4068727  19.1284924  67.9873581
   7.8782110  19.9432468  69.1482544  80.7108078   2.0304625   1.6700968
  80.9401016   1.1808941   1.2934151  79.7912521   2.1560025   1.4358271
  -0.1838322   6.7730570  13.0645857   0.5619220   7.0435934  13.6002092
   0.1829442   6.1433697  12.4439402  75.5893478  61.9236412  66.4027634
  75.8746033  61.0113716  66.3514938  75.1617966  62.0884895  65.5623703
  79.4328842  67.9621353  71.0554657  78.7773819  68.0549316  70.3641281
  79.4195786  68.8030396  71.5125580  68.6847382   5.1682596  24.7138004
  69.4755478   5.3026195  25.2360954  68.2302551   6.0100532  24.7464352
  81.3561554  56.4984055  11.3748674  81.1763306  56.9880066  12.1774778
  81.9339523  57.0704422  10.8697319  18.1588650  45.9335022  21.3980675
  17.6503372  45.1247139  21.4571838  18.9357624  45.6916389  20.8939209
  16.7193508   2.4955878  66.0553818  16.2022457   1.7578104  66.3786774
  17.5789547   2.3814526  66.4607086  77.2893753  25.2470188  42.7849770
  76.6226807  25.8883724  43.0307693  77.2039719  25.1647873  41.8351479
  71.8540573  47.5652885  27.8944111  71.5300980  46.7003937  27.6429310
  72.3300552  47.4146156  28.7110806  44.7659149  57.3795738  45.0113678
  44.1279373  57.9548836  45.4335480  44.2865105  56.9834175  44.2837219
   3.5926054  38.4108849  25.4777851   3.0901620  39.1133499  25.8904896
   3.4800143  37.6608810  26.0617828  66.4216003  63.3708153  68.0171356
  66.7407990  64.0032425  68.6608582  67.1764374  62.8103447  67.8373260
  82.4592972  19.0340710  12.9734440  82.4270248  19.0134373  12.0170107
  82.4957428  19.9653130  13.1918278  80.5004654  43.7321053  10.7219410
  81.1415863  43.7669525  11.4318562  79.7014465  44.0965614  11.1027002
   1.7254690  29.9524689  55.3044205   0.8113083  29.9003925  55.5834007
   2.2288544  29.8310032  56.1094551   0.7868450  62.1492691  40.3463898
   0.0896613  62.6539383  40.7652893   0.5588877  61.2359657  40.5200043
  84.7181549  58.3249512  38.1976318  85.1297989  57.4977264  38.4475975
  83.8501282  58.0745583  37.8812904  28.0983295  10.0222712  88.5549393
  27.4758949  10.5968142  89.0007095  28.1716633  10.3869619  87.6729813
   8.0386419  66.0168686  52.0946541   7.4633236  66.2919006  51.3807945
   8.8736153  65.8235626  51.6684074  76.9555359  23.3097725  77.8436508
  76.2454376  23.3482990  77.2029419  76.5591049  22.9078751  78.6166687
  29.9917717  71.5162201  54.7108536  29.7489853  71.6062241  53.7893410
  29.3007641  70.9720840  55.0885506  54.0727539  45.7746887  83.1023026
  54.6245117  45.1954842  82.5766373  53.4568291  45.1868324  83.5396729
  80.2120895   7.1869450  38.6003380  79.9260483   6.4192171  38.1053581
  80.5776291   7.7753110  37.9397049  28.1196861  22.7492027   1.6569682
  27.7313633  22.3919182   2.4555824  27.4305191  22.6666012   0.9978353
  58.7153702  44.0322838   1.8133734  59.2107582  43.5058022   2.4407785
  57.9333954  43.5120049   1.6288114  12.0675030   9.7310591  20.3244305
  11.9555569  10.2446299  21.1243954  11.8842402  10.3481560  19.6160240
  41.3098717  68.5762558  21.5793686  41.3148651  69.1171112  22.3691063
  42.1521873  68.1218414  21.5949478  71.9532776  38.4857521  32.2493439
  72.3736877  37.6586533  32.0139961  72.0895004  38.5634995  33.1936035
  40.9780540  59.8343468  73.7322006  40.5858421  58.9626617  73.6815491
  41.1779442  60.0601959  72.8237534  19.9894295  13.4146471  14.5864420
  20.4897480  13.8935013  15.2472086  20.3647308  12.5341177  14.5934267
  63.9334946  44.4561501  32.6497955  63.1305542  44.6022987  32.1496353
  64.5621262  44.1327209  32.0044708  30.4928551  27.7022514  88.2697601
  29.9363232  28.3504639  88.7014160  30.0277557  26.8734264  88.3836288
  27.6216583   9.2621832  15.3539371  27.2528629   8.6940374  14.6776009
  27.7480965  10.1042118  14.9166346  47.1484947  56.4670715  66.7215195
  47.2323418  55.8841171  65.9669571  46.7343864  55.9282417  67.3956146
  58.7005424  46.8449097  70.4935303  57.8656044  47.1186142  70.8732605
  59.3457298  47.0278587  71.1765289  10.7094307  47.0824471  76.5754776
  11.1019468  47.8640709  76.1865997  10.9321012  47.1396065  77.5046616
  64.4268417  21.9714794  39.6184540  64.0745468  21.3298664  40.2352638
  64.4891129  22.7813911  40.1248093  25.6456871  19.9534664  75.5631256
  26.2842579  20.6458664  75.7335358  25.1482620  19.8806305  76.3776779
  34.5831566  57.8050995  21.4580326  34.4661293  56.9621582  21.0198689
  35.5242424  57.9725914  21.4076881   0.6187907  34.5298843  86.4348450
   0.7901746  35.3818817  86.8360443  -0.2091679  34.6467361  85.9689484
  36.9785004  10.4532185  13.6175241  37.6803207  11.0708885  13.4121981
  37.3133583   9.9477892  14.3582268  56.3925934  56.4969444  22.1783314
  55.6472321  56.5887909  21.5848389  57.0267677  55.9744949  21.6873131
  21.9906063  68.6731110   2.3225739  22.7907639  68.1999054   2.5507469
  21.9156742  69.3535156   2.9916501  17.4764023  71.3468857  65.3053207
  17.2526207  71.4675369  66.2281418  18.2722511  71.8642883  65.1822281
  28.3320160  44.4747009  49.1245270  27.7874069  44.5514603  48.3411102
  27.7696877  44.0397148  49.7654686  81.7697372  11.6989460   1.4074117
  80.9125671  11.3391066   1.1793548  81.6881027  11.9468575   2.3283398
  15.0931053  70.9950638   3.5773053  15.9782677  70.7597656   3.2991807
  14.6810188  70.1595078   3.7969933  49.1622887   8.3697119  68.4522476
  49.9088707   8.5049763  67.8686752  49.1222458   9.1679955  68.9789047
  28.8733559  71.4405670  81.3279953  28.1403332  70.8866882  81.5965576
  29.5147800  70.8296814  80.9651871  61.6949043   7.6053886  36.8145790
  62.5283966   7.8402185  36.4066849  61.8418617   7.7349472  37.7515182
   2.1271961  37.5642738   2.5521410   3.0626619  37.7631416   2.5919788
   1.7660284  38.2280540   1.9646169  49.7170105  26.8120670  60.5087471
  49.9720612  26.4060898  61.3372192  50.1187439  27.6805191  60.5339127
  67.0215302  46.2910767  71.6687698  67.4740295  46.3252335  72.5115738
  66.1855164  45.8671989  71.8627853  83.7481613  31.7348900   8.0886526
  83.4443054  32.0634422   7.2425113  83.0831146  32.0272293   8.7119379
  66.4440994  53.7820778  86.8507080  66.3470993  53.3288460  87.6882019
  65.5464401  53.9318237  86.5540314  60.4615860  32.1563644  37.7801476
  60.3777390  31.9038734  36.8606644  59.6471558  32.6193161  37.9766312
  27.0367584  27.1522884  80.1366653  26.6139965  26.8970375  79.3166962
  26.9788094  26.3725739  80.6888657  30.5215721  66.6321793  58.4476166
  31.3439388  66.6843719  58.9346695  30.5280285  65.7571030  58.0597763
  53.0229874  29.3275013   7.6716561  53.2337532  29.2586498   8.6028214
  52.1583748  28.9247169   7.5913687  20.0276718  66.5912018  24.5889301
  20.1714745  67.2849274  23.9452667  19.9242306  67.0537643  25.4205379
  63.9744987  17.7297764  67.2829132  63.3811378  17.4291019  67.9712067
  63.5386467  17.4842567  66.4668350  62.2117462  20.3754330  85.7994995
  61.4648781  20.9131031  86.0628204  62.9689064  20.8068752  86.1954803
  82.6123581  17.6125336  67.6085587  81.8167953  17.3093853  68.0460587
  82.3498611  18.4200878  67.1667557  65.0697250  41.5202637  41.8769569
  64.7309799  40.8780251  42.5006638  64.6646881  41.2812347  41.0432663
  16.2985077  68.6090469  23.4540291  15.9687195  69.1111526  22.7088032
  16.7922401  67.8904266  23.0590000  37.6369972  43.3630371   2.9882059
  38.2246094  44.1075974   2.8594599  36.8298645  43.7506371   3.3266413
   0.3597820  16.8187046  62.1786003   0.4862579  17.7615089  62.2851639
  -0.3837904  16.6113148  62.7445679  47.1809731  52.5844040  60.5438042
  47.1385689  52.5977936  59.5876389  47.6071358  51.7532349  60.7530365
  42.9513245  13.1504555  88.4687271  43.0077362  12.4345808  89.1016312
  42.3929558  13.8018932  88.8930893  84.9923477  11.5521860  54.7524376
  85.6351547  11.3084354  54.0863953  85.3627777  12.3300581  55.1694832
  58.9535599   4.6365070  69.4280548  59.3465881   5.4765320  69.1911621
  58.5259705   4.8006716  70.2685547  73.6855316  61.0305595   8.1957493
  74.5139542  60.6768417   8.5195370  73.1144638  61.0443153   8.9638138
  11.0755997   8.7679758  17.9180489  11.2886600   8.8718805  18.8454323
  10.2969093   9.3094893  17.7890644  28.9824333  10.1112185  84.2191696
  28.0610104  10.0648212  83.9641037  29.0327511  10.8720427  84.7978287
   1.3243371  16.3404293  43.1082115   1.1886643  15.6222382  43.7262917
   0.5515627  16.8955326  43.2126732  28.8825321  58.5317116  26.7906113
  29.5485992  58.3909416  26.1177292  29.3378944  58.3675919  27.6164093
  39.5394745  25.5241776  22.9495926  39.2381134  26.4032154  22.7200127
  39.5671844  25.5227566  23.9063892  14.7983522  44.7502823  29.8430405
  15.0883732  44.1393127  30.5204144  15.5526314  45.3210831  29.6964836
  25.6027794  41.4626732  28.7222099  26.2999344  41.1699638  28.1352425
  25.0111046  40.7127800  28.7840023  33.0381012   0.0423788  60.5282707
  32.7125168  -0.2592727  59.6801949  32.7325668   0.9471163  60.5940933
  21.8846512  18.9414082  18.7095680  22.8400936  18.9743633  18.7572575
  21.6732368  18.0105877  18.7810326  31.3386402  64.9448090  43.4802399
  31.8721771  64.7537766  42.7088242  30.8899879  65.7624130  43.2646599
  58.9347916  35.1962433  33.8613853  58.3611946  34.4300499  33.8741341
  58.5851097  35.7686119  34.5442848  78.5346909  17.5087128  74.6771088
  77.7388382  17.4901428  74.1455994  78.7830505  16.5888443  74.7687149
  17.6397209  26.5873699  63.8966484  18.5915146  26.6837807  63.8646202
  17.4141064  26.1619377  63.0694008   8.4265690  54.8962975  77.9442062
   9.1153107  54.8429337  78.6067963   8.8178549  55.4024734  77.2322311
  79.0158005  61.7027054  32.4997292  79.3487625  62.5989265  32.4532890
  79.0919724  61.3722153  31.6046295  80.3032303  54.5387039  72.1149139
  79.8198090  53.7131119  72.0843658  79.8564758  55.1013870  71.4824295
   4.9432817  51.6682472  60.0532913   4.9142013  52.4586639  59.5141945
   5.8398428  51.3466148  59.9586220  54.0685959  33.6609917  40.5729561
  53.7609978  33.5034065  41.4655838  53.3238182  34.0692825  40.1315536
  48.0214005  32.9011955  71.6035767  47.2780609  33.5039940  71.5858994
  48.7857361  33.4591904  71.4598312  28.5217037  50.0429611  22.5592651
  27.8230553  50.0624161  23.2132854  28.0933094  49.7359543  21.7602291
  54.6476517  43.7476425  64.6521378  53.9233742  43.1305351  64.7562180
  54.9469643  43.6161346  63.7525024  58.7128639  60.9216080  35.3923111
  59.5038109  60.7158165  35.8905945  58.2448654  61.5548210  35.9365997
  40.8663712  70.1735153  36.9905586  40.4959488  70.8607635  37.5443726
  41.3526039  70.6463165  36.3150864  79.0091248  28.9364433  17.7310371
  79.4127884  29.6962242  17.3114910  78.2608337  28.7241936  17.1731434
  76.8616791  50.6773949  30.1989498  76.0869217  50.9302864  30.7009697
  76.5980530  49.8821259  29.7360439  64.5782623   6.8848429  54.3892021
  65.3457108   6.3317099  54.2432709  63.8568878   6.2670379  54.5082283
  50.9860268  13.9338055  80.9696503  51.1998367  13.0109291  80.8324738
  50.4297638  14.1639681  80.2254562  30.6595936  68.1905670  86.2401657
  30.8921280  67.4119720  85.7342529  30.0290451  68.6545792  85.6894073
  18.9649715  49.6901550  76.5359192  18.0868683  49.3457756  76.3729248
  19.5534420  49.0189362  76.1903763  79.0123901  24.0894661  61.5777931
  79.1622009  23.4456100  60.8855209  79.8901443  24.3398132  61.8660698
  11.8672581  52.6391716  80.2567902  11.1360950  52.8677521  80.8307114
  11.8769302  51.6820412  80.2508545  65.5380707  57.6361389  68.0353699
  65.8126144  57.6851311  68.9510422  64.9147949  58.3554153  67.9333878
  75.8528824  41.3908501  28.6964092  76.2339554  42.0578766  29.2674484
  76.2193680  41.5776863  27.8321114  67.0810699  54.0815086  35.6373596
  67.8763428  54.0880661  35.1046944  67.3092651  53.5527763  36.4019508
  73.6344070  61.0784454  84.3201294  73.2114792  60.7644920  85.1193771
  74.4067383  61.5525932  84.6282272  20.6712151  45.8955574   2.3273194
  20.8633423  45.6960335   3.2435670  19.7817936  46.2490883   2.3405893
  54.0625076  68.4956512  62.6010857  54.6058617  67.7109833  62.6738548
  53.6952438  68.4516373  61.7182426  77.9348679  22.7565022  35.5861702
  78.6758347  23.1096897  35.0937767  77.8954544  21.8347073  35.3312759
  32.4496689   4.9889984  50.5259666  32.2656631   4.0633373  50.3661995
  32.1823349   5.4290819  49.7190628  67.3297272  19.4017200  86.5887833
  67.3223190  20.0642853  85.8980026  66.8718109  18.6527576  86.2072144
  38.4338379  40.6325798  23.3705177  38.7060852  39.7153931  23.3408298
  37.4793968  40.6013565  23.3049812  21.2636013  40.6802559  19.6490078
  20.9661732  40.2235947  18.8620968  20.9222736  40.1560783  20.3735542
  53.7567024  53.5003700  30.2539959  54.2448692  54.0526428  29.6433220
  53.6105385  52.6846886  29.7749023  83.7142792  11.6468935  20.0867481
  83.1719894  11.6887846  20.8744049  84.0738754  12.5293589  19.9963226
  69.3724060  52.4126244  84.1283188  68.8643417  53.2173767  84.0259781
  70.1056671  52.6621933  84.6907043  85.7948074   7.0927067  36.6284790
  85.4461746   6.9655957  35.7461357  85.1735687   6.6401272  37.1989746
  25.3811951  49.5119514  30.1132450  24.6764660  50.1534462  30.2030945
  25.9054852  49.6193810  30.9068508  52.5141563  40.6176147  57.5117302
  53.0086021  39.7980080  57.5114403  53.1373329  41.2733917  57.1989441
  41.0778160  51.0996780  87.7121735  41.2595673  51.1218109  88.6517029
  40.9456024  52.0168114  87.4721298  60.5747223  66.4181290  70.4045715
  60.6291122  67.3379669  70.6637650  61.0990067  65.9539871  71.0571976
  43.4432487  36.4199944  73.5792694  43.2474442  37.3484154  73.4530716
  42.6525497  35.9665718  73.2869797   0.9772191  60.0491676  21.9719963
   0.7487503  59.3426361  22.5760250   0.2286992  60.6448097  22.0060425
   9.7163515  54.6867943  15.2651272  10.5422335  55.1479149  15.1184378
   9.1925983  55.2939644  15.7878695  43.5076065  46.5754929  29.6177902
  42.7332077  47.0944862  29.8350086  43.2076149  45.6675949  29.6620579
  74.8441391  32.5818901  33.7307472  74.7241440  32.0375175  32.9526138
  74.0185242  33.0580330  33.8195877  79.0384445   2.0701644  63.3232956
  78.9908524   1.6715453  62.4543495  79.9544373   2.3317249  63.4169731
  56.6668205  12.0180826  76.5332489  55.9207764  12.6158056  76.4845200
  56.8430099  11.9308062  77.4700394  63.3848305  52.4668770   3.1706100
  62.9888535  53.3362198   3.1099570  62.6822777  51.8658600   2.9227676
  49.9616661  46.6413651  77.5060959  50.7752953  46.9710197  77.1245651
  50.0517235  46.8092918  78.4441376  15.3075533  16.4659290  75.0066757
  15.6429720  16.9955292  75.7300415  15.5464058  15.5679369  75.2364349
   7.4159417  55.7853050  45.5104218   8.2406521  56.2535057  45.3805275
   6.7694807  56.3004456  45.0277710  62.1306953  37.2308235  25.8171387
  62.1559410  36.8866501  26.7099667  62.2274704  38.1772766  25.9224682
  78.6355896  54.8062592  34.3851204  77.6838150  54.7223091  34.4426079
  78.8267822  54.7294350  33.4503632  68.1466064   2.4671991  10.8486595
  68.6839447   2.4476476  11.6405687  68.1129379   3.3922133  10.6048422
  84.6452026  25.3376293  40.5840912  84.4616776  26.0620956  41.1821671
  84.7570953  25.7547340  39.7298470  78.7178574  39.2116661  18.8618355
  78.5128021  39.4654846  17.9619694  79.0915527  38.3338814  18.7838612
  37.0697708  65.8308334  65.3700027  37.5434875  66.0688477  64.5730286
  36.3487282  65.2802887  65.0646667  31.3611755  59.5533524   9.6817408
  31.2088127  60.2723427  10.2949858  32.0885353  59.8535118   9.1366882
  67.5736771  55.8274155  69.3258743  67.2735519  54.9744034  69.0119858
  66.8965683  56.1078377  69.9416122  35.3946457  70.6123123  79.2929306
  35.0332489  70.0655136  78.5953293  35.6712074  71.4143372  78.8496399
   7.8769917  13.7488632  69.3075027   8.3273191  14.5921402  69.2593307
   8.4086866  13.1623211  68.7694550  27.9426861  54.5929527  32.6296692
  27.6873779  53.6730957  32.6997910  27.6382580  54.9889297  33.4462242
  38.0218620  47.2615662  85.5109711  38.6915359  47.6482391  86.0751114
  37.4755898  46.7473869  86.1054840  79.2812958   9.5742044   3.0766180
  79.5867538  10.1434860   3.7829056  79.3205566  10.1225672   2.2930441
   5.8306994   2.4008968  49.0559044   5.4428701   2.4651158  48.1831512
   6.5778160   2.9987326  49.0305786  38.6507950  11.4468784  82.9566803
  39.1557655  11.9028511  82.2833786  39.1374702  11.6008005  83.7664261
  35.4730225  31.0597744   3.0627093  36.3126564  30.6190166   3.1930182
  35.5458374  31.8684921   3.5695670   8.1618805  42.4567108  34.4857521
   7.2433400  42.2071877  34.5870171   8.1870689  42.9500580  33.6658707
  71.9642715  60.5553360  86.5165558  72.6432495  61.0969009  86.9189682
  71.3868713  60.3169899  87.2418289  85.6633759  70.3370819  46.5878677
  85.9351044  70.0238342  45.7251549  84.7162094  70.4533463  46.5130653
   4.5997148  35.6746979  33.8484955   5.0456333  36.2487793  33.2257462
   3.9006588  36.2160912  34.2151642   4.9983196  40.2784538  64.3972931
   5.9233594  40.3146324  64.6406555   4.7607989  41.1891327  64.2227020
  37.1518860   1.7807317  37.7237396  36.8587952   2.3543105  38.4317894
  37.5497398   2.3725426  37.0852203  52.6466026   0.2619250  60.7857056
  52.2824249   1.0149072  61.2511368  53.5933762   0.4008487  60.8091812
  48.5772362  46.0168533  84.4893417  48.5978355  45.5921593  83.6317673
  48.1523285  46.8594856  84.3291779  13.4846268  43.8085709  88.5290985
  12.7237558  43.2509041  88.6913223  13.8711100  43.4588280  87.7262650
  71.7226486  36.8993607  67.7036438  71.4454193  36.9318199  66.7880402
  72.4781189  37.4856148  67.7460785  63.7732048  33.1901207   1.7884828
  64.5053177  33.2626648   1.1761249  63.3839874  32.3369675   1.5964701
  70.0053482  28.2936134  48.8044205  70.3698196  27.4167919  48.9251633
  70.1614075  28.4928341  47.8812828  32.8584671  35.2822189  65.4047394
  33.6940727  35.2343178  65.8691711  33.0395737  35.8313179  64.6418991
  49.8471642  68.9819946  35.3817825  49.9408150  68.0368500  35.2627716
  49.5807266  69.3064804  34.5215797  16.1130543  23.3958912  18.5818882
  15.9850883  24.1541882  18.0119400  16.0214119  23.7445583  19.4686031
   3.2203457   5.0035510   3.0962586   3.4155433   4.2571850   3.6628866
   2.6167877   5.5417123   3.6084423  34.2315063  20.2665253  89.1231918
  34.6330032  20.5377960  88.2976913  34.8316269  20.5850353  89.7974548
  57.8000984  17.6405716  86.3804703  58.3639870  18.3973045  86.5405121
  57.1849022  17.9378166  85.7100830  18.2819004  54.4696045  88.0522690
  17.9141788  55.2518883  87.6411133  17.5606060  54.1082420  88.5674210
  22.0605659   3.5929048  24.0033646  21.2464752   3.8692224  23.5824890
  21.8697777   2.7186067  24.3431206  37.9200630  33.0454826  12.7197027
  37.0475159  33.1668282  12.3453093  37.8396263  33.3580856  13.6208344
  57.5185623  40.6935234  24.8995476  56.9195557  40.6101036  25.6414795
  57.6831551  39.7923241  24.6220970  74.2228775   8.0874252  48.1912308
  73.7239075   7.7688742  48.9434204  73.9344635   8.9931784  48.0787048
  33.3504791  71.7556992  69.0447159  32.6896439  71.0822449  69.2059326
  33.9149666  71.3804321  68.3688812  67.2415695  16.8414707  52.9218330
  67.0721359  17.7827950  52.8840332  67.9920273  16.7097378  52.3424454
  25.7621994  14.2795200  83.2022400  24.9373512  14.5955505  83.5709991
  25.4984303  13.6901302  82.4956436  71.9659576  67.1314545   1.8681177
  72.5170059  66.7886047   2.5717034  71.5344162  67.8946762   2.2521670
  34.7864609  40.4798775  16.7220306  35.1711388  41.2950935  17.0440216
  34.2325783  40.1759872  17.4411278  70.0330200  68.8311691  77.5093079
  69.6800308  69.7108154  77.3756866  69.2711639  68.3000031  77.7409592
  34.9927788  37.5922508  13.8741083  35.8009949  37.3365822  14.3186874
  35.0954056  38.5298615  13.7110624  71.6381683  63.6295891  70.0507050
  71.4585724  63.6207047  70.9908676  72.5310364  63.2931900  69.9742355
  15.8820829  44.0334053  21.9327888  15.7269354  44.7594337  22.5369759
  15.7374630  43.2478180  22.4602089   6.0534658  71.3205566  71.5532913
   6.2714033  70.4128418  71.7649078   5.2410712  71.2608871  71.0506134
  63.7317390  15.1446619  14.1872931  64.1905518  15.8118200  13.6767788
  63.3486748  15.6257524  14.9208078   1.9974831  49.0385132   1.9291708
   2.3660834  49.8805580   2.1962454   1.3305157  48.8489151   2.5890479
  54.3470230  30.5366840  19.0145626  54.7638664  30.1414146  19.7802219
  53.4886627  30.1159458  18.9652405  72.0238724  55.7249756   5.7694569
  71.5856476  56.4643707   6.1907520  72.8990860  56.0520897   5.5615478
   9.9419432  70.6845169  64.7248611   9.3918724  71.0543671  65.4154129
   9.4386768  70.8163376  63.9213791  41.2619934  32.0468903  26.8865681
  41.0620918  32.3473244  27.7731419  42.1274185  31.6444530  26.9594841
   7.3549018  47.6506500  74.9198837   7.7668071  46.7869682  74.8950348
   6.8987827  47.6743622  75.7610855  77.9746170   8.9263163  32.6039619
  77.9494705   8.2266560  33.2567062  78.8882446   8.9562531  32.3200226
  47.9859734  21.5255585  64.1809387  47.5172157  20.7007256  64.0538635
  48.1623535  21.8398838  63.2941895  17.0096703  18.7166729  13.8304138
  16.9654560  18.3377972  14.7083254  17.7418900  18.2647171  13.4110994
  26.6635609  45.2357407  38.4825935  26.4107227  44.8672180  37.6361313
  26.1278152  46.0241089  38.5702362  59.6506004  12.5234728  31.2889328
  59.4559631  12.1789989  32.1605339  59.3775291  13.4400978  31.3271885
  81.9931335  46.6241646   7.2822857  82.2433243  45.8862495   6.7263007
  81.1193619  46.8684616   6.9772081  14.0144396  19.0699234  24.0802193
  14.0206957  18.2083263  24.4971619  14.7618980  19.5276318  24.4649792
   9.8662930  53.2758102  64.2695084  10.0592346  52.3403854  64.3326492
   9.1815128  53.3346825  63.6032906  76.3033600  20.2687855  76.6868591
  77.2302246  20.4882755  76.7816315  76.2956238  19.5074482  76.1067352
  44.8805847  70.8151474  15.9407558  44.6878738  70.8660126  15.0045357
  44.5089073  69.9772949  16.2166157   9.2235031  46.5080872  29.8789711
   9.2907829  47.2857971  29.3250065   9.9634600  45.9612617  29.6150074
  74.9673462  28.2556458  18.4771729  75.6081467  27.6678085  18.8772488
  74.8495941  28.9548931  19.1201496  48.6760712  15.9671469  62.0490952
  48.1228485  15.5898371  62.7330666  48.0699234  16.1739864  61.3377342
   4.6515608  62.7176781  44.8795242   5.2751913  62.5378342  44.1759796
   5.1580644  63.2039986  45.5300446  59.7058525   2.9008250  66.0139618
  59.4734764   2.1096814  66.5000916  60.5638123   3.1498144  66.3576813
  32.2200089  52.0566101   0.9716368  31.9758987  52.9581299   1.1811726
  31.6741505  51.8294640   0.2188595   4.9779973  26.8988991   9.9737244
   5.4454203  26.0660820  10.0382557   5.6697445  27.5591259   9.9310980
  10.6813745  11.6149940  18.3300571  10.4655170  12.2948914  18.9683170
  11.0398874  12.0933905  17.5825043  40.0290642  29.4884796  83.6577454
  40.3590050  30.0646057  84.3472748  40.4571037  28.6483059  83.8224335
   7.6295428  52.1577263  44.8269043   7.0705042  52.4117699  45.5611877
   8.4664497  51.9286995  45.2310905  75.9658585  49.5877380  67.0136719
  76.6726913  49.2989426  67.5909195  75.2004547  49.6503296  67.5850601
  37.1897850  18.1353073  81.7454300  37.5511017  18.4091835  80.9024200
  37.8213959  17.4994202  82.0815125  64.4441223  38.3634186  32.2219162
  64.0149078  37.6328087  31.7766991  64.6597748  38.0217323  33.0896606
   1.7604418  18.5292568  36.7006416   1.5305096  17.7409344  37.1924858
   1.3776450  19.2467384  37.2055359   3.6780953  53.2236557  78.4148102
   3.4935441  52.7403755  79.2201767   4.1841612  53.9836311  78.7021561
   1.4379536  19.7054195   5.6931505   1.6490325  20.2448196   4.9310975
   0.6475987  20.1041298   6.0572953  77.3797226  29.9459000  42.1792755
  78.2199249  30.3838310  42.3153267  77.4464188  29.5666885  41.3029289
  28.0921249  50.2550240  48.0084076  28.8701820  50.2628479  47.4509125
  28.4362335  50.2993469  48.9005127   8.8694363  65.1074600  30.8912582
   9.7494478  65.2554474  31.2375393   8.6681881  65.9040604  30.4001865
  10.5297585  15.2360754  66.1312103  11.2680426  15.1687450  66.7367096
   9.7587175  15.0735149  66.6746216  42.0553093   7.8538008  86.3761292
  42.3828926   7.2331429  87.0270538  42.7165604   8.5454149  86.3505936
  12.6783295  68.7585831   7.7192116  12.6851444  69.7127762   7.6437345
  13.5726213  68.4947968   7.5026650  43.6930923  30.2596855   9.2146902
  42.7721558  30.4980145   9.3210125  43.7766876  29.4195461   9.6656971
  71.8556900  64.4850616  58.7859459  71.5863876  63.7038956  59.2691498
  71.9155045  64.1949081  57.8757477  54.6266632  21.0564232  17.0461884
  53.9580574  21.7177601  17.2245979  55.4565010  21.5260105  17.1303711
  61.1051826   2.3034821  86.1487579  60.7556190   1.4985640  86.5310440
  60.8393593   2.2673595  85.2299194  49.3177719  57.1852150  28.4278507
  50.0376015  57.5246162  28.9597149  49.5831490  57.3613968  27.5252056
  42.8921776   9.2804670  27.9165554  43.0036049   8.9794731  27.0147686
  42.1213799   8.8092203  28.2328339  40.6957550  16.3371716  83.3479767
  41.1902542  16.0012493  84.0955429  40.2085266  15.5799179  83.0233154
  31.2227402  56.6069908  78.8105698  31.9880772  56.7974129  79.3529968
  31.5048923  56.8097115  77.9186478  60.7154770  55.2311020  81.7917175
  60.7569008  54.4476967  82.3401642  60.1811295  55.8467293  82.2934265
  83.8312454  11.2722168  49.4944000  83.9768372  10.5017433  48.9453964
  83.2899323  11.8504505  48.9569473  85.6944733  56.1302872  32.1504631
  85.1738739  56.4700203  32.8783264  85.1179733  56.2019157  31.3897095
  21.3706322   7.8893461  46.3734550  21.7852993   8.5076017  46.9751549
  21.9534073   7.1300058  46.3710403  51.8563995  71.0211487  80.8917389
  52.1166840  71.1986008  79.9878616  50.9099541  71.1639404  80.9008713
  71.7868958  37.0350723  21.8757191  70.9855499  36.6718864  22.2527752
  71.9556046  36.4935646  21.1046581  69.1455002  25.8816452  25.7811890
  69.8577957  25.5056896  26.2984161  69.1493835  26.8114681  26.0084515
  41.5460548  51.7767296  45.9384193  41.6044617  52.7203941  45.7890320
  41.9567947  51.6435966  46.7927017  30.8764133  63.3723526  37.9373283
  30.2631264  62.9764099  38.5564728  31.2174492  64.1402283  38.3959045
  61.9631577  69.6092300  80.2880478  61.4767647  70.1502762  79.6660080
  62.7201157  70.1431961  80.5291519  84.6007843  44.2782211  79.6883698
  84.2449646  45.1660690  79.6515732  85.5051270  44.3945084  79.9796906
  18.7952785  17.9039040  20.9195976  18.1582890  17.9756756  21.6304607
  18.4607925  17.1960888  20.3688278  83.8635941  15.8752594   6.9496832
  83.0124130  15.4454355   6.8661733  83.7159348  16.7639179   6.6260862
  19.8794079  48.0423775  83.7648468  19.2897434  47.2967033  83.8766479
  19.4930859  48.7355766  84.3000717  78.1153641  60.7197685  21.9881439
  79.0522461  60.8933640  21.8968334  77.9785156  60.6339226  22.9316139
  13.2628250  60.4314690  68.0690918  13.3077497  59.4930573  68.2523880
  12.3366652  60.5970192  67.8928757  61.7409172   3.9325020   2.4131296
  61.5187111   4.2683387   3.2815015  62.6289253   4.2518497   2.2528436
  51.8197060  52.3852272  79.4885712  52.1054115  52.9904099  80.1729355
  52.4454651  51.6621819  79.5317230  69.1629105   1.5936191  63.5805855
  68.2615280   1.2941860  63.6992416  69.2886963   1.6046176  62.6317520
  56.8472481  57.7464600  65.6837540  57.2834778  57.2977371  64.9594727
  57.1001701  58.6642380  65.5840225  29.8396587  48.8313103  64.6056595
  29.0304642  48.9703407  65.0977020  29.9109993  49.6000595  64.0398331
  69.5884247  51.8689995  76.5889740  69.6815414  52.7627754  76.9187164
  70.2132416  51.3576965  77.1031876  77.6090012  52.1552353  67.1569366
  77.9276352  52.6059380  66.3749008  77.1973343  51.3582039  66.8230209
  73.0340729  67.1128006  15.5485802  72.9518204  66.1595306  15.5214167
  73.9291153  67.2844086  15.2558527   4.2489195  41.0277672  81.9051132
   3.6267667  40.4884949  82.3933105   4.1230812  40.7710724  80.9916000
  50.7795906  70.6648026  12.6595345  51.4241562  71.3557434  12.8123903
  50.4181709  70.4784470  13.5260687   1.9604108  24.0832558  59.2787514
   1.9848890  23.1336212  59.3963356   2.5999393  24.4189358  59.9068871
  84.6894989  22.7397442  73.4601440  85.0910187  21.8772907  73.3543777
  83.7667847  22.6022778  73.2458115   8.6087513  44.8072052  50.0926094
   8.9353151  44.1629448  49.4645004   9.3955870  45.2440643  50.4186058
  80.0063477  64.1934586  32.1268272  80.8988190  63.9941101  32.4096603
  79.8910599  65.1208954  32.3337212  58.6527939  51.2317429  29.5678844
  58.6846886  50.2752342  29.5854588  58.7212906  51.4905968  30.4868698
  63.3712044  51.5579567  19.6721687  63.1519279  51.6317177  20.6009903
  63.5535965  50.6273117  19.5423050  66.6873016  16.7011089  76.7405548
  66.7407837  16.4139805  77.6521072  67.5893936  16.6599045  76.4231339
  12.0203886   2.0510266  23.7491646  12.7091112   2.3597767  24.3378620
  11.2047443   2.3080897  24.1791344  12.6692619  71.1378555   0.4488512
  12.1112700  71.4356384  -0.2696202  13.0840416  71.9358521   0.7765574
  45.2126999  35.7753448  29.3628082  45.7691765  35.6248436  28.5986633
  45.0125389  36.7109032  29.3327999  22.3394337  37.0550117  20.9746990
  21.7774220  36.2814140  21.0185089  22.1602840  37.4327583  20.1136265
  25.8697262  67.6452408  15.7718115  25.0996990  67.1172943  15.5607100
  25.5214882  68.3936157  16.2564774  55.9542160   4.0836053   6.0861297
  55.9157143   5.0389314   6.0402808  55.0532837   3.8160300   6.2676740
  56.2338600  40.9017181  73.0521011  56.8939857  40.3471413  72.6362762
  55.6208382  40.2851906  73.4525146  30.5115223  58.8199463  41.4732285
  30.5050163  58.1545067  42.1612511  31.1794662  59.4462891  41.7521172
  25.5249901  70.0513306  51.8507004  25.5822678  70.0633011  52.8061104
  24.6962833  69.6093445  51.6659584  77.0491791  50.4921570  27.2746048
  76.1501389  50.2404251  27.0634193  77.5914993  49.8486328  26.8185444
  58.2901726  68.7574005  12.2309122  58.1755333  68.8271027  13.1786633
  58.8146172  69.5229568  11.9961529  67.2219925  13.1999187  72.5617523
  67.3128891  13.0223074  73.4979248  66.9856339  12.3547983  72.1794739
  51.8031311  54.9683380  41.0069389  51.9861107  55.9076881  40.9876938
  52.6273003  54.5694504  41.2859879   4.9155164  69.7978287  59.1833534
   3.9663587  69.9203415  59.2012825   5.1215868  69.3992996  60.0288963
  20.7175274   3.3292344  32.0800171  20.7302418   2.6207848  31.4364586
  20.9630070   2.9086599  32.9040871  37.8731232  60.2229309   5.8340211
  37.0316772  60.3970909   5.4122739  37.7197838  59.4375038   6.3592062
   8.1735182  10.5095625  73.2258911   8.3899670  10.8825407  74.0804443
   8.0708599  11.2688866  72.6521988  38.2095642  50.5279732  62.6780128
  37.6432114  49.9785805  63.2199020  37.6094666  50.9756088  62.0815773
  78.5049362  36.3892326  56.1594620  78.0760193  35.8078003  56.7873154
  78.9390030  35.7985840  55.5438690  34.4332352  46.1233978  58.8132172
  34.9461555  46.9206924  58.6810608  33.5225296  46.4113083  58.7503166
  84.5351257  67.7145844  85.6890182  84.5495911  68.3445892  84.9685211
  84.2387619  68.2217865  86.4447556  63.3452568  71.4439240  43.8275146
  62.4543533  71.7767181  43.7190437  63.8058510  71.7310867  43.0390816
  59.4037323  14.2051449  68.0872574  58.8116722  14.3256121  68.8296738
  58.8698616  13.7684126  67.4235687   3.2998550  71.3004761  22.7550354
   2.4786396  70.8146591  22.8313179   3.8184521  70.7971954  22.1273422
  45.5151062  35.2943268  79.9177628  44.7924728  35.8491936  80.2112732
  45.0882797  34.5450058  79.5023499  25.5146217  41.4516296   3.8498335
  25.0984726  42.1982002   3.4189241  24.8921051  40.7331276   3.7382281
  72.7524033  30.3005371  16.6421509  71.8866348  30.0539207  16.9675083
  72.6844406  30.2142811  15.6912699  83.3698959  45.1386986  77.0760574
  83.2484283  45.3231926  78.0074234  83.2993546  44.1864357  77.0093384
  72.8911438  59.9135170  45.1323013  72.7884445  60.7606316  44.6986198
  73.8332672  59.7457352  45.1101112   4.2924924  50.9919739  27.4731674
   3.8100832  51.7996254  27.6498432   4.0471740  50.7573662  26.5781746
  33.3319092  28.6674747  22.3173752  33.9478798  29.1639271  21.7785397
  32.6916847  29.3165550  22.6089993  67.1841202  17.3180656  42.4687538
  66.5327454  16.6181946  42.4226761  67.8621902  16.9761887  43.0514832
   8.4166250  28.5672188  59.6840897   7.7405305  28.2479401  60.2817421
   7.9502130  29.1484356  59.0833588  36.3174057  46.6940308  10.1615381
  36.3229408  46.9128952   9.2297125  35.3940392  46.7317162  10.4109402
  61.7822533  43.2022247  79.3108826  61.3173981  43.9794922  79.6207199
  62.6093063  43.2098312  79.7927094  46.7183418  15.0263929  48.8917961
  47.4955559  14.5168400  48.6626091  47.0175133  15.6247044  49.5764465
  77.7126389  52.9467888  61.1058655  77.0109863  52.3990059  61.4577942
  78.2816620  53.1185036  61.8561745  61.0306587  54.6650352  53.8778267
  61.3023453  55.5646133  54.0599709  61.1631889  54.2025986  54.7053680
  74.6277542  33.4191055  42.6573334  74.5096741  33.3586845  43.6052971
  73.8594131  32.9805946  42.2918320  21.8132267  50.9802284  42.1418152
  21.6509724  50.1694832  41.6595306  21.4690781  50.8102570  43.0186882
  19.3486557  41.8368912  40.2008820  18.7776375  41.9799194  40.9556770
  19.2672062  40.9019127  40.0126991  75.2818680  48.3039093  74.8969421
  75.1743927  47.4959717  74.3950272  76.1799698  48.5809097  74.7155151
  74.4924240   3.4833727  47.5704422  74.9462433   2.6418898  47.6171837
  74.2988663   3.5997660  46.6402702   5.9389534   8.0650005   8.8940487
   6.8158388   7.9788513   8.5200405   5.4243250   7.3866849   8.4566956
  34.8159447  43.9424744  43.6701965  34.9478378  44.7590446  44.1519089
  35.6832085  43.5383987  43.6417770  11.8419333   5.1075993  43.7963295
  11.4418945   5.5992084  43.0790291  12.1788845   5.7797570  44.3886986
  69.5138168  17.0669079  38.3739395  70.3762817  17.4130116  38.1445961
  69.2075958  17.6356602  39.0803261  12.4734974  26.2462654  82.9927368
  12.1615934  25.4249115  82.6128311  13.1284294  26.5641441  82.3712463
  14.9388809  53.4058189  11.5579462  15.6865721  53.4656105  10.9632921
  14.3719778  52.7427444  11.1640110  56.3330383  59.5057335  56.3826942
  57.1775208  59.9481049  56.2967529  56.2492332  59.3295097  57.3197937
   6.1927934   5.1542649  79.4238892   6.4670248   6.0416889  79.1925659
   6.8967891   4.5934596  79.0981293  53.5447731  67.7014771  18.8112106
  54.2823448  67.3235703  19.2901764  53.8183632  67.6798706  17.8941975
  83.8901062  46.9267578  79.4607315  84.2150497  47.3766785  78.6808548
  84.0300522  47.5507278  80.1729889  70.7807007  50.3505096  35.1244392
  71.4894409  50.5363426  35.7403870  70.6549759  49.4033890  35.1826515
  78.0354843  54.1862373  43.2087708  77.5629044  54.6842270  42.5417595
  78.3867874  54.8516693  43.8003922  40.7037926   7.9984536  82.4516830
  41.1457443   8.8471870  82.4754257  39.9723930   8.0921087  83.0620193
  25.4696674  64.2079086  20.6793041  26.0206661  64.7881470  20.1539879
  26.0592079  63.5087204  20.9618015  35.4470406   8.6210260  49.9955521
  34.7983017   7.9581475  50.2321167  35.9392776   8.2279425  49.2748451
  80.3666458  52.0827599  65.8751221  80.0710068  51.5529633  65.1347504
  80.0530701  52.9654732  65.6783371  46.7515144   3.2807527  35.9918671
  47.6761742   3.2742105  35.7444916  46.7526970   3.0825298  36.9283142
  14.4861374  55.2427826  15.8780231  14.6398792  55.2851372  14.9342003
  13.9794874  56.0309563  16.0737686   2.6308954  29.4371300  13.3893385
   3.3022742  29.5101738  14.0676794   3.0707989  29.7153320  12.5860205
  57.4875641  21.5381355  20.4985161  57.0535812  22.3907547  20.5289936
  57.0704880  21.0320320  21.1957531  17.3355484  67.4004135   5.2609506
  17.6606808  68.2979126   5.3317590  18.0579662  66.9146652   4.8629637
  21.4009609   3.4153159  40.4151115  20.5701332   3.8737588  40.5407562
  22.0682659   4.0604653  40.6490288  20.0713062   9.8112793  23.0209980
  20.2767868  10.6520901  22.6122856  19.4493523  10.0282078  23.7155113
  53.2968216  55.1649132  11.8275785  53.4526100  54.6014481  11.0696430
  54.1642609  55.4931145  12.0643654   5.3600445  19.8418541  27.0119019
   5.8933783  20.4106579  26.4566994   5.4338093  18.9766026  26.6092472
  84.9144058  25.3069515  49.7777939  84.0522003  25.7105656  49.6781502
  85.0749817  25.3149109  50.7213974  78.5518188  11.9573231  18.0863457
  78.2015915  11.5215225  17.3093967  77.7869415  12.3528862  18.5043392
  50.5938568   9.4778681  37.8324127  50.3069458  10.1415348  37.2051468
  49.7817612   9.0947886  38.1640472  71.1540909  45.5248871  63.1628723
  71.2339401  45.6072922  62.2125740  70.2334290  45.3067093  63.3078423
  31.1703949  35.2454185  17.9576912  31.2272568  34.8971863  18.8474846
  30.4076252  34.8091927  17.5780563   3.0874310  21.4739151  39.4998512
   2.4460990  21.3013115  38.8105545   3.4223394  22.3484821  39.3018532
  55.8649979  47.6146164  31.9505558  56.6044655  47.7376671  32.5457687
  55.1418266  48.0835876  32.3668709  61.0770454   1.2501706  10.2157545
  61.0281219   1.8856432  10.9299068  60.8098679   0.4216217  10.6136923
  36.2378426  58.7889748  38.1068840  36.4002113  57.9410095  37.6935768
  36.6187744  59.4265823  37.5030785  44.8805313  56.2617455  22.1234608
  44.2843590  56.0769730  22.8491783  44.9197998  55.4418526  21.6310577
  39.6260376  57.0851402  14.1167059  39.9968605  56.3482170  13.6312466
  38.9988518  57.4797935  13.5108023  56.4453201  60.8448257  75.4058380
  57.3434258  60.5147743  75.3793030  56.4348907  61.5620193  74.7720032
  23.8157463  62.8115387   6.0839920  23.9274921  61.8655167   6.1776943
  24.6637020  63.1787758   6.3336744  77.6074066   6.8347363  39.8084869
  77.7301178   7.2405524  40.6666756  78.4385529   6.9766240  39.3554001
  74.9456100   1.3734066  78.5740738  74.8560867   2.0972986  79.1939087
  75.2998886   0.6535347  79.0960922   1.5569876  45.1920357  51.1279793
   1.0948477  46.0297012  51.0967560   2.4240017  45.4094429  51.4704018
  70.2661133  30.9685001  70.9616165  69.9050903  30.2749481  71.5137711
  71.1071930  31.1826305  71.3653107  70.8344269  56.0426254  61.4730949
  71.5028152  56.7218590  61.3828812  71.2630539  55.2428436  61.1683693
  84.4826355  13.9896374  18.5993061  84.6702576  14.8243933  19.0285053
  84.0811462  14.2339783  17.7654381  38.4209747  37.7114449  54.9457932
  38.8548622  36.8623390  54.8621635  37.6767883  37.5442123  55.5241089
  35.9798317  65.9066925  25.0659676  35.8184357  65.0297623  24.7178478
  36.9272079  66.0226059  24.9933167  72.3499985  65.5946808  43.3739090
  72.7794952  64.7452316  43.4748688  71.6742706  65.6034927  44.0518074
  33.5486794  63.3109665  37.2173538  32.6833000  63.1095161  37.5733986
  34.1521416  62.7860069  37.7431717  12.5784779   7.3976774   3.0567226
  12.5474844   7.4022875   2.1000357  13.4494715   7.7326641   3.2697601
  57.0111427  65.5707703  55.9640808  57.1284370  65.9222717  56.8466454
  57.6765213  64.8868408  55.8882790  69.7840042  56.2509842  57.5048370
  69.7190552  55.3047714  57.3756180  70.4914093  56.3578720  58.1407509
  69.1520309  24.4408627  87.2591629  69.7227097  24.5729198  88.0162125
  69.7059326  24.6393738  86.5041656  51.5810509  33.1921425   2.4928353
  51.1737289  33.8018608   3.1081131  52.0027657  33.7539711   1.8426533
  35.5113106  62.6416817  34.8734398  36.2620239  62.7069130  35.4636955
  35.0512390  63.4745140  34.9781342  83.8579254  20.1949234  21.4458637
  84.3684082  20.6939735  22.0835133  84.2263718  19.3122234  21.4821968
  68.6371536  32.6446800  81.4800797  68.5609970  31.8746948  80.9165573
  69.2454834  32.3778725  82.1692657  53.8461761  41.0269432  16.7181263
  53.5852928  40.1074028  16.6669807  53.8256149  41.2300835  17.6532955
  34.4900360  62.0024757  49.4588814  34.3256111  62.9453087  49.4750519
  33.8322182  61.6549225  48.8566246  64.1821518  27.7257805  50.3015213
  63.9404716  28.6046200  50.0091743  63.3524857  27.2500916  50.3416100
  28.8471489  63.2965393  55.1624413  28.9042683  63.0891876  56.0951653
  28.4510899  62.5194321  54.7681427  76.9725800  22.3256626   3.7580724
  77.6251526  23.0161743   3.8745844  77.4299393  21.5205097   4.0005269
  48.3137627  67.4272919  12.8059111  48.9640923  67.6160126  12.1293850
  48.8123627  67.0076981  13.5070324  36.6476593  21.0583649   9.6391640
  36.1215820  21.8425980   9.4827862  37.3176422  21.3397045  10.2622223
   3.5934000  44.7385445  37.3147545   4.2192326  44.0488930  37.5359879
   2.7684529  44.2755356  37.1687584  16.9758568  35.2719078  16.9043045
  17.5747795  34.9587059  17.5821152  17.3116913  34.8905716  16.0931129
  12.8633232   8.0388288  30.4000301  12.6376867   7.3323445  31.0051746
  13.7770014   7.8727636  30.1679802  25.9785862  66.9623337  38.8653755
  25.5727406  66.2283096  39.3265991  26.9089279  66.8953552  39.0803413
  27.1739216  62.5435677  41.8116112  27.8008003  62.1625862  42.4265175
  26.3394394  62.1305428  42.0336075  39.3584557  38.2926254  82.3018723
  38.8713951  37.6167450  82.7732468  40.0231209  38.5871201  82.9245529
  54.1969452  35.1685562  46.7573586  53.5359840  34.5151176  46.5284958
  53.6975441  35.9703484  46.9121513  52.6151047  66.9507599  10.3857708
  52.4877205  67.5719986   9.6687851  52.3090668  66.1143188  10.0351524
  32.0900917  16.8017578  22.8677959  32.6714249  17.5229683  22.6266747
  32.5315742  16.3731556  23.6010246   6.0115056  17.4779510   2.6039414
   6.7697830  16.8940048   2.6198769   5.3282690  16.9960651   3.0699952
  71.1302185  26.7331619  29.0710430  71.4221115  26.1727200  29.7900257
  70.5136871  27.3423195  29.4773064  32.5966187  50.8727341   7.9304729
  32.8816948  50.7793159   8.8394489  33.0589447  51.6484146   7.6129770
  83.5709610   4.6451850  60.1645012  82.7568359   4.1417632  60.1638985
  84.2220306   4.0481353  59.7958946  53.8046417  23.9928570  51.8186035
  53.0405350  24.2967052  52.3085518  53.4382553  23.5638371  51.0453377
   3.8381917   7.4396000  84.6046143   4.1415229   8.2881870  84.9272919
   2.8941147   7.5498939  84.4915390  73.6805801  55.3361053  48.1389122
  73.7381821  55.4248581  47.1875763  72.8131638  55.6757545  48.3590622
   7.9745526   0.8286543  12.0770159   8.5053940   0.4579035  12.7819872
   8.5823622   1.3797275  11.5839462  66.1846390  26.8443165  54.5293121
  66.4708786  26.9864597  53.6270409  66.9972839  26.7533112  55.0268707
  51.1939697  26.1395931  32.0256577  51.4017601  25.6379738  31.2373466
  51.9950790  26.1067905  32.5485153  17.8414764  34.5169868  86.7263870
  18.3096695  33.7185669  86.9704208  17.6383152  34.4012909  85.7981720
  65.3195419  63.8465271  85.5950851  65.0430527  64.7626877  85.5742645
  65.2251053  63.5886307  86.5120392  70.3451843  55.0319786  64.2731018
  70.9215851  55.7026062  63.9067001  69.9347763  54.6257668  63.5096931
  43.4473267  39.8347435  55.7906151  43.8182793  39.0218086  55.4474525
  43.6144180  40.4821510  55.1056557  74.0605545  52.9819412  87.5209656
  74.5793381  53.7647667  87.7061157  74.3522644  52.7008858  86.6537018
  64.2105179  40.0147858   5.2001929  64.4514465  39.5474014   4.4003544
  63.3127251  40.3081932   5.0449419  40.1191826  44.7872505  15.4301767
  41.0165939  44.6703644  15.7419758  39.7454453  45.4446487  16.0170155
  80.9328156   6.5880113  84.0406342  81.1918716   7.4183016  83.6409607
  80.3644485   6.8396258  84.7685623  22.6908360  66.7282410  11.4913368
  22.5284576  67.4278488  10.8585482  23.3395901  67.0946426  12.0922527
  11.7362194  51.5691528  74.6033936  11.2586956  51.9190102  73.8511963
  11.0547819  51.2241096  75.1802979  80.3360291  17.7805748  14.5599041
  80.9359665  18.2320919  13.9662409  79.9202805  17.1110172  14.0166960
  41.8100586  47.7482986   7.8144703  41.0172577  47.3624077   7.4419312
  41.7117081  47.6321373   8.7594919  80.0641022   5.4207339  42.2062035
  79.9577789   5.0366368  41.3359184  79.2183228   5.8280792  42.3931847
  67.1975708  37.9629250  62.2604256  66.2770004  38.0484161  62.5083694
  67.1804962  37.4613991  61.4453125   8.9841299   0.0449771  55.9863548
   8.7359257   0.9620155  56.1032600   9.8079042  -0.0431820  56.4657898
  18.8887806  18.8434944  25.6467018  18.4246502  19.6543140  25.8549938
  19.7142372  18.9099331  26.1267433  49.0125351  54.7399101  56.3379250
  48.6109314  54.8249550  55.4732170  49.9037895  55.0690651  56.2214966
  16.3737545  64.7341995  58.6110840  15.5464621  64.2624512  58.5147858
  16.1779575  65.6236649  58.3165665  33.1023407  46.2282333   2.2013175
  32.1531181  46.2910843   2.0951917  33.4559441  46.4807777   1.3484298
  21.6754990  51.4849815  11.9214840  21.8750668  51.2294273  12.8220930
  20.7334709  51.3393059  11.8343325  66.9582520  53.2465820  51.2828178
  66.4562607  53.7104874  51.9529152  67.5452652  53.9103966  50.9208832
  55.6452599   8.9091024  73.7578812  55.4841270   9.4274464  74.5462875
  55.0116844   8.1933622  73.8081665  81.7970200  29.2801323  42.4577293
  81.2308502  29.7526207  41.8474503  81.7541199  29.7891140  43.2672539
  27.7807274  36.5150871  79.6998138  28.0978088  37.3968697  79.5044937
  26.8314838  36.5722656  79.5907364  19.9994755  68.6234512  79.9088821
  20.2307663  68.4272308  79.0010147  20.3838215  69.4845581  80.0732117
  39.8979073  18.2423592   8.6949778  40.7674446  18.3330135   9.0847530
  40.0415382  17.7153320   7.9089475  -0.3452458   9.6091356   5.5598273
   0.3546137   9.0737448   5.9337063   0.1031682  10.2032337   4.9579930
  53.3033524  15.4013367   7.9021420  53.5637627  15.5258179   6.9894962
  52.7907028  16.1815643   8.1134882  69.6655350  42.9949570  68.2713318
  69.5268936  42.3283501  68.9441223  70.3801270  42.6499672  67.7360077
  80.4936371   5.7218151  45.7201462  80.9992523   6.2157936  45.0747223
  80.4916611   4.8244581  45.3870125  27.2619762  12.6249819  81.0076675
  27.6402168  13.4154367  80.6225128  26.3373947  12.8385534  81.1332397
  59.9223900  26.2363625  75.0110168  59.9090424  25.7376175  75.8279037
  60.4305458  27.0207958  75.2175980   7.0742283  68.8046112  51.1415520
   6.6060414  69.6320419  51.0302391   6.5323520  68.3028488  51.7505188
  35.4623184  42.2118301  39.5403061  34.7767487  41.9658203  38.9192505
  36.0695877  41.4719696  39.5321732  -0.1473570  43.3369064  70.1414566
   0.7578948  43.6345596  70.0511551  -0.2849092  43.2717323  71.0864792
  26.6861839   8.9643507  29.4055080  26.4462051   8.7770214  30.3130054
  27.6249771   8.7823095  29.3635559  69.0063400   7.6312551  14.9448681
  68.1119537   7.2973490  14.8755245  69.1703415   7.6830239  15.8864918
  55.8308258  26.5940876   9.9633102  55.3324776  26.9205799  10.7124968
  55.2914124  25.8887501   9.6058683  14.4308147  29.6230297  19.9112148
  15.2164907  30.1695366  19.9278202  13.7379017  30.2089405  19.6065617
  67.7500610  37.1637840  79.8716049  68.0964127  37.6201057  79.1047668
  66.8098526  37.0957451  79.7054214  64.1853180  55.9596405  28.4357548
  64.7484283  56.3482246  27.7663231  63.3773499  55.7407608  27.9715271
  44.5833359  63.8157806  50.2270203  45.4372711  63.4552994  49.9881020
  44.1053619  63.0738754  50.5976295  52.9585876  15.5767670   5.0725498
  52.6774635  16.4834862   4.9498258  53.0334396  15.2269583   4.1847081
  55.9863319  56.7210655  11.8404179  55.7974510  57.6461220  11.6828585
  56.3502502  56.6982803  12.7254477  16.5380173  38.5000496  15.5488691
  16.7483101  39.2577858  16.0946217  16.0272312  38.8610992  14.8243189
   3.1262114  47.0479202  82.4589005   2.6107991  47.3616905  81.7158508
   3.8273532  46.5306015  82.0626526  26.1060123  71.2287979  77.8464279
  26.2486744  72.1749420  77.8726501  26.6835518  70.9187317  77.1489029
  81.7669220  58.6543198  40.5499802  81.8688354  58.5214081  39.6075439
  81.3947067  57.8321609  40.8689423  83.6995544  58.8883858  30.4569798
  82.8174744  59.1954384  30.6664829  84.2797852  59.5401154  30.8504429
   5.2168999  39.7238541  49.0040550   5.7196021  39.8585739  48.2007027
   4.7491322  38.9014587  48.8588104  85.5669098  27.6748486  82.0493698
  85.7322617  26.8075581  81.6796417  85.6473465  27.5513382  82.9951477
  81.9456406  48.7314301  82.3141785  82.4538422  49.0042305  83.0780792
  82.4036865  49.1219063  81.5698929   5.7972240   1.9021003   4.6386595
   5.0851970   2.5216501   4.7980566   6.1553993   1.7201662   5.5074759
  54.3798981  70.7302704   3.4292216  55.2671165  70.6127853   3.7687466
  54.1136856  69.8552704   3.1468513  73.0989075  64.3713455  34.8775978
  72.4506226  63.8435020  34.4113998  72.5841446  64.8973389  35.4896317
  15.0406799  28.8769245   1.5899818  14.4961195  29.6027985   1.2853608
  15.8670998  29.2876873   1.8440245  19.2265091  69.6792374  74.1412048
  19.0935802  69.9150467  75.0593262  18.7203083  68.8752289  74.0247040
  70.0222397  17.0017223  70.5732269  70.0438461  16.1554070  71.0198975
  70.8105240  17.0061626  70.0302505   5.4162059  44.9822807  60.7423286
   6.1324649  44.7496452  61.3331642   5.8448915  45.4203224  60.0070877
  61.0744514  47.9116516  23.5004406  60.7302475  48.0654335  24.3802738
  60.4190178  47.3543434  23.0808640  35.2433014  66.6271591  21.2475491
  35.7468376  67.2777023  21.7369061  34.3505135  66.7145767  21.5814915
   7.4092827  40.0254364  61.4020958   7.3182659  40.8218002  60.8788795
   7.3507929  39.3127823  60.7657471  43.1965141  41.8518944  38.6051941
  44.0552368  41.9298782  38.1895676  43.2235527  42.4766579  39.3298798
  77.8584900  46.9257393  49.3825340  77.1694794  46.3828201  49.7655945
  78.6204147  46.3482170  49.3359642  85.5125427  45.9515343  10.8945513
  85.8720703  46.5442238  11.5546179  84.8690567  45.4258423  11.3697491
   3.0803413  61.9781914  27.8947353   2.2143698  62.0788002  27.4995098
   3.6875730  62.0252762  27.1563015  20.2980309  63.2015076  78.7658463
  19.4468307  63.0071297  79.1581650  20.1288071  63.2209320  77.8239288
  80.1396942  22.6779823  48.5717316  79.3392563  22.8044586  48.0622864
  80.6121368  21.9867249  48.1078453  15.9972286  10.5177813  85.2274704
  15.7448130   9.6766233  85.6082230  15.2943239  11.1160173  85.4809875
  24.1992207  24.4289551  72.3159103  25.0830479  24.2738323  71.9827194
  24.2588177  25.2689323  72.7710114  10.5193882  19.1025085  15.1627960
  11.3100004  18.7577591  15.5778990  10.1256599  19.6663017  15.8286390
  44.2829666   3.7358053  37.8549194  45.2374229   3.7429607  37.9269905
  44.0670586   4.5757618  37.4498405  13.2766714  21.9055939   8.4048748
  13.2577467  21.6167183   7.4925013  12.8719635  21.1877422   8.8918352
  85.9256821  37.0368958  88.6391907  85.6034317  37.9371071  88.6840134
  86.8611908  37.1261673  88.4572830  25.7331257  31.9603481  10.2751102
  25.2506657  32.3997383   9.5748243  25.4205227  31.0559692  10.2504129
  70.1269608   6.7124176  22.5628777  70.6285400   7.2803812  21.9780083
  69.2261734   7.0274334  22.4882641  33.7687340   9.5716801   2.1680255
  33.5791359   8.7800436   1.6644424  32.9180069   9.9973116   2.2744870
  60.9992561  22.0360470  31.3543148  61.7984543  21.5201645  31.4609909
  60.8354416  22.4060459  32.2217827  79.4760132  40.1701660  27.4777946
  79.6377258  39.3027763  27.1066990  79.8604660  40.7768555  26.8450565
  23.9919319  51.5187302  72.9170532  23.6426964  51.9978867  73.6685028
  24.4163265  52.1891823  72.3816833   6.2920070   6.0291610  85.2916412
   5.3860373   6.3159013  85.1766205   6.2390242   5.3186312  85.9308395
  30.0789795  57.4341240  43.9081650  30.6767426  57.7481689  44.5866089
  29.2922573  57.9686089  44.0160027  47.6811752   5.7108393  21.1065578
  47.7210426   5.0505881  21.7984467  48.5962639   5.8733802  20.8775845
  78.9842987  32.6932602   5.8454561  79.0662308  32.3163910   6.7215195
  79.7721710  32.4035950   5.3854709  56.6335831  67.2142410  48.1407013
  56.4531860  67.7662048  48.9016380  56.5790710  66.3192368  48.4757004
   5.8862624  68.8676453  14.6919975   5.8069801  69.4101791  13.9073954
   6.7982926  68.5770721  14.6911154  12.2878075  61.2737846  75.7756195
  11.3978329  60.9827957  75.5768738  12.7762613  61.1201019  74.9669037
  68.6074371  23.2220383  27.1339417  68.0804596  23.9754181  26.8675861
  68.2631302  22.9809284  27.9939117  62.2432137  13.0549812  11.4045668
  61.5628510  12.3939877  11.5327234  62.2020187  13.5969858  12.1924534
  68.0879059   9.2570705  27.4792957  67.5607834   8.6590080  26.9494877
  68.9752579   8.9014568  27.4305916  23.0457420  67.7333679  15.5401840
  22.3192959  68.0888901  15.0282154  23.4623547  68.5017395  15.9304152
   3.1829972  65.6224823  40.4459991   3.4508426  65.0989304  39.6907616
   2.8643050  64.9811554  41.0811157  33.8423386  51.6568260  30.0567513
  33.7109680  52.3289146  30.7255344  33.8478622  50.8325653  30.5433655
  48.8315392   9.7444086  40.6056290  48.9225807   8.7958126  40.6956787
  48.0477219   9.8598747  40.0684776  73.5046005   6.1616273   7.5906816
  73.5042953   6.6645589   6.7762547  74.0782471   5.4165215   7.4118438
  29.6614361  66.9033203  31.6440334  29.7207108  65.9482040  31.6655922
  30.4501152  67.2025146  32.0964737  85.2231827  49.1515923  59.3538246
  85.3382721  49.8422508  58.7011566  84.7931976  48.4412689  58.8776016
  50.0870438   9.6590157  32.7811050  49.4047241   9.5134697  32.1257477
  49.8012581   9.1520481  33.5410652  14.7986898  41.1594925  11.2795162
  14.0600672  41.5474014  10.8102665  15.5517225  41.3116074  10.7085218
  25.3804646  47.5214806  64.0812378  25.2342148  48.3965340  64.4405746
  24.5608196  47.0551186  64.2453156  42.6931801   3.9199958  11.9088497
  43.4945030   4.1537824  12.3773165  42.0788765   4.6232557  12.1192875
  46.7765121  43.6509438  75.4021835  47.1901932  43.2326927  76.1572800
  46.0909615  43.0386772  75.1350098  85.0429382  38.7094955  24.1873989
  85.1810303  38.7424355  23.2407856  85.5754318  37.9704666  24.4815483
  19.7407875  65.2445145  44.7183609  18.9836445  65.0479736  44.1666908
  20.1392269  64.3914795  44.8910027  33.9613609  26.7064266   5.1879196
  34.2676735  26.4287529   4.3246112  34.0219994  25.9187183   5.7283540
  59.8360939   6.5403967  55.5197792  59.2805138   7.2435651  55.8561096
  59.2206154   5.8707256  55.2215157  78.3289871  11.9533300  74.1317520
  78.9343338  11.3007383  74.4837646  78.5142288  11.9699888  73.1927948
  36.3267479  44.4680443  36.7479134  35.5169334  44.3198471  36.2595749
  36.5765305  43.6006279  37.0664024  10.3077793  13.6819391  23.5407715
  11.2520580  13.7048540  23.6958351  10.0202608  12.8583746  23.9348621
  65.7485352  67.6127396  37.5819817  66.4459610  68.2041550  37.8649292
  65.1643219  68.1633987  37.0607300  77.9459305  35.6510391  15.6866636
  77.4375610  36.1962547  15.0862255  77.4540634  35.6758232  16.5074444
   4.1672764  66.3496094   6.6675506   4.6370659  66.6275558   7.4538555
   3.9680974  65.4260941   6.8214326  20.9615898  54.4650002  23.8912582
  20.9048443  54.9634590  24.7064590  20.6037979  55.0526733  23.2257843
  67.5430908   7.0958581  42.6480103  68.4961624   7.1725230  42.6928673
  67.3724365   6.7362385  41.7775040  55.1857910   6.3384380  21.1923771
  54.7755203   7.1211586  21.5601521  55.7528839   6.0140696  21.8919621
  60.5435524  46.1069107  19.0160732  60.3225174  45.4907455  19.7144413
  61.3196678  45.7303734  18.6012249  47.1659698  30.8040161   1.2831795
  48.0787773  30.9981937   1.4960442  46.8244667  31.6227875   0.9237053
  12.5131187   3.0833852  37.4073792  11.9796600   2.3495126  37.1022835
  12.8005047   3.5202031  36.6056137   7.9332337   1.4545522  72.6507492
   7.3095274   0.9678903  72.1118774   7.9225931   2.3404660  72.2884293
   3.5356512  48.0900574   4.9572306   3.0565712  48.8870850   4.7303791
   4.4076633  48.3971558   5.2052546  20.8806286  71.1964340  80.1675262
  20.7105083  71.9945068  80.6678848  21.8340569  71.1606827  80.0905151
  59.0850754  46.2465515  22.1240578  58.3016319  46.7948875  22.0819645
  59.0071182  45.6593437  21.3721676  12.4217863  33.7535973   3.6177630
  12.3741589  34.2808151   4.4152641  13.2726021  33.9714127   3.2371054
  59.8882370   2.8079674  83.7114029  59.4865265   3.6429627  83.4713135
  60.0414047   2.3668361  82.8758316  68.7324829  47.3105125  24.1050091
  69.6116638  46.9621811  24.2531281  68.8416138  47.9416389  23.3936710
   4.7413449  45.7685814  80.6047592   4.2729621  45.7304649  79.7708511
   5.0707312  44.8793755  80.7353210  57.9988823  30.7526035  17.6419239
  57.4734726  31.3976898  17.1685982  57.6085930  30.7201824  18.5153408
  19.1161976  47.9636192  16.5408497  19.2778759  47.1368523  16.0863762
  18.2034492  47.9070320  16.8235435   8.3763714  60.7514267  62.9289589
   8.3225565  59.9873505  62.3549194   9.1139021  60.5634384  63.5094223
  64.4107590  67.4383163   7.1024256  64.0716324  67.3274078   6.2142110
  64.2018433  66.6146927   7.5431452  86.9198074  32.0290031  19.0134468
  86.0307541  31.7965355  18.7455444  87.1327972  31.4030247  19.7055588
  82.8238602  63.8616829   4.3910241  83.2966614  63.2452431   3.8318369
  83.0010376  63.5609703   5.2823219  62.1588249  44.4008064  17.5676060
  63.0365753  44.2501869  17.9184628  62.3085060  44.7357140  16.6834869
  61.6318016  64.2945023  63.6540489  61.7779541  63.3637810  63.4848595
  61.0570221  64.3114700  64.4192810  71.9904861  31.0361595  58.8892136
  71.8420868  31.9220428  59.2199936  72.8374252  30.7823143  59.2559357
  50.8077278   0.5550398  72.0095825  49.9827576   0.0771645  72.0949554
  50.7873764   1.1967500  72.7195358  40.9522438  39.9776497  27.4818363
  40.6920700  39.8026695  28.3862267  41.5369034  40.7330971  27.5426979
  39.6117554   9.7049227  15.4278402  40.2201614  10.3320456  15.0369577
  39.0573196  10.2344446  16.0009403  29.5975437   8.6539154  74.7719345
  28.9209576   8.5738201  75.4442749  30.4207382   8.5311842  75.2447128
  23.0419235  62.6915970  78.8270035  22.8653603  63.6236572  78.9547577
  22.1944466  62.2668839  78.9597931  33.4747047  45.9939079  41.3790665
  33.4568481  46.4742432  40.5513039  34.1644173  46.4196815  41.8882217
   7.2019534  49.4569855  18.4005489   6.9097824  49.6992912  19.2792740
   7.0266242  50.2324638  17.8675156   2.9118934   7.9679165  69.8252945
   3.5060515   7.2212582  69.9008484   2.0655560   7.6312695  70.1195908
  52.8801346  18.8311539  37.5538979  53.7472878  18.9319954  37.1613312
  52.2948036  19.3115044  36.9683342  14.6784954  61.0872688  28.6317711
  14.2909851  61.7617111  29.1896210  14.6621237  61.4652100  27.7524948
  22.5702591  11.4433661  83.6052856  22.3048992  11.6250124  84.5068512
  23.1406441  10.6776733  83.6731491  70.3171082  25.0892258  84.5982971
  70.0085068  24.7139339  83.7735825  71.2682877  24.9867496  84.5669937
  73.0771637  33.6882401  17.7915535  73.5722122  32.8958435  17.9995594
  72.3085861  33.3726273  17.3162556  50.3596916  44.4437447  64.8580780
  50.2681847  45.2806282  65.3135834  51.1254387  44.5596962  64.2955627
  37.7985115  67.5671692  76.5000610  37.8866844  66.6530304  76.2302322
  38.6971855  67.8951721  76.5321503  55.2690849  54.3166771   2.9230494
  56.0067711  54.5080338   3.5022132  54.8360672  55.1613655   2.7996540
  62.3242340  45.3019753   2.5015199  62.3484383  44.4077454   2.1609316
  62.0238953  45.8315506   1.7628864   0.7296147  50.1245842  49.7935905
   0.9902154  49.4302788  50.3987808   0.1623521  50.6944962  50.3128662
  32.7790642  67.5679169  17.7685509  33.0353050  66.8501816  17.1893883
  33.3014641  68.3131561  17.4719791  17.2231064  54.9410782   3.4312921
  16.4298267  54.6204300   3.8603902  17.2372818  55.8786125   3.6237946
  68.4129639  40.5247803  27.9164906  68.7875977  39.6611252  28.0896320
  69.1559067  41.0545387  27.6273270  14.7339134  26.9959793   9.6158504
  13.9270658  26.4990673   9.7511578  15.0454569  27.1920853  10.4994307
  47.6034546   2.2263474  85.2461166  47.9678841   1.3474823  85.1411438
  48.3503685   2.7659652  85.5052795  83.6985168  69.2199936  75.0988464
  83.2752533  68.3700867  75.2202911  84.0728531  69.4257202  75.9554520
   3.4054914  48.7554016  45.3165627   4.1808653  49.2315750  45.6136932
   3.0189300  48.4031372  46.1182556  18.8278008   1.2546774  67.5056000
  19.3462257   1.6979413  68.1771545  18.3369350   0.5866122  67.9841080
  44.2555809  61.9956703  76.4680939  45.1718521  61.7646675  76.3153915
  44.2072868  62.1759338  77.4069290   5.8050542  49.8105774  46.1059914
   5.9392481  50.6701317  46.5052299   5.7414832  49.2091675  46.8479424
  86.4820938  21.0402069  42.9141197  85.9945374  21.8500404  43.0647430
  86.3757019  20.5422974  43.7246742  15.2918663  66.3989182  29.2167454
  14.9665184  67.2978668  29.1691360  15.3868484  66.1298752  28.3030586
  32.9175758  47.6584206  38.9370575  32.3606148  47.9150276  38.2020912
  33.7547188  47.4280090  38.5341568  70.3550568  18.0568180  55.7734795
  69.6403961  17.4226093  55.8307304  70.5469055  18.2842503  56.6832581
  22.4066086  51.5956306  14.5139265  23.3187733  51.3097229  14.4644814
  22.0215492  51.0503540  15.1999550   9.2842989   1.8453047  34.6346817
   9.2569971   2.5882583  35.2375984   9.1816158   2.2368538  33.7672844
   8.1219826  11.0264225  20.9135303   8.1681967  10.4806757  20.1285095
   7.7613163  10.4486008  21.5860443   8.8450432  57.1679955  12.2589846
   9.3276110  57.9434853  12.5453072   8.2868738  56.9446869  13.0038414
  30.7568760  42.3791237  61.1855812  29.9997444  42.6309204  61.7143364
  30.4246368  42.3539619  60.2882423  15.8514214  40.5923576  13.9579792
  15.6829491  40.7547264  13.0298176  15.1603518  41.0723038  14.4143829
  85.7541733  40.6820564  74.0232315  85.4493866  39.7760887  74.0737686
  86.6915817  40.6097260  73.8435898  20.0891151  54.6483688  50.3458061
  20.7556553  55.3352280  50.3324356  20.5525913  53.8593559  50.0649452
  86.4459915  49.4741096  55.3682137  86.7319717  50.2621803  54.9062691
  85.9487305  49.8026886  56.1172142  21.0645294  69.3877335  31.3518887
  21.4497128  69.6839371  32.1765900  20.1238976  69.5252533  31.4638348
  48.8649521  47.1237907  20.6301651  49.3879128  46.3346291  20.7714787
  48.9383087  47.6099777  21.4514256  62.0284195  24.4404373  37.6681786
  62.4000053  24.5102482  36.7888145  61.9426117  23.4989204  37.8178864
  54.1279030  68.2063141  39.3982887  53.9209709  68.2150955  38.4637642
  53.2798386  68.2994614  39.8322716  37.6222153  50.4572868  16.0589752
  37.3048630  51.0754967  15.4006910  37.8542137  49.6741219  15.5599146
  14.0568752  61.5435791  50.1580048  13.3772316  62.0111656  49.6725349
  14.7818165  61.4633904  49.5381165  28.4765339  25.4292603  87.8694000
  27.8930054  25.6211796  88.6034927  28.7819138  24.5369759  88.0331192
  24.6424465  54.4400330  38.6002312  24.1243019  53.6357307  38.6294518
  25.4503021  54.2215233  39.0648308  40.5123062  21.9123745  47.7067032
  39.9331284  21.5496159  47.0364876  40.5044365  21.2610588  48.4081001
  79.7566299   6.8901906  14.1051483  79.6246796   6.0082035  14.4528818
  78.8730698   7.2478142  14.0176353  53.4744186  15.0253363  58.7871933
  52.5625343  14.9243116  59.0601158  53.4282684  15.1505804  57.8393440
  55.1885109  30.1342545  83.6448135  55.3235855  31.0569153  83.8608780
  54.6862564  29.7867146  84.3818283  48.8646278  40.1649628  63.9277763
  49.2289543  40.7084961  64.6263962  49.4174538  39.3835907  63.9192352
  44.0526237  33.3247490  14.5404873  44.1961517  33.6271286  15.4372597
  44.3834076  34.0361023  13.9920397  62.0870018  37.5770035  11.3812656
  62.0964661  38.3698082  10.8449821  62.5749550  36.9339943  10.8667974
  12.8062134  58.8440094  59.5735550  12.4757614  59.1778603  60.4075661
  12.4592218  59.4497986  58.9186859  17.5670605   8.2370930  68.6430359
  17.6788712   7.2933245  68.5288773  17.9652195   8.4243641  69.4931107
  85.3075790   7.3622689  33.4798126  84.9460068   8.1396914  33.0542374
  84.5541077   6.7852664  33.6046333  20.0184650  44.2586479  20.3119297
  20.0938091  44.0995827  19.3710518  20.8279533  43.9046783  20.6802616
  19.9493027  49.9998207  56.0294914  19.1968250  49.7101707  55.5136299
  20.2974968  50.7486763  55.5455437  43.7373962  51.2917290  43.7235146
  43.5508041  50.6373405  44.3967056  44.2165146  51.9800797  44.1848793
  75.6819229  47.8848534   4.5698380  75.9762650  47.0996552   4.1082602
  74.8086243  48.0565491   4.2175574  37.8631363  48.2230949  14.5983648
  37.1067810  47.7587357  14.2398558  38.6122742  47.8632545  14.1234550
  56.6678810  66.3165970  78.3321686  55.9089088  66.8125076  78.6391907
  57.0085640  65.8891983  79.1179810  11.7455931  69.2357101  55.9740143
  11.9943838  70.0111008  55.4709167  12.5373173  68.9996567  56.4574242
  78.4221191  51.6451683  23.8531666  77.6743851  51.9617729  24.3600082
  78.0317154  51.1349030  23.1436253  51.4827881  24.9787083  87.6182404
  50.6953239  24.5070686  87.3467865  51.5933990  24.7490864  88.5408859
  15.9084606   1.5123216  31.1318455  16.4349346   0.9301578  31.6796970
  15.0193958   1.1637425  31.1973362  54.3529510  19.8598347  69.0370331
  53.9429207  19.9593658  68.1778488  54.1171303  18.9743996  69.3138428
  62.5257111   2.0224357  47.6990433  62.2465248   1.2091861  48.1196518
  63.4027786   1.8313454  47.3666725  47.5976753  13.4185934  23.4283676
  48.4744835  13.2294693  23.0941925  47.0154305  12.8822393  22.8902721
  28.6267262  42.6953239  13.6669559  27.9950600  42.3512993  13.0353889
  29.2371407  43.2100601  13.1390638  36.7591743  40.0732079  57.5799751
  37.1278343  40.9040413  57.2799034  35.8184395  40.1588364  57.4253273
  42.1477356  18.1942139   5.1853027  42.3259926  18.8890057   5.8191166
  41.3266716  18.4553204   4.7682781  44.4003067  66.0272141  52.1132584
  44.5057220  65.2929535  51.5082893  45.0803604  66.6495285  51.8554077
  50.3573761  66.9340286  31.0454197  50.3606911  66.2424164  30.3836842
  50.2055283  67.7388306  30.5499725  58.5212975  30.2579994  69.0185089
  59.4664001  30.1066837  69.0076828  58.3926620  30.9211369  69.6966934
  59.8295631  53.5792465  43.4121246  59.1044884  52.9673004  43.2855415
  59.5836792  54.0850029  44.1867104  83.9435806  23.3004169  15.8772364
  83.5340805  24.1473198  16.0541382  83.9289093  23.2218609  14.9233780
  74.3550797  37.5289230  72.9141388  73.4096832  37.5704346  73.0581207
  74.4665375  37.7508011  71.9897079  31.1421375   2.8876393  36.1895561
  31.2604160   3.6841307  36.7070923  30.6425381   2.3033979  36.7598991
  76.2467880  68.6678772  41.5567513  77.1390228  68.7254410  41.8985558
  75.7701950  68.1623993  42.2152214  12.5739098   7.5158925  13.7738781
  12.4996805   6.5616531  13.7616901  11.6821871   7.8274908  13.6190557
  86.7765121  30.7721100  66.7976074  86.6741028  31.7226200  66.7499084
  85.8810272  30.4364872  66.8386230   9.1959782  67.2152100  87.5327072
   9.6582680  66.6587448  88.1595001   8.2920561  66.9010849  87.5547485
  80.2491074  38.2185516  -0.0413927  79.9018784  39.0743027   0.2103011
  80.9146652  38.0264206   0.6191741  66.1349487  32.4555359  80.0890121
  66.3279724  32.1245232  80.9661713  66.9763794  32.4312668  79.6333313
  14.9211283  32.9026031  20.5400848  14.8799324  32.9488564  19.5848904
  14.6328239  33.7666130  20.8343697  86.6791077  15.3115215  79.2653656
  86.8625107  15.2533092  80.2030258  86.1731110  14.5226173  79.0708542
  32.5650558  49.2818031  31.1766644  32.2692375  48.5982323  30.5754528
  33.3152466  48.8952637  31.6283627   9.6043444   3.2072084  11.3598766
   9.7233305   4.1562839  11.3963451  10.0239630   2.9445171  10.5406427
  28.6721058  71.1719208  59.6781998  29.1376381  70.7401581  58.9618950
  28.3759174  70.4544067  60.2382622  56.1932678  59.0769577  24.7377491
  55.9353065  59.3377533  25.6218719  55.8052025  59.7419548  24.1690540
  82.8921585  48.5421295  63.1009598  83.7860413  48.2112122  63.0132675
  82.3376312  47.8040581  62.8480110  52.5531769  45.0716591  59.6613426
  52.8082237  45.8415413  59.1529503  52.0325394  44.5455551  59.0544014
  21.6206455  44.8287239  29.7292309  22.3997841  44.3460808  29.4531307
  21.3575153  45.3230476  28.9529343  86.3576431  33.2967033   3.8921807
  87.2426910  33.6331215   4.0326986  85.8022385  33.8448372   4.4465318
  45.8396797  51.4827538  73.2788239  45.0413971  51.2542496  72.8026276
  46.2650719  50.6425972  73.4503021  72.1969299   5.1572976  12.8365355
  72.9417419   5.1649680  12.2353430  72.5166931   5.6051531  13.6197405
  61.7158890  63.1425934   4.6218181  61.9682884  63.7610741   3.9362469
  62.5466614  62.8291740   4.9793334  43.8133736  63.0456238  85.7350922
  44.3155060  63.7941589  86.0572586  44.3559456  62.6749420  85.0390778
  70.2649841  39.7433701  23.6619663  70.1248550  39.0044861  23.0698128
  71.2151031  39.8579865  23.6812801  82.0404205  51.5901413  71.9910812
  82.8349457  51.2673531  71.5659027  81.4670029  51.8423119  71.2673187
   5.6591558  55.3607788  11.1051702   5.8904071  55.0934219  11.9947062
   4.7106185  55.2412262  11.0580969   8.0037594  56.8420258  66.8046799
   7.4393692  56.1596069  67.1680069   8.8830023  56.4645348  66.8304672
  13.5089703   3.0909662  25.8056545  13.7803164   3.8891993  25.3524132
  14.2998962   2.7881825  26.2517376  48.5394440   1.4198248  51.0713348
  48.8845291   2.0798571  50.4700813  49.1144943   1.4675251  51.8350563
  29.8834324  65.9598007  52.2969208  29.4717865  66.4540558  53.0057907
  30.0335674  66.6079788  51.6087608  69.7132645  43.9217644  75.9465942
  70.4770432  44.0388985  76.5115280  70.0350952  44.1139145  75.0658340
  25.2227306  43.1265678  87.1996613  25.8021278  43.8795967  87.3157578
  25.5393658  42.4810638  87.8315582  66.6820908  12.8142748  35.1316833
  66.6961823  13.2432156  35.9872780  67.3489227  12.1305447  35.1955223
  79.0752029  23.7989788   7.7777109  78.7504501  24.3476429   7.0637536
  78.2888718  23.5430107   8.2597885  14.0868988  53.2653046  39.4284859
  13.6800642  54.1317368  39.4317551  14.2683754  53.0824356  40.3503609
  66.9846649  25.4846153  68.0305634  66.8886261  24.9870567  68.8426208
  67.2544937  26.3577862  68.3151550  85.8638916   6.3629785  15.5364294
  85.6233673   7.2066345  15.9193439  86.0374603   6.5586319  14.6156549
  49.8013229  70.1472168  55.0161400  49.2665405  70.4236603  55.7603302
  50.2241402  69.3408432  55.3114586  51.1733398  32.2504692  69.0088654
  51.6811485  32.5766068  68.2658920  50.5899200  31.5929394  68.6300430
  83.6936951  66.4544678   5.0048919  83.5820999  65.5058670   4.9421949
  84.6150589  66.5724869   5.2359762   6.3972969  68.5484314  71.4412308
   6.6639891  67.8021698  71.9780731   7.0559239  68.5923462  70.7480392
  78.0584412  43.0077553  29.9768162  78.9377747  42.9362526  29.6054707
  78.1910934  42.9362297  30.9220772  54.6413651   6.3490410  70.4856033
  54.5556183   6.3673563  71.4387817  55.4420280   6.8424935  70.3076248
  12.5398483  46.3490677  59.8117027  13.0441771  47.0912933  59.4785538
  13.1243773  45.5977936  59.7109718  51.5740585  52.8566780  55.7267494
  51.3710365  53.4486771  56.4510078  52.3649216  53.2238121  55.3318062
   5.8192492  64.4546204  10.1785698   6.4821725  64.2603073   9.5159941
   5.9726672  63.8082085  10.8676596  85.3970795  70.7759552  13.4933138
  85.1038055  70.8334122  14.4026661  86.3037338  71.0821762  13.5142517
   3.7708640  63.4268875   6.9592457   4.6712499  63.5501747   7.2598066
   3.7797787  62.5773811   6.5182304  12.0753870  70.8209076  24.2032089
  12.0370445  71.7580338  24.0120049  12.1642370  70.4049377  23.3457069
  43.3185425  59.8785553  74.8625717  43.4329338  60.6033401  75.4772568
  42.4184875  59.9695778  74.5497742  71.5578918  21.0779648  69.6492386
  71.8607635  20.5974751  70.4197083  71.2402115  21.9115124  69.9963837
  27.7220860  10.7998896  70.1681137  27.3908043   9.9919310  69.7760849
  27.0405483  11.0629940  70.7865906  18.6400623  26.6028690  11.7604208
  19.3589153  27.2112961  11.5892544  18.9040489  26.1374416  12.5540962
  38.8288383  30.0640316  15.0957651  38.9061432  30.8921738  15.5695133
  37.8969879  29.9924717  14.8889799  82.4845428  14.5665598  45.5879784
  83.0978546  15.1386499  46.0492744  82.6791077  14.7046995  44.6609955
  72.4416428  64.8380051  63.2346344  71.9483185  64.3638840  63.9040222
  72.4221878  65.7502289  63.5239296  78.3887177  22.6512299  22.7691479
  78.4187622  23.5737362  23.0227432  78.1384125  22.6648121  21.8453541
  35.0295601   3.4626026  80.8507919  35.4369659   3.0403225  81.6070557
  34.1102638   3.1998024  80.8961334   3.1227143  51.1338730  83.0121765
   2.9124715  50.8619041  83.9055252   3.7361765  50.4697762  82.6977463
  39.9364433   0.6680592  27.1141891  40.8706169   0.7936239  27.2808590
  39.9046669   0.0744201  26.3639793  56.3763504  41.7701797  11.3606958
  56.7309532  41.2682381  12.0945511  55.9129753  42.5001068  11.7714520
  35.6621857  33.8563538   4.0900083  35.7818604  33.4580193   4.9521217
  36.3074379  34.5627785   4.0609078  64.9169083  40.5136948  34.6708031
  64.7459106  40.3220139  35.5928917  65.4957657  39.8078575  34.3827896
   3.9608781   4.8190236  83.5019226   4.4153962   5.6359625  83.2963562
   3.7946055   4.4164248  82.6495667  85.3673248   8.4491224  11.5586271
  84.5335236   8.7946873  11.8773527  85.6298141   7.8089552  12.2200794
  22.3967667  31.1523075   4.8710108  21.9413242  30.3192844   4.7490435
  21.6960068  31.7926331   4.9940968  26.3945827  21.1298389  71.9580460
  26.6276684  22.0261345  72.2000351  25.9241524  21.2201309  71.1293335
  -0.1483360  26.6754627  27.3546238   0.6340001  26.1658001  27.1438503
  -0.4657561  26.2986603  28.1752911  67.7493515  50.3623962  52.7271156
  67.0238190  50.6699181  53.2705040  68.1478958  51.1624336  52.3845749
  22.1571026  39.4546280  22.7256718  22.1383820  38.6894798  22.1508446
  21.2352295  39.6573486  22.8846893  41.5764809  63.7305832   7.0688090
  42.0827789  64.1453857   6.3703604  40.6688805  63.9700966   6.8813877
  26.4013500  41.7419395  84.1737213  25.6809521  41.4575348  84.7361908
  27.1051044  41.9681168  84.7818375  27.9841328  41.9732628  67.2061157
  27.7277431  42.8813896  67.0454865  28.7828712  42.0388908  67.7295074
  73.2032471  39.6353989  68.1670914  72.6488571  39.7251129  67.3919525
  73.5917358  40.5021896  68.2853241  40.9362755  64.0556870  19.6663475
  40.3064766  64.1056519  18.9472580  41.6749458  63.5663376  19.3042183
  23.5295238  54.2839622  57.7252312  22.8532944  53.6316223  57.9079819
  24.2491455  54.0541115  58.3130608  23.9777718  47.7147141  34.7983170
  24.8193531  48.1662140  34.8625183  23.8698635  47.5410461  33.8632088
  54.1553802  43.9384270  36.3619118  53.2636681  43.8038826  36.0410042
  54.5866089  44.4380226  35.6685982  65.1201172  15.6952705  73.7009277
  64.4347534  15.0658846  73.4764938  65.6328964  15.2586002  74.3810883
  25.6054859  55.4482155  29.3003368  26.4524250  55.4917946  29.7442112
  25.0320034  56.0086823  29.8230476  57.3095512  15.6843634  53.9392319
  57.0754929  15.6869946  54.8673706  58.2382393  15.4527941  53.9270782
  84.3901443  49.5734177  16.4946613  84.5697327  50.1926575  15.7871857
  84.3954086  50.1084480  17.2883530  74.0235291  43.8241806   3.0609131
  74.6618423  44.3266373   2.5546291  74.5313797  43.4461060   3.7788117
  83.8835220  21.7361584  51.2944336  84.5629578  21.8021679  51.9654312
  83.7256012  20.7963104  51.2051277  17.9404316  70.2034302  62.0054436
  17.1018333  70.3439560  62.4450302  17.8830547  70.7279053  61.2067795
  29.6764832  19.2443867  83.9460373  28.8565655  19.7038422  83.7647400
  29.4398937  18.3170185  83.9303741   7.2157803  33.8270645  13.6448975
   6.7316041  34.0510368  12.8501387   7.8687258  33.1895752  13.3559294
  42.6735382  69.1524353  68.3226013  43.5741844  69.4425049  68.1779099
  42.3480797  68.9366760  67.4486694  21.8462887  21.5905170  55.1035881
  21.4784622  20.8824043  54.5749016  21.6041126  21.3687820  56.0027084
  74.5758972   7.7152009  20.8997002  75.2499466   7.3759193  21.4885788
  74.7460632   7.2794986  20.0645733  13.1802588  13.6421566  20.4568024
  12.2834568  13.8638449  20.7074642  13.6266279  13.4751129  21.2869129
  44.6387596  53.7560921   0.2635102  45.0501175  54.4857979  -0.1996808
  44.2448997  54.1560822   1.0388269  17.4636898  21.0233231  68.4849472
  18.1840343  20.7677650  67.9087296  16.9124527  21.5880566  67.9432373
  61.9956284  34.0928497  14.2314129  62.1746902  33.4486237  14.9163504
  61.1054268  34.3942375  14.4128952  75.8433304  69.5916748  84.1296997
  76.1045151  68.6721039  84.0807877  74.9426804  69.6024094  83.8057327
  86.2770767  29.2003021  20.0369091  85.6086502  29.2642784  20.7190666
  85.9241486  29.7094746  19.3072414  58.1015015  33.0601921  70.4301300
  57.8935738  33.5372925  71.2334824  58.7538338  33.6051216  69.9899597
  62.5583038  35.2994347  74.7980118  63.0400276  34.4724846  74.7798386
  62.2270660  35.4033165  73.9059753  81.2901688  65.2668152  24.2169514
  81.4630356  66.0665970  24.7136364  80.4308548  65.4118118  23.8209743
  52.0201111  59.8459663  74.8466949  51.4776840  59.6490746  74.0830002
  51.9174232  59.0836296  75.4163742  78.9841614  68.9550629  77.5454025
  78.5664825  68.6230850  76.7506866  78.9656677  69.9069061  77.4459915
  64.9631882   8.6953955  28.2628555  64.3808746   8.9214478  28.9881401
  64.9776688   9.4794760  27.7140026  31.8705559  34.2196083  12.5861626
  31.3782597  34.5962677  11.8567772  32.1817932  34.9771614  13.0816183
   1.0138423  20.5262604  24.2429008   0.9341151  21.4800549  24.2306194
   0.4882131  20.2516289  24.9942493  79.3065491   0.7372757  24.5148125
  78.4587479   0.7812022  24.0726223  79.9488754   0.7945372  23.8074436
  30.5210247  36.6023827  32.9914742  30.0560856  37.3414230  33.3837471
  31.1224403  37.0035324  32.3640900  78.7909012  68.6859512  87.2486191
  78.2290421  68.4753876  87.9944153  78.5758896  69.5940399  87.0356064
  69.8169174  51.2229500   4.1006894  70.2374725  52.0809708   4.1570058
  70.3539581  50.7334213   3.4776495  30.4296398  43.3364525  84.6560822
  31.2297821  42.8925743  84.3750610  30.7108021  44.2271080  84.8656311
   7.9217181  43.7517662  67.4535828   8.7168903  43.8352203  67.9798584
   8.2374830  43.6721573  66.5534821  76.2412491   3.1856177  37.0895920
  76.6394119   4.0555601  37.0595398  75.3438873   3.3222954  36.7858086
  17.7365875  51.8255920  71.1174545  17.6564369  50.9685516  70.6987762
  18.1929474  51.6485710  71.9400253  86.1495285  17.0600739  59.5957832
  86.9804459  16.8942680  60.0411072  85.5675201  16.3677559  59.9091454
  77.7963791  34.3514404  52.1811905  77.9535370  33.6281624  52.7881470
  77.4901886  33.9286079  51.3788834  63.5257797   3.6758707  31.6059799
  63.1763954   4.3498435  32.1890106  64.4211426   3.5340178  31.9132881
  59.1301575  64.3786850  69.1500015  59.6366882  65.1636200  69.3586349
  59.7433586  63.8168640  68.6761017  19.0945969  62.5272751  49.3499146
  19.5721054  63.0969315  48.7468300  19.5092869  61.6704788  49.2490997
  60.1571198  17.9651985  78.8082504  60.0234032  17.9602356  79.7560501
  60.8937759  18.5613422  78.6734161  78.0553131  29.1114349  34.2790871
  77.8279037  29.9876232  33.9679413  78.3440094  29.2452888  35.1818466
  26.7153721  47.0357246  76.6040802  26.6175671  46.3655663  75.9276505
  26.2000866  47.7761497  76.2839508  72.4313660   8.4014854  25.4501953
  73.0810547   9.0588055  25.6993275  72.6769791   8.1470728  24.5607109
  17.6929569  71.4396210  51.4000168  17.9084930  71.5926132  52.3199997
  16.7645645  71.6623154  51.3312874  85.8590317  20.2968197  73.0725632
  86.5622101  20.4656239  72.4454498  86.3094559  20.1564980  73.9054260
  26.8788795  18.7201710   7.6353774  26.8870258  18.2668304   8.4783773
  27.4345093  19.4877396   7.7708259  50.4535294  63.1796761  24.0819550
  49.8121071  63.8897324  24.0568447  51.2958298  63.6214828  24.1894836
  74.3401947  70.9496536  32.8410645  73.8251114  70.3795319  32.2701988
  74.8473129  71.4954147  32.2400551  60.8726349   9.8937407  30.8388176
  60.1459503   9.5360956  30.3286686  60.5349426  10.7166834  31.1923161
  53.2028351  43.0517540  39.1170387  52.8079758  43.1320267  39.9852982
  52.9493027  43.8555870  38.6633759  51.7486343  14.0352335  15.5305901
  52.1108742  14.9161510  15.6254549  51.1582222  13.9373150  16.2776203
  57.1273117  55.8736877  55.7270813  56.6580429  55.0434875  55.8094673
  56.6840706  56.4611206  56.3392029  79.2634888  11.1039867   0.8743172
  79.0602570  12.0013857   0.6104966  79.2436447  10.6041098   0.0582529
  38.0897675  54.4538002  84.8742218  38.5487823  53.7601433  84.4005356
  38.5255852  55.2604599  84.5992661  73.9304962   4.4123712  10.8188143
  74.7872620   3.9918308  10.8918171  73.3028946   3.7025261  10.9547434
  62.1745186  44.6084404  14.6435213  61.2447357  44.8245964  14.7143221
  62.5049171  45.1925659  13.9609766  33.5645294  33.0913773   2.4118984
  34.3858185  33.2605553   2.8735166  33.8184166  32.5570831   1.6593671
   0.9429000  14.4924459   9.3450623   0.1522755  14.0875702   8.9883823
   0.8435138  15.4243402   9.1503115  56.3732834  33.2428780  55.9104538
  56.1860924  33.0362511  54.9947586  56.3005447  32.4036674  56.3650589
  46.7532005  54.2050972  40.2328491  47.4366798  53.6258774  40.5698853
  46.1118088  54.2564240  40.9415245  82.3146667  24.9523239  86.0472412
  82.1828842  25.7469273  86.5644150  82.3543091  24.2487488  86.6950455
   1.0471944  51.2099838  53.8919868   1.8895608  50.8627777  53.5985603
   0.6748154  51.6245613  53.1137238  56.3983345  48.8085518  88.7023468
  55.5752525  48.4048004  88.9775848  56.5532761  49.4995384  89.3463669
   0.4236062  36.9909897   5.2510819   0.7281458  36.7724648   4.3703241
   1.1082345  36.6573181   5.8308921  17.2442493  65.4828415  65.3150635
  16.4229031  65.1056671  65.6302795  17.3748493  66.2601547  65.8581619
  75.9828796   0.5478723  48.7343674  76.9038010   0.7851796  48.6256866
  75.7086945   0.2487735  47.8674240  36.9431419   3.9761083  78.5316696
  37.8639870   3.7256718  78.6062164  36.6110764   3.9375608  79.4285965
  67.0958328  24.5721226  78.3383713  67.2246246  24.7836342  79.2629776
  66.1459808  24.5118866  78.2365036  52.2510834   3.5119550  66.4089050
  52.9296188   3.9801352  66.8953476  51.8403358   2.9420397  67.0590744
   7.7286820  48.4742508  44.2946472   7.8893561  47.6282578  44.7126312
   7.3809891  49.0255623  44.9956474  15.2270765  58.9859886  20.8366032
  16.0723991  58.5947609  20.6161423  15.3215332  59.9088974  20.6009140
   5.8140841  48.1624947  77.4807281   4.9598136  47.7336769  77.4300461
   5.6577649  49.0474854  77.1512070  85.9861221  28.9810734  49.7253265
  85.6637039  29.8064423  50.0873184  85.7259216  29.0055199  48.8044968
  24.6625061  31.3175774  86.3031158  24.5149689  30.5915260  86.9091873
  24.5366821  30.9343128  85.4350662  74.4761505  25.9358215   3.8692398
  74.4678116  25.1387596   4.3991961  74.5205917  26.6475372   4.5077672
  31.6026669  45.9815521   5.1886001  31.4196777  46.7836914   5.6778021
  31.5134697  46.2355919   4.2700472  73.0952530  48.9211388  86.9263000
  72.3599091  48.7091827  86.3513489  73.6841965  49.4415970  86.3799515
  62.2190399  60.9103889  60.4501419  62.4786491  61.6704674  60.9708290
  62.5206909  61.1124496  59.5644760  34.4258881  63.2021103  44.1177864
  34.0085754  64.0007095  44.4407692  34.2900581  62.5616455  44.8160591
  31.0118885  63.7049561  53.2397957  30.2042370  63.5385437  53.7258377
  30.8851509  64.5718994  52.8543396  71.6633148   1.2018040  35.4322243
  72.6125870   1.2650276  35.3267784  71.4019928   2.0592401  35.7680016
  40.3667641  62.6957207  71.3652191  40.2576256  63.4267006  70.7569504
  39.6079559  62.7520447  71.9459610  53.1234322  20.8001976  80.4851761
  52.2766609  20.7432098  80.0425034  53.3397255  21.7325058  80.4693146
  65.2437515  25.6194401  37.8334045  65.0382996  25.1787796  38.6579285
  65.4824905  26.5099468  38.0907631  15.6992750  11.5152082   9.2565069
  16.3651772  12.1466713   9.5286474  15.8691854  11.3743773   8.3250952
  56.0730629  42.6387215  41.4168739  55.8159676  41.7755699  41.0926704
  55.2545853  43.1335030  41.4557800  17.2960854  50.2773590  55.2013779
  17.5553436  50.3555298  54.2832794  17.4088802  51.1584702  55.5579643
  35.3225327  22.0029011  14.1376400  35.0870056  21.2363071  14.6602221
  35.8758163  21.6551819  13.4382124  54.1718559  27.8161278  47.7374802
  55.0890579  27.6260624  47.5403862  53.8145409  26.9820442  48.0422134
  67.1344833  51.6962090  66.1585541  66.3136063  51.2229156  66.2941360
  67.0391541  52.0986633  65.2953186  60.5862312  30.8032417  82.8703690
  61.3114433  31.4170971  82.9864731  60.3059540  30.5924301  83.7610016
  82.3567886  71.4330597  73.7173004  82.6545868  70.5366516  73.8722534
  83.1629486  71.9392853  73.6169510  62.4736862  11.5447063  86.0757065
  63.0355682  12.2450132  86.4075012  62.5711861  10.8371716  86.7129822
   8.0210886  56.4255142   5.0326757   8.3479605  56.4887505   5.9301095
   7.4172130  57.1630173   4.9451952  51.6657562  67.1125107  64.4345016
  51.4081535  66.8009872  63.5668449  52.4563103  67.6291580  64.2785263
  17.3463955  34.6617813  27.3449173  16.3999214  34.7284546  27.4713097
  17.7189064  35.2247047  28.0235806  75.0359955   6.0780449  76.3258209
  75.0002670   5.3470936  75.7088470  75.6040878   6.7215028  75.9021835
  36.2863159  22.6482449  25.4856148  35.5549240  22.5708542  24.8729935
  35.9506531  22.2873554  26.3061752  37.1635818  70.5192642  26.1107655
  36.3723259  70.9982071  25.8642693  37.0760345  70.3813553  27.0539246
  42.2530785  29.1423244  77.5313644  42.5138206  29.5653744  78.3494492
  42.4003906  28.2093582  77.6866226  68.7366638  28.8795815  71.6554947
  68.9615555  28.1810608  71.0409012  68.1856384  28.4530048  72.3117218
  53.5529671  58.1429367  77.4374542  53.1466179  57.5411034  76.8138275
  54.4931602  57.9957237  77.3345261  46.8541298  55.3003197   1.4630337
  45.9615288  55.2541313   1.8056145  47.2822800  55.9676247   1.9993396
  72.1139679  19.0045738  64.2694397  71.7044067  19.4983387  64.9798584
  71.8306198  18.1013241  64.4111710  76.9584198  15.2537041  50.6493568
  76.6203308  14.9177837  49.8192444  77.8198090  15.6093416  50.4307976
  59.9263611   3.0487003  47.3392715  60.8312683   2.7940843  47.1588821
  59.5242462   2.2608383  47.7050743  46.1184502  21.5870953   2.3722425
  46.4436874  22.0646381   1.6090879  46.0296555  20.6834335   2.0693471
  46.8621025  38.6384926  78.8095932  46.3805733  39.3059616  78.3208771
  47.2849197  38.1064758  78.1354904  47.6889954  12.5335703  33.5117035
  48.4606323  13.0957289  33.4425278  47.3296318  12.5098963  32.6248398
  45.5163422  64.5926743   6.2650723  44.8361435  65.0627136   6.7473831
  45.1684875  64.5129166   5.3768897  46.7140808  25.7510567  11.3551464
  45.9506264  25.1804924  11.2666740  47.4422836  25.2312412  11.0149345
  57.0373077  16.8679924  48.3464737  57.3402214  17.4872856  47.6824341
  57.1571808  16.0077629  47.9441452  80.9205551  36.7017097  85.1972580
  80.5363312  36.6167221  84.3246841  81.5376358  37.4290810  85.1174393
  76.8049164  13.3097439  19.5705490  77.4633255  13.1928349  20.2554321
  75.9918594  13.4793072  20.0463772  76.4067535   2.9210253  54.8333969
  76.5161667   2.5467219  53.9592361  75.4778671   2.8009379  55.0308189
  71.1092758   1.2190812  53.5444908  70.3724365   0.7430194  53.9274559
  70.7082748   1.8046130  52.9021683  59.5892830  16.3169498  64.3485107
  59.2386894  16.7160435  65.1447754  58.8165894  16.0098858  63.8742828
  86.8617249  51.3648262  25.2206860  87.3858032  50.6793175  24.8063850
  86.1129074  50.9006271  25.5948849  54.2805634  37.2502441  75.2026062
  54.2431717  38.2041855  75.2720795  53.3886909  36.9609299  75.3952103
  65.4831848  62.9399223  32.2978096  64.5485535  62.8399582  32.1169662
  65.7906342  63.5581436  31.6348553  76.8159256  27.2059917  37.9732437
  76.1627045  26.5587330  37.7075539  77.6555405  26.7626553  37.8518906
  78.1914139  71.7900391  56.4172363  77.5923080  71.1725769  55.9976578
  79.0295639  71.3286133  56.4459038  81.5727539  62.4265480  84.8656998
  82.3812714  62.9389191  84.8655319  80.8891296  63.0577812  84.6411285
  60.9665604  63.1160736  77.6986160  60.6030998  63.9981651  77.7763748
  60.8413773  62.8857384  76.7780151   0.8184946   3.0342956  25.1360512
   0.3712920   3.4434788  24.3952332   1.0723397   2.1692088  24.8144627
  43.4448128  25.3392887  85.9559860  43.6408234  24.6429005  85.3292084
  44.0322800  26.0542412  85.7111282   0.4226372  41.7190857  41.1172180
   0.8916582  41.4306412  40.3342400  -0.1008718  42.4640732  40.8219795
  46.9620781  62.4411354  80.6356125  46.8330193  62.9019318  81.4646149
  46.7172356  61.5352554  80.8244705  77.0267792  65.8676224  17.8268375
  77.1994095  66.1548157  18.7234726  77.0245895  64.9117813  17.8777199
  85.3994598   8.4630060  50.2801514  84.8829346   7.7642579  50.6816330
  84.8442307   8.7966127  49.5754089  78.1843033  54.3520164  11.0108671
  77.7990494  53.5037231  10.7912884  78.7417450  54.1730919  11.7681513
  18.0273380  60.7236519  76.6786499  17.3450203  60.4599953  77.2960281
  17.9329071  60.1173363  75.9440079   8.3635969   5.9783711  50.5314865
   7.5072279   5.8766270  50.9468307   8.8603678   5.2111678  50.8158264
  52.8313522  57.7735176  85.0124741  52.9195175  56.8642387  85.2982483
  52.0171776  57.7885818  84.5093536  71.2814865  57.6172943  34.1655807
  71.2247086  58.4221954  34.6805038  70.8260345  57.8226624  33.3491096
  55.8751068  53.0999146  50.1749001  55.1301460  53.2633095  50.7533188
  56.1072655  53.9635353  49.8335876  29.6403942  17.1275826  15.8540707
  29.5406990  17.3085918  14.9194431  29.5206833  17.9779778  16.2768326
  29.6558208  62.4895020  13.7041359  29.6286125  62.5237274  14.6603365
  29.4133453  61.5886879  13.4897194  83.8597412  71.3625336  32.0464592
  83.0361862  71.4758530  32.5209541  83.8554230  70.4446335  31.7750225
  47.6879120   9.0105429  63.0631866  48.4038773   9.6350288  63.1799889
  46.9211655   9.4548073  63.4250679  51.3784943  37.2728081  75.1183395
  50.7343483  36.7264175  74.6680450  51.0590782  37.3266525  76.0190659
   4.5600762  47.3568077  62.0704460   4.3025742  46.4400749  61.9728622
   3.7483072  47.8482628  61.9450073  26.9364052   7.3353391  79.8698578
  26.7376328   8.2675247  79.9579086  27.0762005   7.2078362  78.9315491
  36.1481895  68.0656662  60.2181587  35.5056686  68.6048050  60.6793900
  36.9938278  68.4487915  60.4512749  78.7544479  54.8082428  23.8114300
  79.2281952  54.2369537  23.2069321  78.1489410  54.2242317  24.2680740
  68.5511322  70.3500977   4.3523865  68.8648682  70.5955582   5.2227578
  69.3370743  70.0656815   3.8858819  44.3735733  57.3735504  49.4127655
  43.4807281  57.0492439  49.2949066  44.9102859  56.8026466  48.8629990
  44.9548950  37.3738136  54.9153328  44.8338432  36.6666107  54.2817421
  45.9006233  37.4071579  55.0592728  75.1312714  40.4515800  74.2619629
  74.7809906  40.9139671  73.5005646  74.5859070  39.6686707  74.3385162
  59.6560173  30.9047585  26.5345821  58.7875557  31.2749901  26.6924744
  59.8121300  30.3316154  27.2851601  31.2584629  41.0191917  80.3358841
  32.0951538  40.5666580  80.2291336  31.0977802  41.0061455  81.2794113
   1.1587542  67.3285675  79.1595764   1.7778163  67.8395996  78.6381989
   0.8078628  67.9529190  79.7946320   3.1911356   9.6202393  60.3752022
   2.6143341  10.0994930  59.7803535   2.6270058   9.3718910  61.1075363
  84.5778427  60.2434158   5.8156781  85.3191757  60.7312164   5.4569273
  84.6021729  59.4017067   5.3605256  76.0111618  22.9577446  50.8525963
  75.5609436  22.2232513  51.2697983  76.8641815  22.9928684  51.2854309
  49.4538994  60.1905060   0.5810137  50.1591873  60.7754631   0.3042048
  49.5168304  59.4419632  -0.0122442  20.1930294  47.7427406  74.6588821
  20.9869595  47.6308250  75.1817398  19.7496700  46.8960991  74.7124023
  66.6456223  29.3090839  19.1172352  67.1049347  28.6567154  18.5883846
  66.9127045  30.1498032  18.7456264  44.2864990  48.1487503  75.7882004
  43.3403473  48.0513992  75.6806946  44.4731674  47.7506332  76.6384277
  10.8956947  45.6829185  73.7871933  11.3230209  46.5286827  73.6518784
  10.1700754  45.6786003  73.1629410  66.5641556  36.0072556  87.6563721
  67.4717331  35.8744164  87.3827133  66.2295837  36.6766853  87.0595856
  71.4727402  51.8680000  41.4326515  71.0591354  52.7137718  41.2599297
  71.5984421  51.8521652  42.3814316  76.0535278  10.0012407  39.5535660
  76.9501419  10.0121880  39.2186203  75.6299973  10.7471189  39.1286850
   3.4366186  13.7154169  21.4516754   3.4898353  14.2236509  22.2610569
   3.7003162  12.8311911  21.7063141  40.3533936  55.4566994  36.8240662
  40.0046234  54.5657425  36.7960052  41.2548103  55.3709297  36.5137024
  49.5859566  49.0599365  63.9005737  48.6855469  48.8054237  63.6987915
  49.6245766  49.9924774  63.6881905  14.6315012  32.7734184  73.0416489
  14.1816616  31.9615669  72.8076172  14.7991247  33.2045174  72.2036209
  65.0044937  50.4874420   4.8217673  65.5988083  50.2302437   4.1168780
  64.3703461  51.0677147   4.4006104  27.7610416  22.1726837  75.9988022
  27.2519207  22.9201622  75.6852646  28.3231335  22.5358849  76.6831741
  22.0077133  56.4557877  50.2703514  22.5743980  56.3855515  51.0385742
  21.8398800  57.3939629  50.1814995   1.3379946  54.5383301  15.1401539
   2.2214518  54.4073906  14.7957859   1.1023066  53.6931152  15.5226355
  39.5226822  45.3851700   2.2503972  40.3956833  45.7136917   2.4652727
  38.9607811  46.1594162   2.2826107  82.7256088  11.3088818  82.3694153
  83.5716248  11.1862564  81.9387665  82.1308289  11.5585775  81.6622162
  71.1954880  22.0277367  75.7172699  70.4832535  21.6307793  76.2186508
  71.6919479  22.5303192  76.3631592  23.0875092  59.6494064  33.0746765
  22.3186855  60.1687317  32.8392220  23.4624138  60.1047630  33.8285522
  61.1725121  46.2909737  81.7405472  61.6535873  46.9486237  82.2428360
  61.1708641  45.5152588  82.3013458  52.8733215   8.2280788  38.9700699
  52.8842239   7.9248481  38.0622368  52.1801224   8.8877268  38.9939499
  76.6253815   4.8961148  82.5132065  77.3889923   5.4699736  82.4514008
  76.9503632   4.0356345  82.2482681  68.1355896  65.0474167  69.5393982
  67.5603867  65.1722412  70.2942429  68.9823303  65.3912735  69.8240433
  30.0843220  36.1755028  26.3217468  30.6183109  35.3838081  26.3873692
  29.2716331  35.9546471  26.7767105  29.0710564  55.2462578  52.7247124
  29.9671402  55.2177010  53.0600471  29.1655712  55.5172424  51.8115501
  85.0605850  36.2562218  29.2978859  85.1223984  35.4363136  28.8078232
  84.6614456  36.0074463  30.1315746  27.2940426  45.3257256  63.8044205
  26.6172047  45.9627914  64.0330505  27.0873775  45.0687790  62.9058113
  49.2108879  54.8069344  22.8536911  48.9468193  54.3951988  23.6764755
  49.5188332  54.0812569  22.3107433  85.2423782  71.2356262  28.5847416
  85.2891617  70.9290009  29.4902935  85.3849411  72.1802902  28.6440697
  38.2455292  52.7147522  44.6708908  38.1352844  53.4218102  45.3066177
  37.3637924  52.3628120  44.5487862  62.4127159  11.9812088  66.4653854
  62.1690941  11.3914328  67.1788559  62.3479538  12.8571005  66.8459778
  45.4931068  45.5042191  50.9116592  45.6977615  44.9320641  51.6512413
  46.3159904  45.9553146  50.7229424  63.0169334  60.4179840  22.6890430
  63.7508659  60.1953430  23.2617607  62.2731705  59.9401665  23.0561142
  74.4567490  39.2250710  80.9039764  73.6434402  39.3087158  80.4062195
  75.0709534  39.8091011  80.4591293   0.7084315  64.8210449  54.0431099
   1.4799072  65.2357178  54.4292450   0.3090361  64.3377304  54.7663803
  77.5129547  38.2596283   3.2928500  78.2935104  38.5687943   3.7526145
  76.8196716  38.8596611   3.5677123  30.0269375  48.2321396  18.2672176
  30.9278946  48.3038483  17.9519939  29.5922337  49.0155563  17.9302845
  50.5288506  17.6124306  73.0055466  50.6082268  18.4499378  72.5489120
  49.8488998  17.7613735  73.6625977  50.4804955  42.9217834  71.5617294
  50.9838257  42.6732063  70.7864227  50.7874336  43.8032150  71.7741013
  82.1482239   9.1734018  88.3942719  82.7142639   9.5194921  89.0842361
  81.4451904   8.7245750  88.8638840  77.5584412  62.7249832  68.5774994
  76.9767075  63.3065147  68.0879669  77.0191040  62.3969383  69.2970352
  64.6659241  62.0349808  78.2044220  64.2231903  61.4758835  78.8428802
  64.5897827  61.5601921  77.3767624  46.4069519  12.3482752  62.3052406
  47.1798363  12.3347712  62.8697739  45.9428978  11.5378094  62.5150719
  73.6871185  27.4329643  83.7264938  74.3512192  26.8234997  84.0486069
  73.0156555  27.4379978  84.4086533  57.7963066  40.9212723  49.8460693
  58.5444412  41.3916740  49.4783020  57.6451225  40.1983223  49.2372055
  24.3229084  47.6205177  31.9128857  24.4615860  48.2098923  31.1715107
  24.4304924  46.7434196  31.5449753  13.0477982  51.7423058  66.7479630
  12.6371641  51.1620712  66.1069107  12.3600159  52.3654976  66.9820862
  70.5861359  14.7951183   2.5442638  70.3825150  14.3139696   3.3463023
  69.7516174  14.8483095   2.0784562  34.0300636  38.3686180  58.0298157
  33.7535439  38.6810112  57.1683159  34.0881996  39.1604843  58.5644188
  79.1017990  10.4893675  56.3596687  79.2805176  10.3059330  55.4373665
  78.4056625   9.8761053  56.5953217  49.7500648  22.7499065   0.5419928
  49.6183777  22.0894318   1.2221864  49.7797127  23.5803642   1.0170636
  74.2936020   0.9824997  53.6409836  74.1627426   0.8480844  52.7023430
  73.4101334   1.0920684  53.9927063  81.6759491   4.5333672  16.4297752
  82.1649475   5.1156716  15.8483696  82.0428238   4.6987181  17.2982731
  52.0509720  60.6930389  15.3167620  52.9159317  61.0977745  15.2513924
  51.4668465  61.3019257  14.8647814  32.1826668  42.5795822  75.0960693
  31.6210709  41.8371658  75.3189087  32.5097160  42.3778572  74.2193832
  83.1213074  54.8310852  22.2180271  83.2085648  55.1255455  23.1246185
  83.5689926  53.9852943  22.1967697  24.0850735  62.3651237  57.0635681
  23.8932800  62.2033043  56.1398468  23.8579674  61.5453796  57.5025215
  28.0804749  28.3305130   2.6996031  28.2131348  28.5999794   1.7907462
  27.7652721  27.4287682   2.6384888  11.3237152  70.2034302  16.8439674
  10.8585157  70.2673721  17.6780739  10.7787895  70.6927948  16.2276783
  77.8158493  31.0335484  27.2607689  78.0739441  31.6741581  26.5980186
  78.1814499  31.3733635  28.0775299  76.7624969  28.5433826  11.9887056
  76.2830582  27.7170715  12.0485468  76.2647629  29.1493740  12.5375862
  44.6996346  16.2887058  47.7461739  45.5791740  16.0237865  48.0153465
  44.4498978  16.9648857  48.3759689  48.2310524  54.6222839  88.3988876
  47.6913300  54.8942184  89.1411667  48.7809181  55.3829689  88.2111664
  49.5055313  14.8086872  39.7875862  48.8307419  14.2969522  39.3414726
  49.3294220  14.6767969  40.7191582  78.3986588  41.3058968  47.6541595
  77.6786804  41.8860054  47.9018097  77.9847260  40.6213570  47.1285172
  47.4653549  60.7367973  56.8259125  47.5019608  59.9743004  57.4033966
  47.6348114  60.3840256  55.9523773  85.6761780  37.0609932  59.5507965
  85.3800812  37.8896713  59.9274292  85.9294281  36.5312462  60.3067474
  52.9221230  67.9774094  12.8563643  52.5048180  68.8372879  12.8044271
  52.9091034  67.6501389  11.9569416  27.4823933  61.3460045  77.5205612
  27.0719528  62.1633530  77.8028946  26.7662220  60.7110977  77.5054474
  20.5766602  15.1277828  20.9712791  20.6768742  15.9629927  21.4280205
  19.7040443  15.1717806  20.5803356  65.1679077  31.0660458  23.0079365
  64.8491135  31.0591354  22.1054096  64.4042358  30.8277397  23.5335293
  76.9491196  39.9177322  62.7904854  77.4171295  40.2832146  63.5412292
  77.4316559  39.1203117  62.5725021  30.9740677  27.2362614  81.4776688
  30.7918510  26.4385929  81.9744186  31.5344086  27.7550793  82.0548019
  69.0000610  34.0867081  34.5198097  69.6391525  33.3743248  34.5371017
  68.6486969  34.0717049  33.6295586  53.9704819   8.3054037   9.5275478
  53.6120644   9.1509094   9.2575684  54.3178635   8.4618988  10.4056511
  55.6223145  50.7378807  58.5227089  55.3572655  50.0608406  57.9001389
  56.4071045  50.3842697  58.9413910  76.6644897   0.2600984  58.6698036
  75.8219528  -0.0552961  58.3428612  77.2723694   0.1146028  57.9448624
  70.7696381  55.9753838  -0.0209277  70.3263245  56.4967537   0.6483074
  71.7019119  56.1138382   0.1461952  42.7680092  26.4343700  81.3329849
  43.1826134  25.5763206  81.4229279  42.1007538  26.4510632  82.0190811
   5.1071467  24.4890709  20.5266361   5.1833091  23.9670944  19.7279053
   4.8773036  23.8551579  21.2060184   9.8292580  50.3269424  19.2689800
   8.9360304  50.1818886  18.9569931   9.7521801  50.3300171  20.2230682
  36.9605598  48.5266800  49.7323723  36.1646118  48.1581764  50.1156540
  37.6277733  47.8551483  49.8741570  27.1744728   0.7319181  28.4720020
  27.0853939  -0.1155434  28.9080143  27.9308796   0.6260967  27.8950424
  61.0558205   1.2997385  43.5889320  60.2406273   1.4903958  44.0529823
  61.2579803   2.1081252  43.1178970   9.9747534  70.5421524  49.0072403
  10.7817450  70.0327301  48.9331818   9.8370886  70.6371002  49.9497185
  32.9608727  66.9552612  74.9791489  33.8288155  67.0915680  74.5992355
  33.0300827  66.1196899  75.4409332  58.7849083   9.3354559  10.5259542
  59.3348618   9.9101810   9.9935331  58.6222191   8.5750933   9.9677315
  58.1833076  17.7819805  60.7488823  58.2884407  18.6964493  61.0114174
  57.2379646  17.6680603  60.6510010  54.1690369  52.6931496  81.5640106
  53.7390404  53.2714005  82.1940613  54.3542366  51.8950768  82.0589981
  62.8144760  18.1356812  76.1113815  63.3345604  18.9044437  76.3453674
  62.1710167  18.4639339  75.4833374  75.6848450  38.4150200  35.4191780
  76.2164917  38.1324539  34.6750450  76.0670929  37.9636497  36.1717644
   8.4817123  19.9620075  87.8054657   8.4555178  20.7725620  88.3139420
   9.1365023  20.1260567  87.1268158  14.2557640  54.1528168  64.1272278
  13.8463879  54.5923309  63.3819313  14.3857908  54.8473206  64.7729797
  85.5219040   8.1432133  84.7285614  85.0007935   8.6082926  85.3830719
  85.0220337   7.3476791  84.5455780  82.0054169  19.0685329  30.5157299
  81.4539948  19.2545834  29.7557621  82.4490204  18.2495480  30.2950287
  82.6585083   3.3709905  71.0353165  83.0406342   2.5338113  71.2986450
  82.2596893   3.1947682  70.1831894  64.5226364   6.3430581  37.5951767
  64.4193420   7.1343842  38.1237259  65.4264526   6.3803658  37.2821960
  15.1733999  13.0904465  13.7181807  15.3297501  12.2539062  14.1563435
  14.6348076  12.8663454  12.9592810  85.3920822  31.7189426  47.0020638
  85.1374435  32.3960762  46.3752632  84.7439880  31.7857628  47.7033005
  74.1934967  42.2786903  68.5876007  74.9033813  41.7669525  68.1997681
  74.5965195  43.1183243  68.8085556  52.4548340  26.5378933  42.9681778
  52.0460281  26.9872265  43.7079124  53.3944206  26.5987568  43.1405411
  25.2149239  53.5565872  80.7699890  25.5783310  54.4131699  80.5454178
  24.2976284  53.7329178  80.9790573  39.8800735  37.4847183  21.9499855
  39.4911728  36.7123718  21.5395260  40.2188988  37.1662941  22.7866669
  25.9818802  52.9327240  70.9003448  25.6115780  53.6812057  71.3681946
  26.5032101  53.3228798  70.1987610  70.4839249  15.1541157  15.1565981
  69.7248688  15.2778749  15.7264624  70.3685608  15.8006277  14.4602184
  72.7337265  31.0748348  71.9199219  72.8362350  32.0264778  71.9097137
  73.4120636  30.7544785  71.3253937  60.6010056  57.5959167  36.5555267
  60.5752373  58.4614487  36.9634781  61.4067345  57.1990433  36.8864746
  20.0643234  52.0347519  68.1046677  19.6068096  51.2112389  68.2741928
  19.6964455  52.6484146  68.7405243   7.8783216  64.8469315  64.5601501
   8.5129366  64.3296432  64.0642624   7.1285501  64.2625961  64.6725082
  66.6110306  57.3856354   8.5127039  66.7098694  56.8182831   7.7481327
  67.2989120  58.0437698   8.4131145  59.2580223  40.4192963  42.5966988
  59.4443130  41.0456276  43.2961502  58.4659348  39.9661598  42.8856544
  61.2216339   7.2299285  53.2481804  60.6739464   6.9506588  53.9818497
  61.9040260   6.5611572  53.1905365  40.5480385  47.5096397  51.9696045
  39.7694054  47.3248329  51.4444351  41.2653694  47.0984764  51.4873009
  19.0929508  51.3448410  12.0140705  18.2383118  51.1536827  11.6276999
  19.0018272  51.0937309  12.9332399  15.4291697   8.7267303  10.7170601
  15.8781834   9.5619726  10.5867167  14.6095886   8.8169699  10.2308741
  20.7584858  70.6561432  26.6008530  20.9938831  70.5090103  27.5169163
  20.4767895  69.7975616  26.2850723  62.5752602   9.3239775  10.3003168
  61.9498787  10.0476456  10.2624588  63.4266701   9.7484694  10.4058695
  59.0057297  55.7830315  12.8734121  58.4666824  56.2744637  13.4932156
  59.3827744  55.0736732  13.3938751  61.0908279  26.2101574  32.6086197
  61.2423134  26.3521080  33.5430336  61.9173050  25.8531151  32.2835197
  80.4958038  35.3132324  64.3686523  80.6508636  36.2494164  64.2431641
  81.3511505  34.9593239  64.6122971  34.4456215  29.5444412  83.7911911
  34.2028084  30.4070759  84.1275482  35.3904762  29.6002750  83.6484833
  55.1376724  68.6228790  67.9968872  54.6860085  67.8020554  68.1930618
  54.4565468  69.2923355  68.0611343  76.9156647  19.8777580  25.4968243
  76.0752335  20.2639408  25.2502880  76.7224731  19.3645306  26.2813683
  11.9403639  46.2665062  54.4896851  12.8178911  46.6304359  54.3725014
  11.4790602  46.9186783  55.0170441  34.1846390  58.4483757  40.0154037
  33.4752693  58.9929047  39.6740608  34.9394493  58.6684227  39.4694481
  46.9527512   3.7772746   9.7775612  46.2610054   4.4145308   9.5997305
  47.6009941   4.2633958  10.2871656  76.5409393  27.6464882  64.6295319
  75.8416367  28.2841301  64.4859161  77.2086563  28.1290035  65.1169357
  30.8189888  43.0020714  11.6434526  30.5716515  43.5329552  10.8863411
  31.7478390  43.1916962  11.7757845  81.1218719  43.0161324  22.9094028
  81.4650269  43.6567230  22.2864094  80.3781052  43.4565544  23.3205853
   8.2063742   7.0940762  60.4119568   8.4630299   6.2501855  60.7837181
   8.3617554   6.9990282  59.4722443  72.2535248  57.9473877  82.7912674
  73.1900024  57.7609901  82.8582993  71.8280563  57.1180916  83.0091629
  67.7405090  12.6371527  40.9379501  67.2029266  12.2016687  40.2764435
  67.3958054  12.3207006  41.7729797  53.2859383   4.4190831  28.1371784
  52.5727005   4.0557547  27.6122856  53.2684708   3.9118905  28.9487724
  56.4041748  59.4574242  69.5420380  57.1304512  59.7110252  68.9724350
  55.6924667  60.0504150  69.3010712  76.9606018  45.4181786  62.0194664
  76.1789627  45.3514633  61.4709969  77.6481247  45.7121887  61.4218941
  81.7022095  52.9378967  68.6860046  81.6924591  52.7048759  67.7576523
  80.7979813  53.1843681  68.8805847  65.2352753  17.0117531  56.4724388
  64.3304672  16.9218502  56.7715492  65.7639923  16.8024998  57.2424393
  78.9500580  40.5375786  82.3629456  78.0517578  40.3384743  82.6268539
  79.3240738  40.9976311  83.1144104  43.6162415  44.8713799  65.3545074
  44.2363091  44.2001724  65.6395111  44.0239601  45.2612419  64.5811996
  59.4813309  63.5001259  61.4681778  58.9906158  63.7322235  62.2565689
  60.3612709  63.8430901  61.6241112  84.6710281  12.6153488  67.5683594
  83.9453812  13.0064650  67.0818405  84.2489548  12.0423870  68.2085114
  80.4316254  46.4947701  59.8032150  80.7835083  47.3844643  59.8323936
  79.7318497  46.5352325  59.1513672  83.5201416  45.2737389  63.1649971
  83.6817398  44.3769379  62.8719673  84.3497772  45.5521469  63.5528450
  68.2467270  61.3957558  35.4682236  68.0332489  60.9840508  36.3055763
  67.4726257  61.2486534  34.9247513  59.2422142  29.6474552  76.5886917
  59.8150826  29.1464920  76.0081024  59.6018257  30.5343990  76.5730972
   2.4388707   2.2428899   0.5124416   1.9058424   2.6387160  -0.1770760
   3.3419292   2.4123261   0.2440977  56.9236908  16.2859097  14.9216766
  57.3774376  16.3573895  15.7614603  56.0109329  16.1181831  15.1561308
  71.9155884  22.4456997  63.8872871  72.1973724  21.7037640  64.4224167
  70.9607620  22.3803177  63.8709984  77.5373383  19.9562111  46.5562019
  77.6705856  20.8282051  46.9278259  78.1331329  19.9211807  45.8078537
  22.8276997  19.0878639  15.7023745  22.0675468  19.2399673  15.1408911
  22.4971867  19.2127514  16.5919781  49.3277893  64.0801544  27.6561909
  48.4162025  63.8506126  27.8366108  49.4127846  63.9949989  26.7065811
  21.1016216  40.8432045  66.5075226  21.3083992  41.7593880  66.3228989
  20.2058830  40.8630219  66.8444061  58.6909294  70.4936905  61.4472504
  59.5613670  70.8898315  61.4877434  58.2882423  70.7139206  62.2872353
  14.6176958  43.6552887  65.5038528  13.8399811  43.8464241  64.9795837
  15.3433075  43.7004204  64.8812103  52.1884041   2.2969348  75.9470596
  51.2644653   2.5065296  75.8105164  52.6194267   2.5771635  75.1396408
  50.1832123  57.9485588  88.6181717  51.0324821  58.3703270  88.7488556
  50.1372147  57.7897339  87.6753616  72.8419724  23.7093201  36.9196434
  73.4083252  24.4757481  37.0094070  72.7586975  23.5824108  35.9745560
  73.1381760  15.2620935  16.2720718  73.2135162  14.6779156  17.0265865
  72.2577667  15.1020527  15.9322243  45.1977386  62.0930595  43.0940094
  45.3433266  61.5043030  43.8345528  44.3065834  62.4193268  43.2190170
  13.9652586   4.6478658  11.0311575  14.7073555   5.1564045  11.3581324
  13.8506832   4.9446955  10.1283865  60.8318787  64.7777557  38.5215912
  61.5307312  65.3810730  38.7742844  60.0760155  65.0569000  39.0382996
  36.2757072  10.8880424  50.8023872  35.3831787  11.2272568  50.8699226
  36.2037964  10.1413383  50.2078362  25.7661419  54.4446640  19.9734077
  26.7227154  54.4366913  20.0070896  25.5543327  55.1356850  19.3458233
  10.2544641  61.6937447  21.2000713  11.1010551  61.2715225  21.3458309
  10.4306927  62.3611641  20.5369549  31.1948509  59.7950630  65.3896637
  30.3518982  60.1443481  65.6789093  31.0027447  58.8961372  65.1227188
  50.9033699  41.9784088  77.9278870  51.2037277  42.8822327  77.8324127
  49.9659996  42.0161743  77.7377701   5.9031920   6.5897055  69.1051178
   6.6937709   6.7945299  69.6043854   5.7185373   7.3882623  68.6107101
  68.6016464  60.1497879  43.4982643  68.5540314  59.2013588  43.6184692
  68.3188171  60.2912064  42.5948029  25.5943623  66.3440399  69.1581039
  24.8740616  66.0028152  69.6881638  26.2048950  66.7159271  69.7946396
  70.0455475  60.7628136  30.3597183  70.9682083  60.8025475  30.1080322
  69.8573151  61.6304359  30.7175369  13.6784887  48.7282944  23.3961544
  14.1367941  49.0366859  22.6144371  14.2836380  48.9088936  24.1154671
  73.5642700  10.9256725  69.3644180  73.0435181  11.3148537  68.6618652
  74.3884735  10.6804228  68.9439697  39.8133392  22.1720066   1.7427683
  40.6044922  22.7046375   1.6614614  39.0984726  22.8078861   1.7720671
  76.8003540   0.8623022   5.3837695  77.5823975   0.4645646   5.7664404
  76.8773804   1.7928503   5.5944328   7.5151958  36.1563835   8.2577438
   7.6998696  35.8955612   7.3554702   6.6105189  36.4683762   8.2364807
  78.6589890  66.8101730  14.4349976  79.1307983  66.4618378  15.1914978
  79.2854843  67.3969498  14.0114079  14.2425013  40.9490509  45.7152061
  14.9001274  40.7392616  46.3783417  14.7427387  41.3320045  44.9945564
  46.1948929  68.3255463  74.5210953  45.7776299  68.3625565  75.3817673
  47.1214714  68.1775970  74.7102966  59.9922523  67.2815094  66.0217819
  59.6474609  67.0133514  65.1700516  59.2157898  67.5057297  66.5346756
  46.9747353  71.6936264  26.2633438  47.9083443  71.8790665  26.1622467
  46.8337364  70.8922958  25.7591515  78.8377838  65.4343262  58.2196388
  77.8926697  65.5456467  58.1166916  79.0622253  65.9784851  58.9744568
  75.5056763  51.4206276  62.3179970  75.1311188  51.5382919  63.1909752
  75.8373871  50.5227432  62.3187218  38.8739700  59.4500694   9.6806507
  38.8042336  59.7994919  10.5690603  39.5229492  60.0092545   9.2536001
  63.4268417   5.2690496  79.8311081  63.1315994   6.1793756  79.8119049
  62.7626343   4.8126793  80.3476181  56.1605034   0.0137322  70.8131027
  55.6733437  -0.2950577  70.0491943  55.4862785   0.3222310  71.4184875
  49.6706390  34.2936668  26.3043690  49.2572975  34.4153595  27.1591034
  49.5173378  33.3727379  26.0931244  52.4494476  64.3917084  71.7167816
  53.0028992  65.0908661  72.0647736  51.7109261  64.3461609  72.3240280
  72.1569901   9.6387157  71.5848083  72.8169403   9.9122896  70.9477310
  71.6593552   8.9553976  71.1357346  18.2378197  10.6031446  24.5924511
  18.3229313  10.4429245  25.5323009  17.5104465  11.2211027  24.5197334
  67.2375793  31.0383720  71.4663696  66.5241928  30.5919552  71.9224548
  67.8668518  30.3446312  71.2689362  67.6985245  35.3466873  69.1160812
  68.4048386  34.7633324  69.3936539  67.8395233  35.4633522  68.1765366
  58.2319565  43.9556122  10.8445034  57.6966362  43.1707840  10.9615660
  59.0512695  43.7564735  11.2976103  51.5658188   5.5855250  33.2637787
  52.4863129   5.3261890  33.3046188  51.3536644   5.5695429  32.3305206
  69.2521744  14.5612602  59.9752998  68.6354370  14.5790825  60.7071075
  68.8835068  13.9208050  59.3669167  81.3155975  39.6320915  14.2626562
  80.8091507  38.8532372  14.4931383  82.1647110  39.2911415  13.9816084
  28.0669498  62.4181595  69.9200363  27.8683681  61.6538620  69.3790665
  27.2102737  62.7781105  70.1497574  24.3624554  36.2716522  70.4918442
  24.0909710  35.8287849  69.6878586  24.4953575  35.5636215  71.1221313
  44.0326843  45.0350914  38.7264442  43.5989685  44.5516891  39.4296150
  44.4622154  45.7673035  39.1687126   4.9495397  48.3520317   0.3584236
   4.3985744  47.5786896   0.2375645   5.0886698  48.6877556  -0.5271074
  61.9055901   0.9043697  18.4992161  61.9603310  -0.0450767  18.3906498
  61.5993843   1.0254087  19.3980045  54.9534264  29.6316090  14.0296984
  55.7571907  29.4518108  14.5174103  54.3056984  29.8385487  14.7033901
  57.2492256  44.7192688  65.3781815  56.4080925  44.3061447  65.1830978
  57.0565414  45.6566429  65.3991013  21.2942677  48.7881203   8.9752264
  20.6413898  48.2098465   9.3696690  20.8909855  49.0829544   8.1587296
  63.2548447  51.7624321  12.1980782  64.0624695  51.3576050  11.8817139
  63.5198212  52.6385803  12.4780569  54.4642868  54.8327980  65.8252335
  53.8478241  55.3062668  65.2666321  54.6470642  55.4362450  66.5454254
  72.1807404  25.5946045  54.9028053  72.9198761  26.1289692  55.1932640
  72.4275970  24.6989231  55.1331253  49.9837494  20.4270725  17.1742744
  50.0293198  20.6575737  18.1021881  49.2763290  19.7844124  17.1215897
   1.0787065  14.7598095  81.7456970   1.8877959  14.4918957  82.1813889
   0.4634565  14.9208736  82.4610672  21.9283047  34.5850410  39.4476776
  21.3618507  35.1933136  39.9224052  22.1358509  33.9029541  40.0863571
  52.6242828  49.7131958  47.8631592  52.7724762  48.8351097  47.5121155
  52.8399887  50.3003502  47.1386223  50.2768211  19.9616356  26.2958946
  49.5772362  20.3038998  25.7394199  50.9624100  20.6284294  26.2560921
  41.2620430  47.6481018  43.4960518  41.4807739  47.3821602  42.6029320
  40.3290710  47.8592720  43.4613762  59.8403931   5.1987972  45.3395767
  59.9072952   4.6062870  46.0883675  60.7462196   5.4339180  45.1385155
  62.5770073  69.0572586  45.0281601  62.8236771  69.8252716  44.5128517
  63.4034500  68.6026611  45.1911354  49.9847221  39.2114143   2.5947134
  50.1685371  39.1441040   3.5316837  50.0669174  38.3149147   2.2695007
  77.9473267  21.5607586  60.5855064  77.9729004  20.7460232  61.0872879
  77.9773865  21.2798347  59.6709518  47.6859627  45.8000755  23.8894672
  46.7772942  45.5515022  24.0590820  47.6248398  46.6548958  23.4631119
  32.9664040  35.1560974  76.0895844  33.7856560  35.5007896  75.7342834
  32.3386116  35.8703423  75.9802017  26.8177757  56.0758095  73.4602127
  26.0219479  55.6604500  73.1279984  26.5530586  56.4703407  74.2911758
  17.5424881  26.3836155  35.0695038  18.0903072  26.6395321  34.3274574
  17.0425739  27.1719475  35.2812767  52.7641792  62.7193871   7.1391764
  52.2323036  62.7536507   7.9342642  53.4431686  62.0731087   7.3328919
  27.3853855  43.1688461   9.2934780  26.7560139  42.8325081   8.6555119
  28.2409744  42.9520302   8.9230852  76.9900436  59.0460892  30.9012222
  77.1901093  59.0063934  31.8364391  77.0395279  58.1366081  30.6068954
  80.6408539  60.5262222  86.3642883  81.2213211  60.4235458  87.1184387
  81.1292419  61.0859070  85.7605820  78.5665665  25.2450008  23.4381962
  79.0823135  25.6693592  22.7525139  79.0094299  25.4827614  24.2527981
  28.3863220  58.4500122  62.0156212  28.4475307  59.0348740  62.7708817
  27.5094929  58.0709610  62.0766640  62.1581497  34.4421082  38.5654678
  61.2735863  34.8065758  38.5962753  62.0490952  33.5828438  38.1580315
   3.0653067  62.0860329  50.2381096   3.3808684  62.8350563  50.7436943
   3.5359075  62.1429977  49.4065323  16.0497265  67.3676682  10.5643301
  16.1300716  66.4598999  10.2715197  15.7801180  67.3008881  11.4803457
  85.1928940  21.6436615  34.8561096  86.0286789  22.0814896  34.6948547
  84.8578262  21.4381981  33.9833260  57.6553688  40.0333138  52.4426842
  57.6277695  40.3391113  51.5360680  57.0112000  39.3261185  52.4766350
  45.0265312  30.0718517  31.2689190  45.1644974  29.2390461  31.7201729
  44.1514130  30.3490944  31.5400887   1.4895988  47.4869156   8.2684536
   2.1481173  46.8653641   7.9581947   0.7732794  46.9377708   8.5871334
  17.8511124  68.0779648  86.2713165  16.9301682  68.2440491  86.4725800
  18.3204861  68.3408813  87.0630264  71.8006363  36.7383881  54.8950043
  71.1759720  36.9478264  55.5893860  72.6590042  36.8783607  55.2948036
  72.1659546  22.1853161  61.1631966  72.1830139  22.9840603  61.6904068
  71.6558762  22.4207268  60.3881912  16.9800491  37.0041466  70.3021698
  16.6881924  37.2944412  71.1663284  16.9746380  37.7985382  69.7681808
  21.9900608   4.3731804  52.7361107  22.4438362   4.6953473  51.9573135
  22.6922550   4.1033230  53.3279991  38.8899269  65.7270203  82.1630249
  38.8526611  66.3909836  81.4745560  38.7336617  66.2127228  82.9729004
  80.9773483  45.1153831  40.5333939  81.6515808  44.7806816  41.1246758
  81.0972672  46.0649529  40.5464363  82.1627579   2.9908497  11.2303410
  82.5432892   2.2436538  11.6919947  82.1330185   3.6876185  11.8859787
  49.8997917  19.1077271   9.0791655  50.7153130  18.7435665   8.7348623
  50.1793442  19.7190132   9.7606430  31.9226532  45.2816277  79.0842514
  32.2755089  45.2394180  79.9730377  32.5750465  45.7788506  78.5909119
  39.6335297  44.1495094  24.7606030  39.6017036  44.1009827  25.7160416
  38.7159271  44.1984482  24.4925690  32.0629234  45.4677544  60.8931084
  32.6444817  46.2265892  60.8463020  31.6078396  45.4624634  60.0510254
  47.6632233   9.8205385  28.6709633  48.2537727   9.1757011  29.0604095
  46.9687805   9.2978935  28.2699375  28.9281654   4.7501254  87.7109451
  28.8404160   5.4445338  88.3638840  29.1369591   3.9672062  88.2205276
  13.5792923  51.2587318  10.5592499  13.3230705  50.8336487  11.3777151
  13.6150274  50.5467033   9.9205227  31.2115707  19.7714252   7.4195600
  30.5632458  20.4391384   7.6433158  31.5264702  20.0246143   6.5518246
  84.7309494   7.4049082  39.0852852  84.6714172   7.7864995  39.9611130
  83.8975983   7.6270704  38.6700821  45.3352661  67.2427979   4.8896437
  46.1332970  67.5870361   5.2907424  45.6452866  66.7183533   4.1513510
  11.1855278  54.4919586  39.4912834  11.6298018  55.2423630  39.8859291
  11.2962542  53.7859688  40.1281128  83.0850754  35.2206573  61.6450615
  83.5321426  35.7278709  62.3226280  83.7926483  34.8298988  61.1323471
   5.2171073  48.1715355  84.3147354   4.3631983  47.8072433  84.5478897
   5.0861902  48.5518112  83.4461288  34.4407654  38.1799812  66.2997742
  34.8077354  37.4432220  66.7883987  35.1062050  38.3875465  65.6437759
  65.5882645  32.6083031  37.5064697  65.6789703  33.1045418  36.6929893
  64.9106445  31.9593639  37.3168793  60.3218880  35.4217949  31.4680977
  61.2049751  35.7890892  31.5066566  59.9313393  35.6479874  32.3122177
  15.4434776  39.1540756   0.3527420  15.0339527  39.1012535  -0.5108151
  15.4089155  40.0838165   0.5777425  26.7145691  27.6734409  13.8670769
  27.4561977  28.2727528  13.9510069  26.3888435  27.8183823  12.9787483
  73.0470734  26.4023952  38.8001213  72.5679703  25.9225750  39.4757462
  73.9283371  26.0293293  38.8207664   8.9372263  57.2850075  31.6783314
   8.8260174  58.2347984  31.7203293   9.3993444  57.0620079  32.4863853
  23.3761425  33.7463646  22.9353657  23.1148624  33.0298996  23.5138493
  24.0950069  33.3853340  22.4165955  13.7827969   3.8202670  60.3219337
  13.8818712   3.8487089  59.3703003  12.8737440   4.0774665  60.4758949
  64.1707611   5.2440929  75.1292648  64.4839859   5.3914695  74.2368546
  64.9053802   5.5011873  75.6864624  19.7309761  56.8600922   5.7323084
  20.4357815  57.4248047   5.4151621  20.1241741  55.9885292   5.7771006
  66.0739517  70.9514008  61.1788445  66.9656830  71.2990189  61.1935425
  65.8969498  70.7075272  62.0873756   5.5161157  60.0593376  30.4611855
   4.7465248  60.5312729  30.7793694   5.6423483  59.3525734  31.0942574
  63.5610886  34.9690208  40.9050674  63.1020851  34.5018768  40.2069817
  63.8884239  34.2778816  41.4807472   7.6195583  25.1369495  86.6236649
   8.3541727  25.5253658  86.1485825   6.9341178  25.8043327  86.5919876
  81.2643356  25.5365639  24.7640820  81.4393539  24.5971584  24.8199158
  82.0895844  25.9164505  24.4626293  27.3554192  53.7336502  10.1545277
  26.4299736  53.7715378  10.3960810  27.4172363  52.9864502   9.5594616
   6.6932306  47.3030548  12.5183449   6.5232911  47.3801689  13.4571772
   7.6250467  47.5018349  12.4264898  22.4396610   1.8616302  66.4073029
  21.6667919   2.3955450  66.2233505  23.1781216   2.4096801  66.1416931
  12.2409077  46.9699020  21.8081169  12.5684633  47.7286682  22.2910385
  12.5085630  47.1283607  20.9028645  55.0191879  64.3710861  62.3309898
  55.7234077  64.8946838  61.9486961  54.9214897  64.7133865  63.2195358
  37.9088669  55.2237511  29.4460087  38.2122803  55.2569580  30.3532410
  37.3148384  54.4736481  29.4194279  64.4261017  13.3531551   7.5211320
  63.5786476  13.0911722   7.1613889  64.2089081  13.8349419   8.3192167
  61.4231110  71.5103455  66.6624146  60.9960594  71.1796494  65.8721619
  62.0186386  72.1898193  66.3463593  53.9190826   0.6282097  77.4492722
  53.3161850   1.1352232  76.9055099  54.0892792   1.1896108  78.2056427
  12.5622683   1.0738962  50.8918800  11.9460096   1.7909422  51.0412178
  12.9823637   1.2886671  50.0590401  68.8454132  71.5001984   7.1860046
  67.9385681  71.7995987   7.1210699  69.0756531  71.6313171   8.1058035
  68.5500565  11.0522375  29.3875217  68.3939209  10.9664221  30.3279934
  68.1949844  10.2468681  29.0113125  10.3086910   0.3945824  27.9739418
  11.1569605   0.0402545  27.7072525  10.5247583   1.1767188  28.4816895
  16.6159115  70.8293381  25.8805370  16.6730175  71.7124405  25.5156975
  16.6620922  70.2519226  25.1185074   7.6408458   7.6035566   3.4510787
   6.7481308   7.5946064   3.7963498   8.1899414   7.3742585   4.2008443
  50.5176811  45.1446571  86.5978851  50.9313431  44.4520226  87.1130219
  50.8792877  45.9563217  86.9537964   9.3717089  37.3175964  10.4013653
   9.5278482  36.6718521  11.0904713   8.9822884  36.8149376   9.6858807
  71.9735565  14.4731026  10.2464638  71.4943771  14.0519199   9.5328617
  72.4316483  13.7553587  10.6837616  37.9720154  60.0530663   1.9697073
  37.8410110  59.8702431   1.0393069  38.8960724  59.8571281   2.1245065
  47.3683281  16.6578598  10.9726324  47.1869850  17.5931416  11.0653448
  47.9027672  16.5948277  10.1810284  50.6434746   6.9223824  35.4767113
  50.0564308   7.5161433  35.0086746  50.9973984   6.3497705  34.7962074
  46.9084587  48.1777306  84.6368561  46.6992226  48.5330963  85.5006714
  47.0094299  48.9487724  84.0787125  68.5479355  49.2210083  45.7789383
  68.0421371  48.6874962  46.3919334  67.9096680  49.8310738  45.4092522
  82.5228271  63.0876656  72.3234711  82.4274521  63.2621880  73.2597809
  83.0086899  62.2640038  72.2816315  34.0348206  65.5695343  16.3434505
  34.9076843  65.5244217  16.7337132  34.1936760  65.5597763  15.3995743
  59.8434830   7.6139007  40.9640846  58.9261551   7.8579283  40.8408394
  59.8727570   7.2262211  41.8387718  86.3520279  26.8330555  56.7205696
  87.2875290  26.7145920  56.5561562  85.9233627  26.4340649  55.9634094
  75.7494278  55.7734756   7.5655479  76.4130249  56.0520592   6.9344673
  75.5104752  54.8893356   7.2872744  28.2815609  47.8121452  37.7579994
  27.5456448  47.9587708  38.3522720  28.9956913  48.3306923  38.1286201
  51.7457962  29.1837749  39.3369560  52.5275383  29.3760662  38.8191376
  51.0871811  28.9289818  38.6907845  72.2067719   7.5875053  41.0918465
  72.2602310   7.2397332  40.2016602  73.1175537   7.7363768  41.3459206
  82.1285706  40.9563255  11.5308647  81.7286835  40.9936600  10.6619978
  81.3890610  41.0007858  12.1369858  83.2119751  67.7798233  54.7036705
  82.9543228  68.5267334  54.1633339  83.7096710  67.2161102  54.1114197
  45.9961433  55.8838234  57.5555382  46.5291290  56.6035080  57.8934898
  46.1773834  55.1533279  58.1469460  72.4500122  34.0825729  75.2496948
  72.4726944  33.1280861  75.3180389  72.5953827  34.3902779  76.1443558
   9.0685854  56.6628876  41.0856857   8.3467646  57.1944351  41.4213409
   8.9849710  55.8276024  41.5456200  60.4953194  35.9111137  77.1255722
  60.8199615  35.5458221  77.9486160  61.1252022  35.6164780  76.4677963
  23.0084152  68.4855804  33.2509308  23.7726440  68.1465607  33.7170334
  22.8948040  67.8887634  32.5112495  11.9430494  42.5430374  46.0180130
  11.3269119  41.9132118  45.6439400  12.7665024  42.0600357  46.0877953
  15.9391003  17.6241512  16.2893867  16.1083450  18.0358105  17.1368084
  15.1732616  17.0702763  16.4408607  78.7081223  48.7424049   9.1263800
  79.6369324  48.5902786   9.3007498  78.2651215  48.4630890   9.9276075
  59.9771843  19.5623188  84.0988312  59.3398819  20.2765064  84.0952377
  60.6401024  19.8360481  84.7327423  83.6294098  59.4121895  16.9312973
  84.0507584  58.5933075  17.1923161  84.2715607  60.0898857  17.1424904
  74.3426895  57.4183884  63.7296410  74.7784271  57.9754715  63.0846443
  75.0549240  56.9365425  64.1500778   4.8056822   3.5452774  59.5573082
   4.7881832   4.3970361  59.9936943   3.9389272   3.4619765  59.1597824
  80.4913406  10.8421164  29.2921715  81.0803986  10.0911798  29.2190857
  80.9299622  11.4317932  29.9054623  28.3403072  67.0958786  81.0227966
  27.9805183  66.2766266  80.6827850  29.2582722  67.0850601  80.7517700
   9.0675936  36.6743164  38.4809303   9.2201366  35.8143082  38.0893364
   8.7821436  36.4834251  39.3744125  11.0965691  53.9969597  45.3796959
  11.5080738  54.8269691  45.1389122  10.3662968  53.9052658  44.7677078
  53.7502785   2.1470139  38.2556190  54.6923790   1.9779633  38.2655907
  53.3604050   1.3518965  38.6189651  84.5401230  24.9921761  71.5355606
  85.3058090  24.6929264  71.0452499  84.5479279  24.4670582  72.3358307
  58.0334053  52.9674187  67.8515701  57.1022987  52.9553909  68.0732346
  58.1129837  53.6534348  67.1887894  27.8389225  25.6989231   1.8882153
  28.7727528  25.7275066   1.6799461  27.7210941  24.8668633   2.3465014
  71.6245804  53.9231491  59.1597023  72.3560791  53.3191643  59.2875519
  72.0226288  54.7928352  59.1976089  39.7683067  54.5907249  64.3391571
  40.7158966  54.5447464  64.4664230  39.6252251  54.2189560  63.4687843
  77.8822098  26.1666317  59.8524284  77.5232697  26.7929058  60.4810562
  77.8712540  25.3291473  60.3158188  70.8839722  28.3922157   3.7600763
  71.2115936  29.2394829   4.0617952  69.9759293  28.3653412   4.0616856
   7.7477522  11.0260496  86.1906891   7.8416290  10.0932922  85.9973450
   8.2602158  11.4642448  85.5112762  26.1022682  56.2098389  67.5968018
  25.9470215  55.5478821  68.2705612  25.5827789  55.9162331  66.8483658
  70.3288116  60.6255035  61.1639633  70.8785858  61.4090767  61.1634979
  70.9240494  59.9154396  61.4042473   9.7449913   4.0534234  52.0432892
  10.6691351   3.8534760  51.8942528   9.4551735   3.3921089  52.6716995
  47.8481064  64.7004623  47.7126732  48.0818710  65.5775452  48.0164909
  48.3462181  64.5866928  46.9032440   2.4606986  33.3379745  18.5807114
   1.6552441  32.8786850  18.3429527   3.0000594  32.6711922  19.0058270
  24.9090080  39.0542068  10.8224220  24.8135834  38.8387222   9.8946867
  24.0668125  38.8177986  11.2110767  86.9238358  41.9994774  57.2517242
  86.2929993  41.8573875  56.5459709  86.3886871  42.0574341  58.0432396
  15.0888519  53.1035995  32.6158981  14.5831127  53.8738899  32.8749580
  14.8957672  52.4523773  33.2903328  31.2441540  54.8599510  42.9489899
  31.6546307  55.4525261  42.3192329  30.7934799  55.4387474  43.5639076
  50.1767502   9.1396961  15.0329313  50.7406120   9.7680349  14.5818424
  50.1197662   9.4697142  15.9296322  83.8796768  59.6102562  41.9324036
  83.0615616  59.3136444  41.5337296  84.4984512  59.6561432  41.2035370
  37.7283592  32.3308563  48.4471054  37.4953766  31.8232574  49.2244682
  38.6564789  32.1428337  48.3075714  83.2729568  64.4631577  50.7923279
  83.4108200  65.4039993  50.6825600  83.0043030  64.3654327  51.7058411
  79.7417068  52.7589989  27.7882977  79.4089661  52.4062004  28.6135540
  78.9620438  53.0733185  27.3305092  41.2506142   4.1146345  37.5468025
  41.7541275   3.6714466  38.2296600  41.7295952   4.9275188  37.3854675
  75.4927902  30.2198601  13.9817228  74.5386887  30.1490192  13.9516363
  75.7698746  29.4894161  14.5348129  39.8212013   6.7028627  17.6686878
  39.9077644   6.7501154  16.7165813  39.2072906   7.4036169  17.8884430
  37.4660492  46.6542320  56.3410225  38.1942940  46.0671272  56.5439949
  36.7051620  46.0774536  56.2731361  49.0166626  19.3518715  80.2297592
  48.4171906  18.8231640  79.7031326  49.6282578  19.7245808  79.5947189
  20.4086304  53.5826530  14.7380648  19.6551342  53.0138130  14.8958483
  21.1267376  52.9804535  14.5433531  59.4714432  57.2256279  48.3529701
  59.2035446  57.4895859  49.2331886  60.0976295  56.5159187  48.4959221
  55.2238503  49.6052017   2.7305498  56.0321465  50.0819206   2.9192989
  54.6771889  50.2364311   2.2626412  82.6499481  62.9421539  14.0832605
  82.8285980  62.9637871  13.1431284  83.3700867  62.4307671  14.4521990
   8.2069607  62.2097206  10.6164427   7.8226109  62.5462227  11.4259319
   8.1084089  61.2598190  10.6813059  17.6057968  11.8879919  78.7650223
  17.2371483  11.6006451  79.6003418  17.3231506  11.2231112  78.1371078
   9.2115030  50.7058945   5.2720089   9.5568390  50.5225601   6.1457152
   9.8961239  50.4031143   4.6754761  18.2138329  51.6796608  30.4725323
  17.7442741  52.3885307  30.0329323  18.6177864  52.0959930  31.2339249
  52.4714355  15.2764673  18.0268230  52.6543236  15.9435787  17.3651981
  53.3043327  14.8191500  18.1424561   7.3706403  13.0484114   4.4965677
   7.7735429  12.1801996   4.4861083   6.6271925  12.9746761   3.8981698
  41.8936310   2.1077223  34.2564240  41.2846794   2.6219049  34.7865448
  42.7609253   2.4007745  34.5359726   0.5792805  29.7244282  71.1985550
   0.5217932  30.6017799  70.8201675   0.7242757  29.8754520  72.1325836
  23.2297173  57.0030670   2.1986279  23.6738319  56.9373512   3.0440125
  23.4832020  57.8621483   1.8610510  66.1612473  15.7013788  27.0085678
  66.5341034  14.8866501  27.3453560  65.8090134  16.1413879  27.7822323
  60.8695831  15.4496422   3.0396760  60.8987122  15.1994467   2.1162119
  60.9784241  16.4006157   3.0337226  51.5614662  39.5870628  43.6482811
  50.7325706  39.1242867  43.5257759  51.3589973  40.4996452  43.4422913
  67.2560043  44.7757339  76.6047211  66.4538651  44.2877884  76.7910461
  67.9580078  44.1350937  76.7187500  62.0799980  24.5675259   7.5479226
  61.2947121  24.9886417   7.1983294  62.5088501  24.1866550   6.7815967
  60.4213524  58.7405128  14.8228130  59.4791756  58.8128090  14.9754791
  60.8045578  59.4367523  15.3563261   4.2714190  38.9723816  34.5890808
   4.8645673  38.6452179  33.9127884   3.5803173  38.3121681  34.6413231
  20.9755783   2.8298473  79.9173584  20.2957420   3.3386910  80.3590927
  20.5113239   2.3610735  79.2238464  86.3752518  20.0957527  14.3188591
  87.0609741  19.5390778  13.9498920  86.6574707  20.2586918  15.2188797
  38.0546188  67.4450378  13.1687889  37.8983307  67.6054001  14.0994282
  38.2110405  66.5024643  13.1111279  46.4596901   3.8525722  73.7834702
  47.0984764   3.9020488  73.0723114  45.6798973   3.4724021  73.3789597
   2.1145563  49.5520020  56.9233971   2.2265329  48.6658134  57.2674294
   1.5411367  49.4436951  56.1646538  61.6305962  43.7743378  25.4906502
  62.3212471  44.0560951  26.0905209  61.0413895  43.2500839  26.0330772
  75.8563004  62.9096336  23.6594467  76.3448792  63.4707756  23.0572529
  74.9376221  63.0674095  23.4418182  42.7516518  45.2462196  54.2332115
  42.4297333  44.6427040  53.5636063  43.4202271  44.7479401  54.7032700
  67.0025101  56.7063789  66.1305618  66.3641052  57.0841560  66.7355042
  67.0430222  55.7810631  66.3721771  49.1998024  24.0763874  11.1119709
  49.9302063  24.0586739  10.4935617  49.5876770  23.8185043  11.9482012
  12.7179003  67.8211136  16.5232105  12.1362486  68.5776138  16.5981598
  12.1974220  67.0858231  16.8467541  13.7061148  11.5527687  15.8039665
  13.6868935  10.9820776  15.0357389  12.9331894  12.1092529  15.7083397
  54.5378075  23.0204697   4.1198707  54.1875648  23.5100574   3.3756497
  55.4513817  23.2994194   4.1814895  40.4174194  26.9770489   7.1877637
  41.0918999  27.5526924   6.8272886  40.3704262  26.2471657   6.5702729
   6.3615675  45.8303757  31.4873409   6.3905873  46.2402954  30.6228447
   6.4229703  46.5619888  32.1015091  47.3397369  36.9614944  38.7371330
  46.3833809  36.9890213  38.7079048  47.5650864  37.3564110  39.5794449
  71.1201248  20.5852909  48.8836975  70.3509750  20.6148129  49.4527016
  71.3793106  19.6638622  48.8789444  80.6485291  52.4738083  87.9713058
  80.5892792  52.4118385  87.0179520  80.2566376  51.6603508  88.2890167
  63.7717094  70.5087814  82.3728714  64.4375763  71.1825409  82.5103607
  64.2708588  69.7086334  82.2090454  31.7809505  20.4330292   2.3967111
  32.2604561  20.0965309   1.6396952  31.3534279  21.2270565   2.0758080
  -0.3505772  71.3768845  76.2664185   0.2651798  71.8819122  76.7974701
   0.2046265  70.8215790  75.7190399  14.5832901  24.5524044   8.2230358
  14.4399509  25.3039494   8.7982454  14.0141888  23.8685455   8.5761528
  41.4758186  47.0213623   3.1203423  40.9256516  47.6425171   3.5975342
  42.0889854  46.6909599   3.7769206  61.5872726  10.6344376  59.8376656
  61.2309189   9.7576981  59.6942368  62.4619102  10.6038542  59.4499741
  81.0415192  21.8416157  18.0076256  81.8470230  22.1415806  18.4288445
  81.2413330  21.8551502  17.0716095  72.9211960  70.4756012  38.2326012
  73.0638885  71.1815109  38.8631325  73.2732391  69.6959915  38.6621437
  18.9338837  49.3613434  65.1570511  19.0035419  48.5214844  64.7031631
  18.5040741  49.9393539  64.5266571  31.9353123  47.3435745  57.6492615
  31.0279408  47.0841103  57.8092117  31.8701553  48.2170830  57.2632904
  65.5940704  32.8184700  18.4836159  65.2848969  33.6248436  18.0708141
  66.3022461  33.1017456  19.0619545  52.8629532  65.7343674  55.2077866
  53.4105606  66.1978683  55.8414459  52.5547180  64.9601135  55.6786995
  22.4952202  48.1614723  79.8077698  22.1632881  49.0544586  79.7149048
  22.5293369  48.0157356  80.7531967  69.2437363   7.7194843  38.5404930
  69.5591736   6.8367729  38.7342834  69.5774460   8.2562704  39.2593346
   8.7621813  32.1104965  17.7922859   7.9273629  32.5783195  17.8135586
   9.4231873  32.8017426  17.7537422  66.5455704  48.9057503  42.6146088
  66.3039398  48.7102203  43.5199356  66.8132706  48.0619240  42.2505760
  86.8072128  22.1328449  58.5153847  86.4940567  21.4391823  59.0958977
  86.7590103  22.9285507  59.0452538  82.8011246  40.9429817  22.4599724
  82.1501312  41.5893707  22.7331562  82.2909393  40.2553139  22.0321159
  19.0060444   2.5574586  24.2388725  18.2091713   2.2408335  24.6642818
  19.7185116   2.2043557  24.7717342  71.0768509  10.5477638  14.3664188
  70.8208923   9.9139805  13.6963167  71.0978088  11.3870850  13.9067097
   6.3064818  42.2886353   4.9640751   7.1599002  42.6422577   5.2147908
   5.7662520  42.3883286   5.7479401  56.0638390  30.6309891  37.0805664
  55.2187080  30.5070248  36.6485710  55.9427872  30.2599182  37.9545708
  75.2380981  13.9238720  60.2407036  76.0635223  13.5822191  59.8969383
  75.4223557  14.8423901  60.4371796  39.9853668  68.3076401  17.7208691
  39.2311668  68.2274399  17.1369343  39.6334953  68.7159653  18.5118732
   2.7905281  61.7018166  74.3808746   1.8342013  61.7023277  74.4217529
   3.0138927  62.5453568  73.9874496  21.9202671  37.5258141  18.1984425
  22.0370617  38.0956192  17.4382381  21.6045475  36.6996841  17.8322945
  73.0060883  26.5295792  63.6023445  73.8420181  26.7816181  63.2100029
  73.2318192  25.8357143  64.2218857   3.1867526  18.3817291   7.6140141
   4.0980635  18.1850014   7.3971224   2.8354652  18.7914104   6.8234496
  30.9034634  12.7121696  17.5368900  31.0590000  13.6493330  17.4195652
  31.2072487  12.3149395  16.7207088  14.8089552   7.3216548  20.5444908
  14.0800800   7.6701255  21.0578537  14.5587473   7.4810934  19.6344318
  61.3093910  61.8559952   8.0933952  61.3641663  62.7166862   8.5086508
  60.4017181  61.7905769   7.7966127  -0.3344198   2.0508947  27.7622890
   0.3238242   1.5709708  28.2649021   0.1335707   2.3568010  26.9853477
  86.6818314  30.0883255  74.2306137  86.2164001  30.1548672  75.0643921
  86.0013428  30.2004585  73.5668411  33.0469398  56.4451714  81.9687424
  33.8001060  56.8530922  82.3960266  33.2909279  56.4010811  81.0442123
  24.3502121  60.9569511  38.9209404  25.2011051  60.5238495  38.8528595
  23.7613029  60.4112206  38.3997917  15.6730175  56.8067360   9.3063364
  16.2641945  56.1395607   8.9575968  16.2535896  57.4668274   9.6850796
  76.5562286  25.0937233  63.1317444  76.7275543  26.0085201  63.3554039
  77.3918457  24.6506386  63.2788734  42.3998108  40.2174530  87.1113358
  43.0926208  39.8225136  86.5819397  41.7980003  39.4961052  87.2949600
  64.9078293  23.2992516  21.5547314  65.7767868  23.6342068  21.7759800
  64.9827423  22.3508263  21.6601315  63.8949394  71.2624359  32.8261147
  63.5152931  71.9179916  32.2410049  63.2467995  71.1592636  33.5228920
  46.0645447  13.7667713  19.7525272  45.4972725  12.9959040  19.7384052
  45.4945183  14.4885120  19.4872112  29.4153690  52.9043922  73.9171600
  29.2424011  53.8063774  74.1868591  29.2435608  52.8988228  72.9755249
  80.9653473  36.4920540  60.3457031  81.8500519  36.2332115  60.6036415
  80.3917694  35.8909225  60.8209763  19.4367847  69.3960495  64.0537033
  19.6232948  70.1813202  64.5682831  19.0445576  69.7267914  63.2456169
  31.2594547  52.7526779  26.7532730  30.7947731  52.6704826  27.5860672
  30.5781937  52.9793015  26.1202202   0.9741237  47.1059532  31.0407391
   1.6860869  47.6088753  31.4362278   1.0475498  46.2365570  31.4344273
   3.7049861  53.8788567  52.8249855   3.5709617  53.1216316  52.2550087
   3.0923257  53.7456322  53.5482635  86.2968979  51.8803406  80.0028687
  85.9040833  52.4415321  80.6714401  85.8264084  52.1003723  79.1988373
  33.9036255  69.8319473  64.4631042  34.6344337  69.3684692  64.8721771
  33.2171593  69.8329697  65.1301804  56.7088280  25.2743816  53.3509293
  56.8993034  24.5338078  53.9266891  55.8158913  25.5322571  53.5798416
  24.2578907  64.4029846  42.8042946  25.1056824  64.6118851  43.1965256
  24.3854942  63.5441322  42.4014015  36.3415451  49.7424965  73.4679794
  35.4406242  50.0349426  73.6059875  36.3394852  49.3679008  72.5871201
  10.8663168  52.6293297  84.8670654  11.3238811  53.2820778  84.3371735
   9.9395781  52.7707901  84.6737366   0.3594670  18.2498646  76.4181061
   0.5830045  17.7098770  77.1761856  -0.5968665  18.2897873  76.4261169
  78.4971924   7.9294448   0.1931074  78.3569260   8.8203135   0.5139039
  77.7625580   7.4287076   0.5478004  27.6356850  27.2304783  20.5267982
  27.1014519  27.6706200  19.8656616  28.2749767  27.8900433  20.7960796
  27.1070747  50.5138855  60.2494774  26.9864616  49.5806732  60.4249611
  26.7098427  50.9523849  61.0019112  50.3908501  56.9319611  63.7588081
  50.8685951  57.6925316  63.4278603  50.6004295  56.9051170  64.6923981
  57.2901726  67.4999161   6.0474191  58.1559372  67.1339111   5.8665304
  56.7526970  67.2213898   5.3059521  16.5963135   1.8166125  25.2500362
  16.5716419   2.5277562  25.8902702  16.1299801   2.1629779  24.4892502
   8.0758028  52.4710503  59.2031517   8.0452404  51.8050041  58.5163612
   8.0852118  53.3029480  58.7297745  72.3399506  34.1922684  35.3885612
  72.8704071  34.7399864  34.8098946  71.7052078  34.7960091  35.7743416
  27.0369015  45.8394356  79.4679565  26.3537807  46.0910301  80.0894699
  26.6304417  45.9484024  78.6082153  25.9861832  65.6287079  28.0417919
  25.8802357  64.9229507  28.6796856  26.7339001  65.3591995  27.5083923
  70.6166229  34.6860504  11.8818626  70.9677505  35.3217697  11.2583208
  70.4355240  35.1983604  12.6698790  24.1563644   0.3210408  14.9746885
  23.6986942   1.0755053  14.6038074  24.7127571   0.0047849  14.2629013
  57.8506241  39.1056404  30.7765923  58.5736465  39.6006279  31.1618938
  57.9925270  39.1703377  29.8321819  68.6646652  63.7221222  64.7105637
  69.0164566  62.8532944  64.9044952  68.7926788  64.2182999  65.5190506
  53.8996506  19.5194912  33.9622917  54.1185417  18.9604301  33.2167931
  53.0198784  19.8431835  33.7687607  63.2362900  47.4732475  15.9631958
  63.1982384  47.4355736  15.0074949  62.3347549  47.6498833  16.2320156
  79.3634186  40.9125214  12.6348047  78.6019058  41.4867744  12.7157946
  79.7138443  40.8526421  13.5235395  84.0963135  40.2751160  40.7534485
  84.7328186  39.7777138  41.2669487  84.4044647  41.1800766  40.8016014
  24.1300907  39.2853775  87.9127426  23.5592213  38.8968544  88.5756073
  25.0133152  39.1820374  88.2669525  51.8502769  31.1412830  82.6755676
  51.4416580  30.4432049  83.1873779  51.8446121  31.9004440  83.2585602
   1.0624527  35.2640610  60.8512001   0.1992419  34.8506966  60.8662758
   1.6586276  34.5640182  60.5852165  25.8698406  67.5345230  49.1406097
  25.7303047  67.6377029  50.0819473  25.0227032  67.7459412  48.7483177
  40.9757347   1.2658558  53.6911125  41.6759262   1.2168643  54.3419304
  40.8332748   0.3578573  53.4237595   6.4238501  61.6140137  56.8743401
   6.9256945  62.1876030  56.2952232   6.1484790  60.8889160  56.3134155
  75.5017090   0.2734355  88.7203827  74.7847061  -0.2045040  89.1371841
  75.4624557   1.1485263  89.1062698  38.7616425  50.3424339  47.3795128
  38.8075066  50.0942841  46.4561768  39.1053581  51.2354355  47.4048843
   2.0100665  61.7606163  35.3647957   2.1528320  62.3513870  36.1042824
   2.1697080  60.8869820  35.7218857  58.7469826  59.2235909  42.7501640
  59.1929779  58.3766823  42.7582016  57.9014397  59.0451088  42.3385391
  40.6948090  26.8842545  67.4813080  40.0173187  26.5607796  66.8875046
  40.2839165  26.8668880  68.3456497  83.4257050  58.2985687  20.7835693
  84.2841034  58.1315346  21.1727695  83.2604294  57.5345345  20.2311459
   7.4810677   1.6796240  20.7466202   6.8554559   1.4825829  20.0494728
   7.0319748   1.4213098  21.5514946  75.5157547  49.0710106  80.7938080
  76.3745422  48.6975136  80.9918442  74.9173431  48.6277962  81.3952179
  44.5721092  58.6545029  24.5163937  43.8134842  58.3302231  24.0310478
  45.3156586  58.4899521  23.9364891  45.3576736  71.1284027   7.3973370
  45.6486702  70.9457626   8.2907572  46.1575317  71.0921249   6.8727922
  49.5000725  38.5960350  88.5849380  49.4025345  38.0498695  89.3649521
  48.7858925  38.3217430  88.0096588   0.7423281  47.9480209  81.0906906
  -0.1223188  48.2363052  81.3831100   0.8317183  48.3135986  80.2105789
   5.6521111   1.5574870  18.2791481   5.0100322   0.9428812  17.9238644
   5.5796237   2.3301461  17.7188129  44.4713211  47.3787346  34.8429718
  44.5868378  48.0932159  34.2165489  43.6301003  46.9874115  34.6074944
  84.2684860  13.2228346  42.6514320  84.9426193  13.4762735  42.0209198
  84.6105957  12.4284649  43.0615158  46.0524406  46.5045586  56.4529915
  46.2771072  45.7156906  55.9595909  46.8826180  46.7956696  56.8302155
  83.9250183  57.8121376  48.4481468  84.2895584  58.6121254  48.0695076
  83.4453049  58.1099815  49.2210579  60.7502060  20.1905155  47.5178299
  61.1498184  20.0144997  48.3696289  61.0250587  21.0821171  47.3039780
  76.4567795  18.2382050  33.8541183  76.0414124  17.4485626  34.2007675
  75.8400192  18.5655384  33.1993752  19.6703568  68.0420456  61.3246727
  19.2219296  68.8859177  61.3796844  19.3285103  67.5404663  62.0648003
   1.3624982  41.8364487   7.9988737   2.0557075  42.2740288   7.5046906
   0.5754445  41.9602051   7.4683428  53.6472473  52.0114517  37.0392647
  53.6088943  52.9248428  37.3229446  54.2940483  52.0067520  36.3336754
  59.3656349  45.4789200  56.6314392  59.2118683  45.7642403  57.5320969
  58.9581223  44.6142578  56.5812340  63.4751358  25.9461269  87.0921478
  64.2115784  25.9937458  87.7017517  63.7811050  25.3702908  86.3914108
  20.3202972  65.7435532  36.8844147  19.9202976  65.6728210  36.0176811
  19.9574509  66.5500946  37.2505608   0.4142438  33.7569733  79.7617950
   1.0631764  34.1594238  80.3389893  -0.3932674  33.7522926  80.2757339
  35.9501762   1.1008450  28.2694492  35.3341408   1.0054921  28.9958382
  35.4936714   0.7240329  27.5172195   9.8669910   6.7519827  41.1405869
   9.0026522   7.1625619  41.1645699  10.0784254   6.6931272  40.2088890
  37.0579453   8.1207628   7.5532317  37.8797684   7.8486600   7.1448202
  36.5823479   8.5728636   6.8563504   0.3761599  52.9152412  36.1537476
  -0.2473509  52.6135445  36.8143883   0.3009102  52.2770996  35.4442787
  20.2047691   4.8002691  72.3980942  19.8789406   5.1005573  71.5496292
  20.5540142   3.9260702  72.2247849  70.5518799  31.7313328  27.0077801
  70.3048401  32.1230278  27.8455009  69.7982101  31.8876381  26.4387665
  13.7238255  45.7873878  41.2749901  14.5912285  45.7502060  41.6780548
  13.5731907  44.9002762  40.9485321   9.5735788  46.4772263  84.7059479
   9.8065519  47.4002647  84.8057404   8.6490307  46.4889755  84.4583511
  54.1692924   4.0765138  68.8757095  54.5963860   4.5703330  69.5756912
  53.2533760   4.0188131  69.1477432  50.4302139  10.3189573   2.3279636
  50.9533005   9.5183325   2.2877588  50.6477013  10.7878590   1.5223192
  19.0093060   1.8765631  21.5197792  19.9074497   2.0076010  21.2158108
  19.0657482   1.9501029  22.4724789  13.1284218  11.7803402  73.9668884
  13.6383247  11.8794689  74.7708817  13.5363350  12.3863192  73.3483200
   9.2071981  35.7971153  15.4704962   9.0099220  35.9669418  16.3916225
   8.7382498  34.9869728  15.2705345  14.1506128   8.7420025   7.3754292
  13.9672117   9.3134909   6.6297779  15.0960817   8.8146114   7.5059953
  86.3111954  59.6445618  76.9630127  85.5451508  59.5220299  77.5237122
  87.0355835  59.7810783  77.5736313  57.5447998  66.1742020  12.1840487
  57.7538300  67.0936584  12.3487740  56.6827393  66.0497208  12.5810242
  57.2961540  20.7578354  48.7203674  56.4154243  20.4465752  48.5114098
  57.7932777  20.6301517  47.9124107  53.4108696  55.7212410  80.1062241
  53.7111588  56.4458961  80.6548004  53.7841339  55.9030800  79.2437668
  41.6575127  33.3204384  79.1237411  40.9572830  33.4668808  78.4877625
  41.8869820  34.1966400  79.4333267  43.5412483  22.2557449   3.9428337
  43.0642853  22.7315750   3.2628915  44.1388321  21.6841183   3.4607875
  53.0511551  18.9568863  23.2087746  53.5012627  19.2180367  22.4053860
  52.1426849  19.2259026  23.0726051  24.2020779  43.4334526  80.5579376
  23.8596401  44.0241776  81.2287674  23.4269505  43.1393204  80.0795059
  49.9542770  28.3663597  42.7679710  50.8642883  28.5780239  42.5598564
  49.7985992  28.7849579  43.6145935  67.6794891   3.3577611  42.2179756
  68.5756226   3.4972615  42.5241051  67.2824402   2.7989211  42.8860207
  72.8455048  42.8167152   8.3504505  71.9172440  42.9263268   8.5567217
  72.9845047  41.8698196   8.3677187  14.1538057  33.0688019  66.5813141
  13.5614061  32.9104576  65.8463135  14.7317314  32.3058319  66.5918045
  86.4672775  64.3350906   1.8314648  85.7442322  63.7095833   1.8781466
  86.8139420  64.3674316   2.7230978  82.8580856  46.1682816  70.2318649
  82.7146988  46.8149223  70.9228973  82.5004959  45.3546257  70.5872803
  49.6946373  58.5484848  72.5714264  49.4132538  58.1629868  73.4011536
  49.6735611  57.8208237  71.9498978  61.4644585  62.0589066  14.3926840
  61.4362030  62.1775017  15.3420877  61.7690659  62.9011955  14.0550556
  68.1473083  24.0885448  48.3818855  68.0688019  23.1671352  48.1347580
  68.7693024  24.0892277  49.1094513  64.0140076  61.8778725   5.1577029
  64.8393021  62.1430588   4.7517657  64.2760162  61.3263397   5.8948565
  18.1343746  58.9904785  13.3207111  17.5037994  59.5620193  12.8825922
  17.9775105  58.1256676  12.9415970  55.4484177  50.0809479  64.0972748
  55.1707153  50.6828880  64.7877655  54.8260384  50.2295685  63.3853798
  73.8724899   7.7665548  54.2286835  74.7441864   7.4376674  54.0091362
  73.9536591   8.0766964  55.1306000   2.7396753  40.3902397   2.9935555
   2.0844755  40.3547173   2.2966456   3.5783124  40.4152718   2.5328023
  61.3421364  38.6271362  74.5918121  61.0133095  38.2467537  73.7773056
  62.2679329  38.7986488  74.4194260  51.4678001  40.0592003  18.6212311
  51.0997009  40.8976822  18.8999519  50.7057419  39.5279388  18.3904495
   0.2808059  35.9957504  10.4879398  -0.0011684  36.8046989  10.9149370
   0.1361579  36.1543121   9.5551119  80.3360367  41.2168617  44.0635033
  80.6324921  40.3310509  43.8545113  80.4406204  41.7035713  43.2459412
  50.3042641  38.7664986  77.1052094  50.1212883  38.8673401  78.0393372
  49.4802628  38.9928932  76.6739349  38.9884758  52.5011368  83.1498413
  39.1479912  51.5676956  83.2893982  38.3650246  52.5317078  82.4241638
  37.4266510  59.5848923  62.1447220  38.2838936  59.9947739  62.2603188
  37.6192055  58.6536446  62.0354958  64.4753876  21.7156677  36.9746361
  63.7389374  21.1848392  36.6711617  64.3831558  21.7309036  37.9272614
   1.5101492   0.7108254  73.4448853   1.3853338   0.0862771  74.1594391
   2.2343059   1.2653773  73.7352295   1.5344901  43.0880623  36.8753700
   0.5953640  43.0147018  36.7053909   1.9372621  43.0685196  36.0072517
  17.1926289  34.9028130   3.1132755  17.2669048  35.8546448   3.0445108
  17.6514149  34.5704079   2.3417470  40.7068176  31.5587788  73.3120193
  40.6727448  32.1418037  74.0704117  40.7262421  32.1478119  72.5577698
   4.7232022  56.3724403  54.4464951   5.4309802  56.7722816  53.9411163
   5.0385857  56.3830032  55.3501816  69.6409912  38.8496933  71.5630646
  69.7978668  37.9355316  71.3265762  68.6926346  38.9567299  71.4896393
  70.8613510  13.1218395  19.0822258  70.8674240  12.2336111  19.4389400
  71.0834656  13.0102425  18.1578636  18.1356030  15.7475090  19.4710617
  18.1906071  15.4793882  18.5538292  17.4495487  15.1926126  19.8420734
  78.7884216  68.9937592  33.1963348  78.1197739  68.6868668  32.5839996
  79.3881607  68.2532654  33.2869682  83.8412018  49.3138237  34.0491905
  84.6049194  48.9212837  33.6262474  84.1103592  50.2114716  34.2441635
  33.1964226  66.1326294  66.5868225  33.0608101  66.2121964  67.5310211
  32.6805382  65.3668594  66.3344498  73.4600830  22.3512287  85.8189163
  73.0759735  22.9677582  86.4422836  73.0459366  21.5131798  86.0248108
  83.6467438  33.7075958  73.5894394  83.1141586  34.0043297  72.8515167
  83.7708511  34.4908333  74.1255035  40.6557770  42.4168091  60.1181412
  39.9575615  42.5275497  59.4728012  41.4581299  42.6307373  59.6420135
   8.5849247  38.0987358  74.9798813   8.6923723  38.0510979  74.0299225
   9.4783154  38.0819931  75.3231049   4.4747810  10.5960340  75.5930252
   4.5707121   9.9704990  74.8748779   4.0524111  10.0959616  76.2914200
  28.2067108   1.3223153  63.1172028  28.0673504   1.9678051  63.8101311
  28.9739838   1.6422136  62.6426582  26.0108395  58.5568810  34.3472176
  25.5661831  59.2315483  34.8603745  26.3604603  57.9507217  35.0003395
  53.8740234  68.1416931  42.6049194  54.2563820  68.4475174  41.7824173
  53.1199303  67.6161804  42.3377037   8.0725431   2.6082704  56.1602364
   7.9667907   3.5170000  56.4417648   7.2215195   2.2043417  56.3300362
  51.7035332   7.4702835  42.0255165  50.7933846   7.5896659  41.7542076
  51.7205238   6.6040168  42.4323654  17.6219177  47.3099785  61.8840942
  17.8582287  47.7958832  61.0939751  16.6648693  47.2939796  61.8781776
  77.8397141  69.2580032  15.6818933  77.9253082  68.5609436  15.0314960
  78.3621674  68.9572830  16.4254322  85.6800156  65.7316742  73.6405869
  85.5331039  65.3607941  74.5107040  84.8083954  65.7716522  73.2469864
  81.3542480  25.7641983  30.7122364  81.6071625  25.6320515  31.6259117
  81.5999374  26.6700420  30.5243187  30.7773113  57.3000488   1.7094935
  31.4458427  57.5697136   1.0797486  30.0823669  56.9191093   1.1726778
  73.2374191  68.2650681  83.0587997  72.7235107  68.2450562  83.8660965
  73.3627014  67.3436661  82.8317337  33.3261528  68.8710098  26.6966267
  33.8856735  68.8479233  27.4729233  33.3208847  67.9683228  26.3782558
  54.8145676  46.7229919  19.4594936  54.6678314  47.2623482  20.2365360
  55.7590446  46.5676994  19.4506016  80.5490417   0.8521466  75.6803055
  80.8433914   1.7562679  75.7905502  81.1795959   0.4675310  75.0714493
  81.4389267   1.5292330  39.4473076  81.9910965   2.2245209  39.0896492
  81.8595047   1.2904036  40.2733269  60.9361115  41.3216515  64.3884430
  60.6984634  40.4553413  64.7189865  61.4123840  41.7312202  65.1107025
  69.0396576  10.5222797  68.6969757  68.2642899  10.7061987  68.1666794
  68.6909714  10.2758131  69.5536575  53.1648941  19.6888542  30.0500259
  52.6611595  20.4692822  29.8189106  52.6003342  18.9570084  29.8012180
   6.5166407   5.8409891  20.1789398   7.3754606   5.7965307  20.5992775
   6.7103562   5.9903746  19.2535267  54.6818352  14.1986465  84.7852020
  55.1607552  14.7905846  85.3652649  53.8003616  14.5690203  84.7397842
   8.1768608  26.8474407   1.9700398   7.7209048  26.1632633   1.4799002
   7.8400493  26.7676640   2.8624663  62.2751541  70.9407578  48.2268257
  61.6008987  70.4154282  48.6576805  62.8328514  71.2476654  48.9416809
  53.1085014  44.5541534  10.2695942  52.6006622  45.3650322  10.2979975
  54.0007362  44.8372192  10.0695353  75.4844360  59.7543144  39.9051170
  76.2868500  60.2417946  39.7187805  74.9426804  60.3662376  40.4033928
  59.8397255  32.0233536   5.1093988  59.0541191  31.6467590   5.5059261
  60.5274200  31.3806553   5.2833061  34.0850601  51.4139938  58.7865524
  33.2308350  51.0374298  58.9980469  33.8964157  52.3255692  58.5636826
  32.3585854  63.8819618  23.8168697  32.0229187  63.8386955  22.9214993
  33.3053780  63.7770081  23.7230511  47.1894455  23.9947472  32.4265099
  47.4169846  23.1317425  32.0805550  46.7938194  23.8142605  33.2792320
  35.8372459  46.7978325  38.2254639  36.7509995  46.9768982  38.4473305
  35.8836060  46.2621765  37.4335289   9.3367872  45.0579147  71.4524994
   8.5259609  44.5686722  71.3130875  10.0270824  44.4697456  71.1462555
  73.3922195   1.1251537  85.3832016  72.8656311   0.5910468  84.7885056
  74.0890198   1.4812267  84.8319244  27.8818665  43.9667206  22.0724430
  26.9394779  44.1286240  22.0285892  28.2719250  44.8384781  22.1366386
  36.0592690  36.9829407  86.9374847  36.6138191  37.4074745  87.5920715
  36.6706848  36.6776810  86.2672424  53.0468826   6.5783367   5.2504635
  53.2619514   5.6478057   5.3144145  53.6866035   7.0114112   5.8156490
  76.1159897  51.5617485  70.4522476  75.2560349  51.9578896  70.5929108
  76.0624008  51.1773605  69.5772629  65.7646103  44.8467369  52.8639107
  65.0944290  44.4845886  52.2843094  65.3276215  45.5707092  53.3123894
  47.9060593  52.8382187  84.7266769  48.8471298  52.6646500  84.7043915
  47.6777763  52.8020706  85.6555557  53.6016235   9.7915335   3.7912455
  52.8139267  10.3153553   3.9374495  53.3852425   9.2378845   3.0409904
  77.4514084  64.9940796  25.7895412  78.0482483  65.3612137  25.1374493
  78.0197067  64.5102997  26.3888950  15.4199514   4.3741746  32.1349525
  15.5653191   3.4359112  32.0134544  15.7490015   4.5554986  33.0153389
  60.8823700  25.5851688  68.1789093  60.8389130  26.3677902  68.7283173
  61.5834160  25.0601082  68.5650253  60.2447815  36.4417458  60.7276192
  60.4272385  35.6629257  61.2533417  61.0929070  36.6837196  60.3556480
  40.2288399  53.8716927  39.9130096  39.5504417  54.2740364  39.3706703
  40.9606361  54.4876747  39.8773193  69.7264404   9.6405439  58.6537857
  69.1321793  10.2196445  58.1765747  69.9365158  10.1204081  59.4549294
  35.4969330  20.0368004   4.7175326  35.0107193  20.0361938   5.5420504
  36.0603790  19.2648659   4.7711711  52.4503288  27.0350037  45.6332169
  52.4764977  27.3173504  46.5474510  53.3586807  27.0960903  45.3375816
  24.2513084  14.5512323   2.9025054  23.3029556  14.4537830   2.9883239
  24.6125145  13.7928877   3.3614991  75.4639359  36.5016975  67.3466797
  75.9949875  36.1774673  68.0740585  75.2181168  37.3894997  67.6066971
  85.7193298  14.3569756  28.7089233  85.6901169  14.6487312  29.6201077
  85.0565720  13.6683178  28.6565762  36.6793175  44.5566788  65.4976044
  37.5916176  44.6632843  65.2282104  36.7096138  43.8963509  66.1899109
  42.3987999   0.3523530   7.0380058  43.2282753  -0.1247443   7.0139008
  42.6409225   1.2624809   6.8669043  17.0563545  15.6416960   8.9110651
  16.6684456  16.5010014   9.0764523  17.5533161  15.4463396   9.7054815
   3.6479955  63.7418213  34.3279877   4.3818855  63.1373672  34.4387779
   2.8795478  63.2368469  34.5939255  65.8690491  60.2682724  45.3204346
  66.0832443  59.8907166  44.4673195  65.7877197  61.2072334  45.1531944
  34.5372810  17.1375332  81.7998581  34.0956802  17.0496044  80.9551773
  35.3449402  17.6106968  81.5997772  45.5261955  26.1375809  81.5991745
  45.3370743  25.2217083  81.8032379  44.6993065  26.4839001  81.2636871
  56.8327408  58.0785675   5.0487018  57.5334625  58.0930481   4.3967700
  57.2643814  57.8055077   5.8582435  55.2521019  60.5629311  77.9322052
  54.4080276  60.1119080  77.9135208  55.5097046  60.6272507  77.0125656
  14.9037247   6.9890122  15.4986973  14.1686087   7.4128523  15.0557566
  15.6040640   6.9809270  14.8462467  77.0958481  15.1644535  45.3001785
  76.7523041  14.2740746  45.3738976  78.0464859  15.0537701  45.2835121
  12.4182205  38.6782837   9.4813118  11.6938381  38.3596306   8.9428310
  12.0106964  38.9174461  10.3137522  35.2141647  45.0625229  17.1772499
  35.4313049  44.1325302  17.1124744  34.2878532  45.0759850  17.4180832
   8.8769226  65.8526154  67.0856018   9.7590294  66.1532135  67.3041534
   9.0020943  65.2635498  66.3415833  68.1130981  69.1894913  37.3204994
  68.8143768  69.8404999  37.3455582  67.8019333  69.2073517  36.4154625
  17.1646194   4.4398522  82.3390350  16.4443645   3.9465187  81.9464951
  16.7365189   5.1545868  82.8103256  18.5390377  20.6171589  66.2127991
  19.3183308  21.1721706  66.1828995  18.8048840  19.8073444  65.7771912
  80.1411667  64.3005142   3.4845142  80.2006760  64.0301666   2.5682147
  81.0492935  64.4418869   3.7519917  32.7596245  63.3459549   5.7970157
  32.0391808  63.8073463   5.3677030  33.2443314  64.0324020   6.2553658
   0.5730997  52.6713676  27.3483639   0.3866495  52.3986816  26.4499702
   0.7989998  51.8598709  27.8029804  43.0797958  64.2246246  67.0680847
  42.5374565  64.6258316  67.7471542  43.8994637  64.0086060  67.5127335
  32.5581017  51.0794601  51.2634277  33.3295403  50.5774803  51.5263557
  32.0294914  51.1405525  52.0590858   8.9233341  40.8264275   1.4726135
   8.5658150  40.0816345   0.9891925   9.1965055  40.4578438   2.3127046
  39.9683952   4.2191811   1.0366657  39.1402702   3.7514982   1.1448970
  40.5427780   3.5910053   0.5988141   5.2677283   8.8294334  65.6812592
   5.2844238   9.3285570  64.8646622   4.6959901   9.3347530  66.2591782
  52.6848946  18.6671276  82.4324951  52.2837601  17.9009228  82.0223083
  53.0208359  19.1829014  81.6994553  54.2957230  61.1780396  87.8266830
  55.0748558  60.7728233  87.4459152  53.5987740  60.9961128  87.1962891
  28.1646404  14.5635338  86.3078156  28.4377613  14.2483406  87.1693726
  27.2354774  14.7688684  86.4113846   2.2238946  32.2634659  77.0745087
   1.6271648  32.8806953  77.4977951   2.9342532  32.1462212  77.7052765
  16.5934448  35.8913803  34.0631714  17.0347080  36.6859932  34.3633537
  16.1932640  35.5268631  34.8526077  26.5551872   8.0399590  87.0900421
  26.0255318   8.6634836  87.5869446  26.0624981   7.2203655  87.1319427
  26.3165817  63.2848740  58.8708992  26.0363197  63.4325790  59.7741547
  25.5033054  63.2760353  58.3661880  64.8627319  28.6468735  35.6256638
  65.5975189  28.3134270  35.1107635  65.1803818  28.6401234  36.5285950
   5.2320299  11.8180494  57.1917915   4.6927257  11.7684717  56.4025345
   6.1218853  11.9525890  56.8657722  20.2583141  70.6250916  50.7419205
  19.3414898  70.5588226  51.0088882  20.7459126  70.2137833  51.4555779
  18.8852768  38.9205360   7.2634859  18.9698334  37.9953690   7.0329466
  17.9917507  39.1502457   7.0083828  47.3389320  25.1446381   5.1448689
  46.6380463  24.5004330   5.2448430  46.9129639  25.9878731   5.2989450
  81.4858856  63.0103340  45.8188934  81.1051483  63.8875427  45.8610687
  82.4190216  63.1460876  45.9833908  68.5423965  17.8946705  48.6792107
  68.0083847  17.1052322  48.5905800  67.9246292  18.6162262  48.5610619
  30.2024727  42.4168892  69.1459122  30.9756565  41.8555260  69.2032318
  30.5515423  43.3079758  69.1645584  23.8348312   9.6511917   6.1677771
  23.0609951   9.5048218   6.7118239  23.7169247  10.5335951   5.8160748
  39.7179985  42.4239006  35.4424286  40.1730232  42.5513535  36.2748566
  38.8124428  42.2377548  35.6905098  73.8958435  49.7595901  49.8094368
  72.9886475  49.5428734  50.0245056  73.8397522  50.5987892  49.3524590
  59.2126427  22.2634888  16.3932705  58.4847527  21.8305950  16.8393803
  59.5813980  22.8519344  17.0520439  73.1865921  52.5243225  74.6895218
  73.3168488  53.2233963  74.0487747  73.0744629  52.9812889  75.5230942
  39.4152870  39.1856804  19.9937210  39.5373459  38.5381851  19.2993965
  39.6336250  38.7170639  20.7993031  81.1093903   8.8414068  77.7084427
  81.2029724   7.9804082  77.3008194  82.0046616   9.1032562  77.9233093
  50.0998459  34.3959312  71.1954575  50.1353188  34.8928909  72.0127716
  50.8300209  34.7345467  70.6773682   3.6840656  47.0227089  23.2943497
   3.4413905  46.3814735  22.6264000   3.2520063  46.7141228  24.0907993
   1.3158472  16.5033588  38.4626122   0.7512435  16.2391376  37.7362251
   0.7849537  17.1201820  38.9665108  84.2375107  43.6388588  44.3317299
  84.9688568  43.1780128  44.7428093  84.3607864  44.5546684  44.5813904
  10.4036274  36.6550140  82.5094681  10.6745834  36.9161224  83.3896027
   9.4479914  36.6219215  82.5530014  45.2170258  55.9658661  88.3038712
  45.9425430  56.5877266  88.3599854  45.0915108  55.8283501  87.3649521
  12.3095512  63.9390831  66.4223404  11.7788887  63.2750664  66.8624649
  12.5921001  63.5198135  65.6095581   4.6690135  14.3326206  63.1008263
   4.6333146  14.1801910  64.0451355   3.7924230  14.6438961  62.8751488
  85.2916565  38.3588867  71.4906235  85.8083878  38.9217300  72.0671921
  84.7653503  38.9667625  70.9712753  68.7499237   9.8994160   5.5219002
  69.0144196  10.2307491   4.6637068  69.5271454   9.4512644   5.8555532
   2.0945702   6.5030432  54.6867371   1.9493737   5.5610795  54.7753601
   2.4757302   6.7664790  55.5243225  38.7405243  69.9668655   2.5343356
  39.6117363  70.3600845   2.4833603  38.8269958  69.1324768   2.0733037
  63.0421333  31.4168968  78.7439651  62.5061264  31.8957348  79.3761444
  63.0759621  30.5237312  79.0865173  12.2946844  22.3989487  87.2273026
  12.5376072  23.3018970  87.4320068  13.1242323  21.9213753  87.2294846
  42.2204094  58.2568092  64.7151718  42.9675179  57.7294426  64.4324188
  42.3179245  59.0832634  64.2422104  58.1445312  48.8988953  32.4091492
  58.4093666  48.7032738  31.5103588  58.3945427  49.8137283  32.5387802
  49.6108208   9.6047363  22.5798550  49.5342827  10.5251608  22.8312378
  50.5059090   9.5197706  22.2514820   1.2197146  33.8459892  42.1119614
   0.6565732  34.5415688  41.7724380   0.6984748  33.4293785  42.7982368
  47.7839279   8.8109083   1.3824255  48.2716217   8.0013266   1.2308931
  48.4514313   9.4490557   1.6342950  72.3612061  46.1681786  48.6527290
  72.3133011  45.6293564  49.4424171  73.2800522  46.4306297  48.5972366
  12.5664921  28.4091778  21.5637684  13.0991936  28.9309883  20.9636250
  13.1539211  28.2079601  22.2922401  55.5899773  46.0806465  62.1761208
  55.2146873  46.4065819  62.9941406  55.5161133  45.1285324  62.2413330
  79.7274017  26.0107994   2.3501608  78.9059448  26.5018673   2.3331435
  80.3733444  26.6358681   2.6792247  28.0268002  70.4465408  87.8637238
  28.5665207  71.2320862  87.9523163  27.8755856  70.3647766  86.9220886
   9.5304918   3.0930800  86.2933807   9.1159973   3.4297473  87.0877914
   8.9357271   2.4098735  85.9840012  50.2969170   7.9358621  87.3498840
  50.5901299   7.2992845  86.6979446  49.3661041   8.0583553  87.1632996
  41.9328690  58.6659775  37.7309303  42.6261139  58.0415497  37.9447975
  41.8651695  58.6311607  36.7767601  64.4562378  12.9437170  20.5399590
  63.5685921  12.9783697  20.8964882  64.7458496  12.0464630  20.7051659
   6.2627840  55.0824547  61.0602989   6.8359380  54.5297356  61.5915527
   5.4696960  55.1811562  61.5870857  54.9048805  24.2693996  12.6431503
  55.3623619  23.5595207  12.1925755  55.4415741  25.0441990  12.4761868
  64.2082291  39.2729492  37.0424156  63.9700851  38.3458672  37.0363808
  64.0811005  39.5469856  37.9506989  30.3743019  45.7204056   1.7389991
  29.8053226  46.3277016   2.2119546  30.1181107  44.8548508   2.0574610
  71.7570953  59.6513214  75.6790695  71.4475555  60.2097054  74.9658890
  71.2161026  59.8986664  76.4289856   8.0343618  67.2147141  80.9034042
   8.6123905  67.8254013  81.3607712   8.5988026  66.7876587  80.2589951
   9.1190557  12.9047623  62.9246712   9.2415791  12.3033199  63.6591682
   9.2321405  13.7752171  63.3064461  20.4666786  65.0650101  82.4837189
  20.9122982  64.8374176  81.6677170  19.5858459  65.3227081  82.2117767
  71.1651230  37.7272377  76.0247040  71.5504456  36.9960938  76.5075989
  71.1928635  37.4505005  75.1088028  76.3732681  67.9813309   6.3763571
  75.9712143  68.7297974   6.8172474  76.3100967  67.2673798   7.0107903
  74.0419312  11.0283308  59.4392967  73.6601028  11.2771378  58.5975533
  74.1198578  11.8524485  59.9199104  34.6402550  63.7736740  27.4924049
  35.5675049  63.6608238  27.7014694  34.2781143  64.2331467  28.2500095
  42.2936516   2.5913119  60.5937576  43.2164574   2.5983374  60.3395691
  42.2771912   2.1129975  61.4227180  18.8451939  50.4421692  88.5370789
  18.2499657  50.7892914  87.8726654  18.5269985  49.5549088  88.7036514
  26.5677700  19.0562668   0.0448790  26.1978683  18.5227985   0.7483097
  27.4302979  19.3154449   0.3690812  10.8465557   4.0228062  49.0452805
  11.2792749   4.1404047  49.8909492  11.4286747   4.4500265  48.4169083
  31.2524776   9.2738895  25.0611591  31.0865631  10.1036158  24.6136570
  32.0973473   8.9819050  24.7188511  47.0783119   2.0912101  22.8381729
  46.5104294   2.5701122  23.4418259  46.5001106   1.8305160  22.1212673
  43.3947716  44.2770805  10.6925621  43.0869141  43.9588814  11.5412121
  43.5126495  45.2186470  10.8182116  50.1452484  50.8719215  66.2657242
  50.3689423  50.6288147  65.3673401  49.2482643  50.5587845  66.3823090
  76.2283936  48.4609337  17.5991631  76.9495697  48.7854691  18.1384373
  76.2634583  47.5096664  17.6996193   3.5626290  49.3351021  14.8759384
   2.8681767  48.6853981  14.9848032   3.2820404  49.8625755  14.1280928
  59.4821892  68.1926804  78.1176605  60.1880302  68.8191299  77.9577179
  58.7249527  68.5644150  77.6652985  80.9665833  28.3263226  70.2670746
  80.4135284  28.4635601  69.4979630  80.4916000  27.6818199  70.7917099
  78.5439758  19.7577286   4.0153394  78.6414719  18.8142948   4.1444058
  79.4072952  20.1177521   4.2185431  47.6358528  56.7955818  32.0698967
  48.2737122  56.7234077  32.7799377  47.9856873  56.2367668  31.3759403
  18.9070969   6.5783343  56.7030373  18.0991840   6.9941201  56.4019890
  19.1894398   6.0401325  55.9635429  77.8644180  68.6375961  36.3066788
  77.6426620  69.0036316  37.1628799  78.6603622  68.1292114  36.4623985
  74.5789032  59.3746910  75.3057861  73.7743225  59.6915207  74.8953094
  74.4262161  58.4395943  75.4418411  73.7142715  34.3238754  66.7261353
  73.3807755  34.0674820  67.5859451  74.0364761  35.2165718  66.8506622
  28.5045185  41.1737709  75.2847672  29.4410648  41.0190315  75.4079361
  28.4575329  41.7874870  74.5517044  59.0751038  14.8759680  57.1989326
  59.0174522  14.4201164  56.3592262  59.5334206  14.2626734  57.7734299
   1.5802702   1.4833436  36.4225998   1.3479874   2.4118659  36.4336739
   2.4722528   1.4637107  36.0758820  16.6363621  61.5155678  10.0385523
  16.8536015  61.8173218   9.1565170  15.9384804  62.1034317  10.3277054
  23.5804710  27.3242893  82.9968033  23.0846786  27.7240067  82.2822113
  23.6680031  26.4055176  82.7429733  33.7977295  41.0272179  37.6672554
  34.5314026  40.4897575  37.3687668  33.0697441  40.4118080  37.7540665
  31.3025780  23.6978703  73.9736557  30.7416058  22.9258137  74.0476074
  30.7409496  24.3651104  73.5792007  14.5874329  20.6283379  83.4168854
  15.0570374  20.6406345  82.5828857  15.2772970  20.5987015  84.0797882
  42.1803703  64.0915222  72.7552109  41.6053238  64.8180237  72.9955292
  41.7528877  63.6873665  72.0001297   0.0865077  71.6540756   5.9246545
   1.0087733  71.8815460   5.8066921  -0.0974167  71.0285110   5.2238884
   2.8243952  66.0452576  55.4584236   2.6192575  66.9775238  55.3874893
   2.4908159  65.7914200  56.3189583  62.2303543  37.3423271   0.4953326
  62.8270645  36.9520226   1.1339517  61.4135437  36.8547096   0.6015331
   7.7863193  58.7857018   2.5137296   7.1584353  59.4912987   2.3583918
   8.1018801  58.9377060   3.4045429  73.6037064  13.0787678  76.5127335
  74.4879379  13.4090338  76.3537216  73.7323532  12.3027554  77.0581512
  35.0080719  63.3016777  24.7727070  35.0472717  63.5853119  25.6860771
  35.3442764  62.4055557  24.7855511   8.8897810  59.2676277  17.4540749
   9.6662960  59.7250633  17.1315727   8.8817911  59.4433556  18.3949718
  41.8116264   4.5680633   9.0112324  41.9666061   4.7140183   9.9444580
  40.9467659   4.1596651   8.9730673  73.6700974  36.5119247  88.2066269
  74.4531784  36.6795044  88.7309723  73.5102768  37.3350830  87.7450027
  30.7651215  17.1203575   1.7075195  31.0472965  16.2112255   1.6070733
  31.1257801  17.3911915   2.5517976  18.1367722  70.7482529   3.0380139
  17.8253880  70.6405106   2.1393132  18.5671940  69.9183426   3.2434790
  37.2614326  60.2961960  40.2477798  37.1947441  59.9185333  41.1247940
  36.9774017  59.5941048  39.6624374  11.4497805  32.5286407  71.8123856
  11.9442682  31.7090931  71.8197098  11.6255140  32.9220543  72.6671219
  42.1306953   3.4380476  29.0659103  42.5653877   3.6399381  29.8944721
  42.4377403   2.5594628  28.8422070  82.1943283  25.4790173  56.0310364
  82.7120285  25.6524162  55.2448158  82.6797104  24.7942848  56.4912300
  26.6129589  66.5263977  59.1565132  26.3603249  66.9186478  59.9923019
  26.5344143  65.5834351  59.3010178   7.4566908  30.0012970  15.9670668
   7.2501636  30.9201508  15.7959366   7.2930574  29.5597973  15.1336794
  48.6838341  13.2847328  20.2980099  49.2852364  14.0177774  20.1668873
  47.8317337  13.6215086  20.0209961  55.3144569  49.6769066  21.7399445
  55.4280777  50.2436295  20.9769592  55.0128708  50.2650108  22.4323406
  77.8348389  37.8612366  33.0892410  78.1317596  37.9706993  32.1858635
  78.6393967  37.8641624  33.6078110  74.3386078  55.7178955  86.0260849
  74.9840088  55.4456596  85.3737259  74.5001526  56.6536026  86.1468582
  68.8779907  55.0399437  81.2358551  69.7687683  54.8554001  81.5336685
  68.3204346  54.5094528  81.8050156  51.7306747  63.9919319   4.3714523
  51.4998970  63.5798035   3.5389113  52.1013565  63.2819023   4.8955569
  84.1645737  60.5525742  48.1216278  84.0080872  61.2735176  47.5117188
  84.0671921  60.9467545  48.9884415  31.0375462   6.1269426  79.2517242
  30.8504066   6.5249138  78.4015274  30.2411022   6.2691770  79.7632675
   0.7065129  56.3620872   0.9073734   0.8023105  56.4627533   1.8544327
   1.2374802  57.0669861   0.5366637  21.9015217   0.5080138  61.3985100
  22.3339748   0.0761619  62.1352081  21.5411358   1.3128990  61.7706871
  68.0697021  60.9556427  80.4888535  68.5139542  60.3004951  81.0270538
  68.7411346  61.6140099  80.3100815  82.0936432  56.2775269  30.3008671
  82.5287247  57.1251945  30.2092571  81.6377716  56.1511192  29.4687386
  61.0327377  14.4450598  21.5662804  61.5296288  14.6320810  22.3627434
  61.3309746  13.5764933  21.2963219  51.4942207  11.5441628  43.3478966
  51.8349571  12.1267185  42.6691017  50.5666809  11.4437294  43.1338463
  81.4909363  34.4720306  82.3818817  81.7719116  34.2030296  81.5072861
  82.1968307  35.0363998  82.6972122  36.7491341   8.4937038  52.6892090
  37.6752357   8.3864565  52.4722748  36.3819656   8.9687529  51.9437256
  39.5395317  -0.1215998  38.9671860  39.7591667   0.2028664  39.8405190
  38.7955170   0.4144074  38.6926460  48.8624344  37.3194618  61.4139214
  47.9996262  37.4395409  61.8106270  49.4766006  37.6382713  62.0752792
  48.5149345  53.0137787  25.2207851  47.9810410  52.4011917  24.7148952
  49.2725563  52.4986877  25.4981327  46.5794373  68.8326263  82.3410645
  46.0955124  69.4933777  81.8456345  47.1804466  69.3369522  82.8893967
  39.6079750  43.9362450  11.5727816  40.2044907  43.7740707  10.8419590
  38.7963448  43.4951820  11.3218832  59.9798203  50.8713226  74.0983582
  59.7351112  50.9402199  75.0211792  60.7449265  50.2961426  74.0957489
  65.3578033  51.5524979  17.0342808  65.8692780  51.0044556  16.4390640
  64.8309250  50.9320679  17.5379639  56.4369736  28.9534817  30.0509090
  57.2465439  29.0358925  29.5468845  56.4780998  28.0747147  30.4281445
  42.3873291  61.7791710  31.8605022  41.6774979  61.5420799  32.4572945
  43.1530342  61.3190117  32.2042770  57.7757683  50.5267563  71.5189209
  57.7245026  51.4725647  71.6569443  56.8645744  50.2336998  71.5276184
  36.8879814  69.9964447  29.1317921  37.2439728  69.5206528  29.8822098
  36.4215317  70.7378998  29.5176678  64.7311172  43.6370392  18.2367592
  65.5488892  44.0920448  18.4378757  64.9798431  42.7150345  18.1713924
  79.5191269  61.2471581  29.8988876  78.7705460  60.8414116  29.4615917
  79.7465973  61.9921227  29.3425446  69.9024506  70.9293594  68.6001892
  70.6981964  71.2137222  69.0498123  69.4570999  70.3671188  69.2340469
  18.0553074  38.3158112  79.6492996  18.9224739  38.2338676  80.0462036
  18.0165234  37.6047974  79.0096207  56.8269234  33.1920547  34.7278976
  56.4521103  33.6244545  35.4952202  56.0704803  32.8442345  34.2556229
  14.9609165  67.5133209  45.7281189  15.8160639  67.5464020  45.2993279
  14.3508501  67.8505707  45.0721359  40.3365555  49.9995384  50.5636101
  39.5317001  50.5170555  50.5388832  40.4353180  49.6674995  49.6712914
  53.9288635  14.9126120  56.1104927  53.7572479  15.0406027  55.1775398
  54.6430359  15.5185690  56.3079910   5.6801138  20.0970459   2.5228744
   5.8006191  19.1639824   2.3465133   6.3374410  20.5305233   1.9785867
  17.1540527  56.6626778  67.6201477  16.8773155  55.8720665  68.0833817
  16.8012619  57.3825722  68.1431351  68.7984695  65.5060806  12.6533127
  68.7477722  64.8378754  11.9698219  69.2331467  66.2474136  12.2317457
  10.0246201  33.8240318  81.1186218   9.3856077  33.7632027  81.8286819
   9.9260759  34.7151833  80.7834091  76.9286804  37.4835968  13.6578646
  76.9589005  37.0051498  12.8293686  76.4570999  38.2905655  13.4513636
  24.2866993  43.0920715  14.5078440  25.1776581  43.4063225  14.3539820
  24.3034039  42.7534409  15.4029875  73.4481277  28.1521416  66.8640366
  72.6742401  27.8683643  66.3774109  73.9443893  28.6797409  66.2382584
  47.8759804  70.6249619  57.0156326  46.9694405  70.7037277  56.7186279
  47.9877930  69.6921463  57.1988983  63.3755569  10.7387419  64.1449814
  63.0457153   9.8408947  64.1810837  62.9666328  11.1743822  64.8927994
  69.4526062  30.4128742  50.6688309  69.0531693  29.6114349  50.3306313
  70.2066193  30.1097145  51.1745872  59.7440529   2.4803574   8.1163626
  59.7790604   3.3574669   8.4980497  60.0298920   1.9004147   8.8221922
  72.0515518   8.0389090  21.0947628  71.9411850   8.9895725  21.0777531
  72.9798050   7.9021263  20.9053898  86.5725861  18.2430305  20.7567234
  86.8026733  18.6101589  19.9031982  85.7318115  17.8090096  20.6119881
   8.3050013  69.0260239  37.1778793   8.7689228  69.8575211  37.0798073
   8.4871988  68.7547684  38.0775757  71.3880920  30.0551662  80.9346542
  72.2442856  30.3109379  81.2778091  71.2283783  29.1893959  81.3103714
  80.1800613  49.9204254  67.7421417  80.1526489  50.8729324  67.8327332
  80.5638199  49.7729874  66.8777161   4.5426168  63.7130585  18.0491657
   4.4810128  62.8289871  17.6874332   4.1324091  63.6480980  18.9115715
  69.7674866  49.5137062  88.0490952  68.8832550  49.6917229  87.7286606
  70.3433838  49.8538399  87.3643494  60.9051857  22.3743305  22.4579010
  60.3278503  22.8759327  21.8823071  60.3104591  21.8781204  23.0203114
  38.5117683  54.2667503  34.2080879  38.9545212  53.4849281  34.5381699
  37.6999054  54.3133926  34.7129974  30.5922508  40.1253281  11.9450636
  30.9862309  39.7567062  12.7357140  30.5040607  41.0594330  12.1345472
  25.0906773  60.3141022  88.0362320  24.9737473  61.2628784  87.9874420
  25.7661552  60.1222649  87.3857193  80.1211929  14.2263184  24.8220043
  79.3614044  14.4810629  24.2984982  80.7469864  14.9401045  24.6990318
  17.5559044  60.9021988   1.5769011  18.0866966  61.4741516   2.1313021
  18.0139866  60.0618591   1.5917404  35.2753067   7.5348754  86.8051529
  34.8799210   8.1511517  86.1886292  34.6552277   7.4933538  87.5331726
  46.6092110  36.6083565  63.0960007  46.4646034  36.1937523  62.2454605
  45.7481041  36.6041870  63.5139847  14.1861668  30.4115334  69.5533142
  14.4946337  30.2035770  68.6713638  13.7340584  31.2497730  69.4574890
  81.8923874  11.2034092  38.3412056  82.5818939  11.7451744  37.9573936
  82.0899506  11.1922789  39.2777290  21.2634048  60.9259987  56.0333710
  21.2832565  61.6651955  56.6411743  20.3410053  60.6733551  55.9935646
   3.3481951  32.8128929   6.7150292   4.2849860  32.6653595   6.8449845
   3.0800600  32.1263313   6.1043172  14.6559305  15.9096994  88.1819153
  15.2219152  16.6035461  88.5202484  15.2586918  15.2818871  87.7834625
   7.9385672   8.2486410  85.4473343   8.3215017   8.1633759  84.5742264
   7.5627589   7.3872919  85.6292038  57.6990128  57.2778511  18.7265892
  57.6577873  57.7729683  19.5447521  56.7919998  57.2410583  18.4229393
  86.2960358  65.1849060  30.5422268  86.9299316  65.1174164  29.8281860
  86.3203583  66.1070557  30.7977371  45.7943306  29.8853226  27.5836620
  46.0863228  30.7849483  27.7307930  46.1332169  29.3977089  28.3344078
  63.7675896  29.8144398  48.1517029  64.7244949  29.8082600  48.1288223
  63.5154800  28.9366837  47.8649673   9.7717295  60.7014198  55.7396545
  10.4612751  60.4063873  55.1449165   9.5818462  61.5971451  55.4606400
  19.5090923  64.4739685  14.7927160  20.4198151  64.4117508  14.5047112
  18.9965363  64.3625412  13.9920273  66.6395340  46.6493683  82.1569748
  66.3092194  46.1420403  81.4155273  66.3531723  47.5455322  81.9805679
  62.9862785  58.6588287  82.9914932  63.9029694  58.7874146  82.7478256
  63.0012817  57.9185867  83.5981674  32.4122772  37.1076088  12.8534708
  33.2564125  37.2725906  13.2735252  32.3924789  37.7108421  12.1105356
   7.4918394  13.1233101  16.3040638   8.2757988  13.3907919  16.7837429
   7.6242166  13.4644203  15.4195576   0.6896065  30.5514126  11.0969801
   0.8525438  31.4306355  10.7554359   1.4364895  30.3744068  11.6688776
  42.9981995  55.3835144  36.0923195  43.3611374  54.6936722  35.5367813
  43.7257843  55.6436844  36.6572685  66.6455612   5.5168719  53.9652710
  66.5617905   4.9183078  53.2230225  67.5823975   5.7067881  54.0152664
  31.5774345   3.2323856  45.0077133  31.7348995   2.6542375  44.2612686
  31.1692581   4.0098047  44.6266060  83.7064438  15.3472710  -0.1751443
  83.6447144  15.5643158   0.7550781  82.9185791  14.8339691  -0.3541130
  80.6701279   9.4888535  85.9511490  81.0867004   9.2400579  86.7762604
  80.1158524  10.2354650  86.1782608  69.4527664  16.9048004  77.6258392
  69.7225800  17.3571625  78.4250946  70.2294388  16.4161816  77.3533478
  16.7336979  56.6388359  34.2941284  17.1519299  56.0701637  33.6476555
  15.7959814  56.4887962  34.1740913  15.5108805  66.6848831  77.4532471
  16.3554478  66.8437805  77.8747787  15.1919107  65.8759460  77.8533859
  69.8265076   8.3179131  48.8476486  69.8148270   9.2580767  48.6682396
  69.5924911   7.9118819  48.0130157  48.9333420  29.3745575  86.2307816
  48.2826080  28.8526974  85.7612610  48.8347168  29.1131592  87.1463013
  45.2322121  12.7717657  83.3866272  44.9593697  12.9080200  84.2939453
  44.8049431  13.4764071  82.8996429  72.0120850  19.0531216   6.7305622
  72.2633591  18.6280632   5.9105511  71.3780823  19.7210865   6.4696236
  80.5535736  19.3389263  70.3181915  79.8295670  19.7002068  70.8295898
  80.7438431  20.0114441  69.6641693  74.9253082   8.1268167  61.4712410
  74.9532928   9.0835247  61.4838066  75.2576370   7.8888321  60.6057014
  45.3609543  58.2377396  67.8997040  45.8176689  58.7788353  68.5438004
  46.0571175  57.7489624  67.4607468  15.3547831  52.7554855  29.6946564
  15.1044054  53.6553421  29.4853783  15.3233633  52.7142563  30.6504517
  33.2306595   2.5626707  38.8963852  32.5716591   3.2521114  38.8150177
  34.0564804   2.9934607  38.6757660  49.4929390  58.2583809   6.9981112
  50.3430901  58.6316605   7.2307763  49.3217163  57.6090164   7.6801963
  39.3260155  36.7379112   5.3341889  38.8430710  36.2946358   4.6366887
  39.3360786  37.6581802   5.0710649  45.6796379  41.4000816   1.4295503
  46.5315094  41.6761513   1.7676750  45.8794746  40.9736519   0.5962120
  76.8285599  45.5095978  10.3389244  76.4362030  46.1573448   9.7535048
  76.0814667  45.0724144  10.7475233  81.6834030  59.8787880  22.3138409
  82.2074127  59.1732559  21.9345493  82.3268661  60.4798355  22.6892414
  14.3162518  34.0874367  14.9171524  14.4841681  34.9944839  14.6616182
  14.8330965  33.5659828  14.3029957  30.0655098  64.1177673  84.0810547
  30.0594273  63.7723007  83.1883926  30.8435555  64.6741562  84.1172485
  18.4681339   5.6135545  67.7691650  18.3473835   4.9633851  68.4612122
  18.4342270   5.1080394  66.9570465  10.2233009  27.7245712  16.5980854
   9.6805286  26.9378967  16.5454063   9.6147537  28.4189720  16.8504906
  15.2636509  65.3316040  51.0040741  14.9501877  64.8624954  51.7773170
  16.1926479  65.1077805  50.9483948  44.2455635  56.6992836  52.9630470
  44.5638962  56.0218201  53.5596542  44.9933434  56.8905182  52.3969307
  25.4798565   1.4609519  19.1465702  24.6051445   1.5475153  18.7675991
  25.3640633   1.6849608  20.0699558  42.3646202  53.3671646  81.0638580
  42.2907829  52.5238953  81.5107117  43.1955452  53.3159447  80.5914459
  19.9513664  62.5908737  42.2925072  19.5982246  61.7819557  42.6628723
  20.6461334  62.8484268  42.8984756  69.7788391  47.6960716  41.2556686
  70.5594406  47.9616737  41.7418289  69.3954849  46.9949646  41.7826576
  23.9969959  65.7130585  79.3391724  23.7483997  66.5592270  79.7112274
  24.5024567  65.2863998  80.0310516  74.9513474   6.0659742  63.3567009
  75.2471008   5.3412948  62.8056984  74.8399734   6.7980537  62.7501640
  75.6494904  49.5448189   6.7688260  76.4564438  50.0596542   6.7659183
  75.6965103  49.0212975   5.9688587  83.1830826   2.6168272  82.1571503
  82.6457443   2.0285811  81.6266098  82.7267075   2.6658828  82.9971161
   3.3892937  39.3168526  16.9391613   2.7690468  38.6674156  17.2704525
   4.2027812  39.1324692  17.4087048  57.6264801  62.9457932  14.0720835
  57.1145363  62.1472244  13.9438982  58.0330238  63.1088715  13.2209902
  66.9958496  39.3844032  71.3586273  66.5865021  39.7869034  72.1245651
  66.4510956  38.6203575  71.1696701  35.6108932  38.5924149  71.9657288
  35.0883636  38.8303833  72.7316055  36.4244728  39.0862350  72.0680237
  41.3111420  41.0018044  43.7250252  40.6601219  41.6783142  43.5386391
  42.1521568  41.4541435  43.6593285  60.6061478  20.4304008  71.1993484
  61.3547478  19.8357162  71.2460403  60.4873543  20.5929127  70.2635574
  50.0373001  56.7080650  66.8900986  49.1046295  56.9060631  66.8055191
  50.1511002  56.4803696  67.8128281  60.1867332  10.4937277  46.5145988
  59.5120468  10.9035826  47.0559387  59.7195244  10.1965208  45.7338181
  81.2383575  58.5475121   2.1500485  80.9222870  57.7383461   2.5520203
  81.5557480  59.0720406   2.8851445  29.8471622  69.0073853  29.8157692
  30.0472717  68.3459473  30.4781036  30.4824047  69.7055054  29.9748840
  61.5953102  65.0187531   2.5583191  60.7597466  65.4772186   2.6470478
  62.2545013  65.7113190   2.6036348  44.7311478  23.3285809  20.8436871
  45.3679352  24.0424919  20.8763237  45.2637177  22.5337696  20.8140545
  14.8894482   8.3490372  86.0596008  13.9744930   8.2979593  85.7830505
  15.1712971   7.4365888  86.1246414  34.7423363  34.2323227  19.4328842
  34.2855682  34.9103203  19.9307957  34.6562881  33.4432945  19.9679146
  44.8368835  30.5614223  77.2625427  43.8868675  30.4444103  77.2597885
  45.0002518  31.2104855  76.5782471  51.6542587  67.4109879  76.6043167
  51.5075569  66.6229172  77.1274261  51.3991089  68.1316986  77.1802521
  38.9028778  36.9403610  78.9375381  38.2793198  36.4642258  79.4859009
  38.7635078  36.5907707  78.0574265  21.2826519  57.9461632  59.1249619
  22.0959568  58.4451942  59.0492516  20.7558689  58.2320595  58.3786392
  69.0568237  54.4585342   3.1556506  68.3970261  53.7749329   3.2722180
  69.8877792  54.0250702   3.3502262  82.9117737  15.5619850  84.4752884
  83.1450958  16.1281471  83.7395859  83.2314224  14.6960459  84.2218933
  57.4393005  51.6620903   3.2619538  57.2307701  51.9127312   2.3619947
  57.6139450  52.4912605   3.7071595  10.9658480  13.2469654  12.2803993
  11.7597828  12.7694025  12.5208836  10.9452639  13.2112436  11.3240881
  42.8402214   2.8375392  65.4632874  42.2629700   2.5641060  64.7503738
  42.8409348   3.7936473  65.4175797  13.4010086  57.5475502  16.8175335
  13.8810215  58.3583641  16.9860630  13.4584980  57.0599709  17.6392345
  74.8382645  11.7845688  56.6184387  74.1440582  11.4988871  56.0245628
  74.5767059  12.6654644  56.8864746  73.1236343  14.5053797  19.8868904
  72.2824249  14.0684013  20.0197353  73.6815643  14.1692066  20.5882721
  21.3919048  23.3936462  12.9794350  21.8982449  22.9576435  12.2940483
  22.0117817  23.5066319  13.7000027  66.3752747  60.4885216  22.2624760
  66.4799500  60.8749924  21.3930435  66.0887070  61.2157745  22.8149357
  56.3114090  11.7764645  38.3245850  56.9781265  11.0896826  38.3315315
  55.6658211  11.4900923  38.9706841   2.3104746  17.6655006  21.0402145
   2.3293898  16.8182678  20.5951614   1.4216176  17.9909744  20.8979740
  55.7562675  10.3810549  51.8181725  56.4867210   9.9129353  52.2225685
  55.0128174  10.2102308  52.3963890  83.5728760  34.3638611  34.7911415
  82.8535156  33.7349625  34.8480606  83.9924545  34.1725578  33.9523392
  81.9712677  11.3094816   6.8730140  81.1861267  10.8675032   6.5498362
  81.9590302  12.1644812   6.4428315  23.5940762  27.1566544   3.5642726
  22.7048664  27.4783573   3.4157937  23.4880028  26.4390640   4.1888089
  68.6996384  39.1299782  59.3146973  68.2997894  39.7294769  58.6846542
  68.7848816  39.6465569  60.1160164   5.8566499  43.4421387  42.2490273
   5.1308131  44.0650673  42.2858543   5.4419193  42.6025887  42.0505791
  33.9033012  62.5533562  82.1459198  33.8506737  62.2861023  83.0635376
  34.8362198  62.7037811  81.9933853  64.8916397  44.1036758   4.1203547
  64.1836472  44.7467499   4.1581955  65.1646576  44.1017265   3.2029171
  52.9312935  65.1916275  45.9037590  53.8814697  65.1008835  45.8319244
  52.6095314  65.0542374  45.0127907   9.3578768   4.4535666  71.8387146
   9.9301176   4.5736580  72.5965729   9.8956537   3.9781303  71.2054825
   7.9488144  13.1066904  72.2056198   8.1260786  13.0222969  71.2687683
   7.0120378  13.2968149  72.2559509  77.2149963  31.6985531  50.7019005
  76.6951523  32.2692833  50.1359825  76.5753860  31.2983208  51.2909203
  56.5445213  35.2156181   2.0586255  55.6729431  34.8268814   2.1325495
  57.1279488  34.5744781   2.4645648  27.7645264  45.8343582  54.9093704
  27.0055637  45.5743561  55.4314919  27.4322777  45.8863182  54.0131874
  27.9297276  23.3706474  16.5521030  28.5404205  23.3429832  15.8155432
  28.3847523  22.9112358  17.2578831  11.8707170  11.6088657  84.9677811
  10.9754200  11.8682156  85.1855240  11.9387112  11.7521400  84.0238113
  37.3597755  55.1163559  26.4409885  36.9708061  54.2742882  26.2046452
  36.9952202  55.3149376  27.3034821   2.0196419  46.2729187  28.3515377
   2.5902121  46.9941177  28.6171494   1.4784749  46.0994911  29.1217918
   6.9570336  52.4795532  73.4468079   6.3194642  52.3871918  72.7388458
   7.3476706  51.6098824  73.5323029  16.6761093  61.2654915  64.3356171
  17.5022526  60.9540443  64.7053757  16.8299923  61.2884979  63.3911476
  71.8578339  33.5741119  21.1257038  72.0582886  34.2361031  20.4640255
  71.0441971  33.8770485  21.5287762  17.4305630  58.9269295  74.8567200
  18.1973362  58.6606102  74.3494110  16.8298378  59.2938194  74.2080688
  64.1285553   9.3022575  70.0257568  63.3403244   9.4211454  69.4958649
  64.4165802   8.4106722  69.8299255  56.9185143  14.8605309  35.5682182
  56.1348190  14.4097490  35.8826180  57.3018074  14.2581167  34.9307098
  76.8216705  50.1859779  22.2807350  76.3918381  50.7253113  21.6169567
  76.7734985  49.2952499  21.9335823  43.4615517  34.9852219  21.0668793
  44.1462021  35.2674026  20.4603653  42.6429024  35.2208633  20.6303940
   1.3540556  63.3466148  21.3559933   2.2532351  63.6317329  21.1934605
   0.9673945  63.2649574  20.4841805  66.9395523   3.5031655  23.5354252
  67.6925659   3.6482949  24.1082535  66.6203842   2.6331761  23.7751808
   9.3378887  56.0163918  80.6527023   8.7485580  56.7381554  80.4336548
  10.2095394  56.3425598  80.4289322  68.0576553  11.6845484  25.6021023
  68.6453094  11.2961922  24.9539719  67.7380219  10.9402065  26.1120262
  66.6703720  17.0567818  61.5843010  66.8882446  17.3727798  62.4611740
  65.9683151  16.4217682  61.7261276  29.5348816  23.0880165  78.0940933
  29.3127670  22.7163239  78.9477539  29.7383671  24.0051212  78.2777939
  81.8147354  18.8138905  23.6771832  81.0571594  19.1411228  24.1621799
  82.3423080  19.5932865  23.5026913  81.3000412  47.0134468   0.7968274
  80.6469345  46.6286507   0.2123477  82.1364899  46.6754532   0.4769292
  29.5984268  16.0486507   7.4169869  29.9240665  15.1720695   7.6214232
  29.4863358  16.4675655   8.2703209  76.5954971  52.0675964  74.9921799
  76.3328094  51.4293022  74.3290024  76.3130493  52.9108658  74.6381302
  12.2264204  42.6734886  24.6232719  11.3546286  42.9826508  24.8695011
  12.7914190  43.4384460  24.7321396  14.5895891  49.9523048  20.5703125
  14.6084623  50.0024414  19.6146145  15.0879879  49.1620827  20.7785892
  26.6947002  36.8354187   6.6435142  26.9231892  37.7036400   6.3115287
  27.0482407  36.8183823   7.5328679  30.8323479   8.3976545  13.3620758
  30.0806599   8.6025829  12.8060169  31.0889072   9.2397728  13.7379026
  71.1683426  16.4420280  31.1408424  70.5655746  16.5986309  30.4139423
  71.2463684  15.4890938  31.1862316  83.3640747  35.8827286   7.8070912
  83.2042236  36.7728310   8.1207781  82.4934540  35.4891243   7.7494478
  45.8721771  69.1162491  33.7686424  45.5577164  69.6646271  33.0498772
  45.4425392  69.4716110  34.5466957  61.5558281  41.8512421  82.8860092
  61.3487701  41.1077042  82.3198700  61.1589050  41.6288834  83.7281723
  44.4682961  41.1218376  53.4384041  45.3965569  41.0121193  53.6446075
  44.4594650  41.4401665  52.5357285  54.1207237  28.8341637   5.3558860
  53.9719124  28.9253731   6.2970386  54.7591858  28.1248398   5.2819834
  84.6236801  53.2140388  53.7560997  83.7788010  53.6488266  53.8717308
  84.4073105  52.3737907  53.3518753  51.9861488  50.2867470   4.3913889
  52.1724930  50.0426140   3.4847980  52.1287422  51.2328720   4.4188013
   4.7174339   7.2083907  16.5497704   5.3643723   7.5178704  17.1837463
   5.0916972   7.4312706  15.6974316  70.8573380  12.5410233   0.4921470
  69.9513779  12.4930115   0.1869109  70.8646927  13.2755384   1.1058773
  70.8716049  63.0427132  75.1379395  70.1695709  62.4987640  75.4950104
  70.4339600  63.6157875  74.5084229  54.5900650  23.3154697  34.1518250
  54.1200790  22.7494526  34.7641754  55.4905243  23.3239422  34.4763718
  15.9630222  49.5643845  50.1970787  15.3557539  48.8441391  50.0276718
  16.8305779  49.1631012  50.1465950  10.0078392  33.0627251  84.8548279
   9.2639809  32.9700394  84.2595825  10.6649265  32.4562492  84.5132751
  39.5157471  50.0819664  69.4745865  39.2803612  50.4039993  68.6044617
  39.5667648  50.8697968  70.0158386  60.2565041  70.1564484  85.1894073
  60.9357224  70.8294067  85.1444168  59.9860954  70.0279160  84.2802429
  60.3391075  25.9455585  56.5654068  60.0321312  25.5352707  55.7569122
  61.2188187  25.5911617  56.6947975  10.0484657  10.3709259   6.4279065
  10.7249031   9.8803444   5.9610081  10.3905201  11.2635984   6.4765477
  83.9493866   9.4120245  65.9067383  83.8729401  10.3612871  66.0031128
  83.3400421   9.0557966  66.5532913  71.3544464  27.5709515  41.9787292
  71.0441513  27.1651821  42.7882347  71.9677353  28.2461090  42.2690239
   2.9552872   1.2554781  58.1317062   2.4931486   1.1450911  57.3007584
   3.8807180   1.1633551  57.9051590  66.5186844  37.2863426  67.0212173
  67.2356033  37.9130325  66.9236221  66.5862045  36.7231979  66.2501526
  31.9251099   3.1064157  56.0165596  31.8440723   3.8538544  55.4241066
  32.2383957   2.3929772  55.4606018  55.1414833   2.5578411  21.3680782
  55.5351257   2.4816742  22.2372589  55.8245125   2.9581294  20.8300514
  60.3653717  14.8674202  84.1712189  59.5280800  15.2224884  83.8727188
  60.7806702  14.5328274  83.3763580  58.2558632  18.3817196  76.9822083
  57.6965408  17.6406155  76.7494965  58.9502220  17.9986916  77.5182953
   9.6512985  29.0652103  10.7427502   9.6846695  29.9869270  10.9987936
   9.7739649  29.0757294   9.7935009  45.7482071  31.1766834  14.1301870
  45.0592842  30.5161915  14.0569143  45.3020592  32.0074005  13.9655991
  16.8456764   2.9830067  45.5487366  16.1267757   3.1152391  44.9307327
  17.5293350   2.5554540  45.0329475  71.9578323  39.7910347  18.4693489
  71.2646637  39.2183876  18.7977085  72.0236053  40.4868164  19.1234112
   0.2728295  55.1228180  69.4013901   0.3907199  54.3578987  69.9646225
   1.0328661  55.6749344  69.5850830  49.6971321  10.4890347  54.3123283
  49.1925850  10.6028547  55.1177521  49.2036667   9.8404999  53.8102074
  64.8699341  67.1061554  64.3757019  65.2720032  66.7038956  65.1456070
  64.9756317  68.0473328  64.5144653  81.7702026  21.3662682  10.4439487
  82.5316010  21.6313000  10.9599457  81.2460175  22.1631622  10.3638182
   1.0975498  59.4624405  44.6580544   0.7541288  59.1132469  45.4804649
   0.7772786  60.3639793  44.6283379  72.8790817  42.4823494  35.3259926
  73.2088547  41.6844177  35.7392616  72.7509995  42.2415314  34.4084778
  69.8511353  35.7118187  47.4396553  70.4453735  35.9799767  46.7387924
  69.0139236  36.1158600  47.2115135  15.7925148   8.2442808  24.8135338
  15.4106426   8.6971273  24.0616455  16.5761051   8.7513590  25.0258770
  43.7629852   3.5300436  31.3629131  43.5005760   3.3442047  32.2644882
  44.2065811   4.3768139  31.4122772  68.2248688  31.2756176   9.5097866
  68.0636597  32.0969200   9.9742289  68.4738388  30.6570110  10.1964979
  86.3960571   9.1785755  73.9695206  86.1393890   8.6031151  74.6900711
  86.1552582   8.6949720  73.1793442  23.0474968  11.2443399  68.8756256
  22.3328533  11.6690893  69.3500748  23.5812645  11.9683256  68.5482559
  52.5428391  37.6886787  58.2287941  52.1209145  38.0006599  57.4282494
  52.7933426  36.7861671  58.0314293  12.8318491  16.9074802  82.1083908
  13.6270161  17.3716335  81.8466644  13.1360378  16.2379017  82.7210617
  13.0724325  49.1535835   0.7163822  13.9342670  48.9656792   0.3446782
  12.6537657  49.7256889   0.0732288  84.7384415   3.7004542   6.6063070
  84.2139587   2.9867764   6.2432399  84.5760117   3.6615760   7.5488238
  36.9651260  44.2678986  24.0554466  36.2231979  43.6644058  24.0157700
  37.2192917  44.3954048  23.1414585  74.9024734   3.5658760  44.6142426
  74.4298706   4.3037820  44.2290535  75.7684937   3.9175427  44.8205605
  64.5290527  52.1135330  55.6346893  64.9184494  52.5877304  56.3693619
  63.7197227  51.7453957  55.9892159   4.2051616  27.3836040   1.7547171
   4.1593742  26.5694313   1.2534616   4.9223628  27.8729553   1.3517400
  47.6821289  57.7504272   2.3015537  47.1765518  57.7655602   3.1141999
  48.5888290  57.6347084   2.5856864  62.9817734  25.2714653  57.7262268
  63.2594376  25.7477551  56.9437408  63.7991676  25.0192413  58.1557426
  65.1057205   3.8958161   1.9420953  65.7482147   3.5374491   2.5544736
  65.2315521   4.8434854   1.9902827   1.6417854   6.1427488   0.6127126
   1.4021575   5.2473373   0.3738624   0.9248609   6.4413991   1.1722292
  14.4475031  61.9015465  55.8644066  14.9007301  61.0862999  56.0793228
  14.2575283  61.8305397  54.9289398  56.5244331  28.4920940  69.2448883
  56.6447983  27.8802166  69.9710770  57.3779526  28.9130955  69.1424408
  76.9084244  53.1435890  64.4649734  77.3545456  52.3569145  64.1513519
  75.9845581  52.8960495  64.5027161  63.3901367  16.7934799  25.9091511
  63.3287010  16.0052547  26.4487400  63.9078217  17.4036102  26.4344826
  46.6407051  59.9755363  41.6967087  46.5496521  60.8266563  42.1251183
  47.5364380  59.9718628  41.3592415  11.6335983  29.0203552   4.7799268
  11.6406488  28.4790936   3.9904854  12.5538187  29.0824203   5.0360017
  84.6427307   3.7205009  73.4763412  84.6760864   2.7890248  73.6942215
  83.9970245   3.7787850  72.7721405  51.5122337  10.5088606  77.3838348
  50.7230797  10.9546099  77.0759811  52.0145187  10.3341227  76.5879669
  86.7736816  63.5065269  56.6008682  86.4183960  62.6524963  56.3546219
  86.5003662  63.6264381  57.5103455   0.2123240   8.8900003  55.7976341
   0.5266740   9.5594769  56.4052658   1.0086828   8.5144005  55.4221764
  72.4268799  10.6179590  20.2667332  73.1409149  10.5115356  19.6381950
  72.7471771  11.2757149  20.8839836  57.7655983  11.2245522  81.5625687
  58.4976044  11.4173470  82.1484222  57.7986069  10.2755098  81.4423141
  80.2258759   3.0874770  54.2926979  80.7729034   3.7827888  54.6581192
  79.3355179   3.3195372  54.5565987  18.7165375  50.9380112  42.9321899
  18.6456394  50.8627090  43.8837852  18.8114147  51.8770409  42.7726479
   1.3131790   0.5657276  46.3725319   0.3882484   0.3413103  46.4743729
   1.4347283   1.3373840  46.9257088  78.5821915  37.2502403  28.5424023
  78.6139145  37.9867249  29.1529884  78.0889664  36.5745430  29.0075798
  37.2845917  54.6188774   4.5509496  36.9567184  54.5135155   3.6578488
  37.5417061  53.7361946   4.8173938  -0.0574674  30.2716675  14.2199841
  -0.2745175  29.3509216  14.3660879   0.8860387  30.2726479  14.0586548
  34.4274788  62.2941093  63.6216927  34.0992966  63.0158882  63.0854416
  34.0593033  61.5085678  63.2172165  56.8862724  38.8431206  19.2772541
  56.6335068  38.1316376  18.6889191  57.2392044  39.5187302  18.6982727
   8.5046864  63.0514946  39.1495743   8.8749313  63.2028656  38.2799530
   8.4032021  62.1012840  39.2046013  20.1756649   3.4864519  49.5191841
  20.8662510   2.8272700  49.4498940  19.4220161   3.0083323  49.8650856
  84.9430695  68.6615829  41.9899902  84.1405411  68.5435867  41.4818077
  85.0768661  69.6091843  42.0098190  20.9263058  15.6847973  40.5271759
  21.5134983  15.1402588  40.0028534  20.7198219  15.1470566  41.2916603
   3.7601299  35.4482193  58.8812866   4.3310609  35.2485085  58.1394081
   3.0060194  35.8900833  58.4910202  55.7439651  17.2008076  59.2399101
  55.2695808  16.3738194  59.1545792  55.0580254  17.8669987  59.2835922
  51.8268051  64.5946960  61.9937096  51.2704735  65.1795044  61.4791946
  52.3546715  64.1321793  61.3428116  82.2003708  68.0785217  50.7082520
  83.1150589  67.7980728  50.7386475  82.1918564  68.9180450  51.1679802
  65.3721390  40.2926750  67.3549652  64.6743088  40.5452042  67.9595261
  65.5859375  39.3920593  67.5987244  36.7623634   4.2371497  67.4438629
  36.2091408   3.8312829  68.1112823  36.1445084   4.6193767  66.8206558
  48.8535461  65.5003433  24.6404381  47.9040184  65.5461273  24.7524014
  49.0743980  66.2881546  24.1436443  27.6471214  19.6128864  80.8775177
  27.1196804  19.7998905  81.6540909  27.0072784  19.5036297  80.1740341
  81.1110611  22.3937302  79.5371094  80.5401764  22.5364685  80.2920609
  81.9801941  22.6551437  79.8412476  62.2379150  45.9801483  85.4102097
  61.5451584  46.6368790  85.3393021  62.0781288  45.3835487  84.6789322
  80.6211700  21.1594009  62.7573967  79.7704010  21.4288101  63.1035767
  81.2560959  21.5129929  63.3803482   1.0497131  66.9592361  13.6385345
   1.1776116  66.1726761  14.1688137   1.9064728  67.3860397  13.6326256
  30.1938114  52.1625595  29.1799202  29.5531387  51.4657326  29.3220520
  30.8567200  52.0198784  29.8555126  58.9636078  22.4915028  38.6537132
  58.1328621  22.0719738  38.4299088  58.9145126  23.3545170  38.2425804
  19.1938629  62.3091278   3.1725178  20.0585938  62.2751732   2.7634695
  19.3370647  61.9870453   4.0624552  47.1586914  49.6232033  44.7623940
  47.2212944  49.2683868  43.8755913  46.2657051  49.4185677  45.0397530
  18.6204357   3.3767383   4.2305942  18.1354637   2.5529063   4.2789130
  18.6991825   3.6620576   5.1408820  75.3565369  63.5761490  28.4508686
  75.8599167  63.4935226  29.2608128  74.7235336  64.2709122  28.6320992
  73.6291122  55.0315819  60.6624947  73.9593353  54.1442070  60.8030128
  74.4051819  55.5884933  60.7240334  55.5647774  45.2249756  27.3851528
  55.1275940  44.4236755  27.6732864  54.9023895  45.6880646  26.8722916
  85.3763809  13.4111967  85.8175812  86.3176270  13.5411291  85.9333344
  85.0626373  13.1485634  86.6829300  48.5849304  49.3153801  22.2648678
  49.1150131  49.3449020  23.0613441  47.7506256  49.7107048  22.5176296
  62.6044846  22.0736485  53.6577721  62.6568489  22.7962761  53.0322342
  62.6565361  21.2850914  53.1176796   5.7073526  62.5938683  42.1176872
   5.1005244  62.9574318  41.4728508   6.5336576  62.5013504  41.6434593
  10.8888931   5.2280836  78.3233795  11.4895782   4.7989683  77.7140579
  10.2083941   5.6033359  77.7645035  77.4302368  16.7606850  42.3438911
  77.2094727  17.6920128  42.3327484  77.9351807  16.6438389  43.1486320
  48.8155861  31.3138714  82.8007202  49.2050476  31.4323864  81.9344025
  49.2839584  30.5670757  83.1737518  43.9210434  60.7715340   7.3582420
  44.5225029  60.9496803   6.6352344  43.1112480  60.4902840   6.9323769
  80.5993042  39.3027458  65.8394547  79.8553543  38.7735558  66.1270828
  80.9426727  39.6907272  66.6443176   4.6576314  24.9153080  16.2861595
   4.3156862  24.1655674  15.7991314   5.4595466  24.5897522  16.6950302
  59.7854118  63.5058250  25.5378036  60.5489311  63.6472664  26.0975056
  59.1017342  64.0545273  25.9221706  16.8485947  16.8318233  26.3166656
  17.6611691  17.1229515  25.9029026  16.8043652  17.3287792  27.1335564
  78.8582458  61.0923615  88.6338959  78.8025513  62.0465126  88.5816956
  79.6293259  60.8685799  88.1127472  16.9054699  57.9605408   4.9161248
  16.2112026  58.4979134   5.2975073  17.6107712  57.9862137   5.5627480
   2.1126304  61.2313995  86.0407791   2.7069123  61.9601974  86.2194214
   1.8824595  60.8924675  86.9058685  17.7460270  59.5590401  42.5521278
  16.8584423  59.7409668  42.2433701  17.9089317  60.2258530  43.2192535
  20.7644672  12.6899633  88.5291595  20.5499935  13.6227465  88.5412903
  20.5045872  12.3731747  89.3942261   7.0433288  63.5550575  25.1936016
   6.4278669  64.1465912  24.7605610   7.6772032  63.3287582  24.5129948
  43.9722443  17.7375221   8.1462994  43.6359978  16.8800411   7.8857265
  43.5447578  17.9181137   8.9834814  50.3011284  40.8334236  28.7620354
  50.0328827  39.9153900  28.7234306  49.5130692  41.3018456  29.0373135
  86.5430832  15.9752731   6.3520870  85.6076584  16.1166382   6.4977708
  86.9570389  16.2492332   7.1705141  83.0538177   6.4244680  28.7169209
  83.9339905   6.4934635  28.3471127  82.5755310   5.8749919  28.0959930
  56.0324783  30.0970535  72.2512817  55.5428391  29.2894440  72.4070129
  56.3775787  30.3375034  73.1111221  29.6414299  36.5085411  13.1356049
  30.5371361  36.8426018  13.0871906  29.3186569  36.8107300  13.9845638
  19.5950127  36.6966515  12.0234241  20.3353119  36.1681328  11.7253304
  19.1348534  36.1343956  12.6466055   1.1362900   6.2241011  60.5962791
   1.3996651   6.4512405  59.7044983   0.4911500   6.8905749  60.8325806
  29.3814888   0.2761302  43.6020088  29.5286331   0.8313604  44.3677101
  29.5232868   0.8567390  42.8543358  36.3896141  65.3152542  48.0624046
  36.8591652  65.7871933  48.7501755  35.4986649  65.2237167  48.4001389
  79.2905045   5.7675343  67.6284561  78.4373703   5.7687173  67.1944046
  79.9150696   5.5771389  66.9285355  40.8362122  39.4538345   2.2107718
  41.3894730  40.0101128   1.6624198  41.1473351  38.5647125   2.0407991
  35.9587135  40.6702919  69.0289612  36.6451645  40.0160294  68.8987427
  35.9085770  40.7790794  69.9786377  73.4955978  36.0521698   7.5911250
  74.1881714  36.7128258   7.5807385  72.8855591  36.3339500   6.9094481
  40.5714569   4.6157751   3.5565093  41.2693634   5.2702622   3.5281825
  40.3821411   4.4275737   2.6372855  53.8118591  49.6114731  15.1088419
  53.7449379  49.8678513  16.0286369  54.2594643  50.3452721  14.6876221
  30.1695442  42.6027946   0.0184273  30.5194206  41.8067589   0.4186103
  30.9249382  43.0093193  -0.4062485  26.3032551  47.6344223  17.1865616
  26.7438450  48.0586624  16.4502621  26.8566227  46.8818359  17.3954315
  58.4783401  20.5513382  51.1365204  57.9787598  20.7096996  51.9375038
  57.8224564  20.5604668  50.4394073  12.7882471  13.3869381  36.8373222
  12.1352034  12.7571707  37.1425400  13.3823185  12.8708439  36.2923851
  50.4790764  54.7952309  77.7961960  49.5757523  54.4959030  77.8993301
  50.9593887  54.3527756  78.4960251  34.5691757  54.9687500  63.4655838
  35.2089348  55.0538597  64.1724701  34.9228554  55.5057411  62.7565117
   3.0361671  26.0543289  28.4541378   3.4617641  25.2660198  28.7912846
   3.4382370  26.7717171  28.9439602  58.9107094  62.2124100  82.7585526
  59.1053543  63.1046867  83.0452271  59.7483940  61.7532387  82.8192215
  15.6398783  60.3886223   5.4952779  14.8676958  60.5963097   6.0214257
  15.4334688  60.7257805   4.6235261  75.0228195  14.5187445  85.7748337
  75.4281158  15.3104029  85.4209366  74.1422272  14.7939730  86.0298386
  47.0577049  44.0710258  11.3240948  47.3042755  44.5351524  12.1241093
  46.3914375  43.4444275  11.6063900   2.0220008  63.5648193  59.6652832
   2.0883086  63.0733643  60.4840050   2.6961765  63.1843643  59.1022797
  49.4507294  26.8609791  70.8049088  49.5848732  26.0567341  71.3063354
  48.6535149  26.6986504  70.3006058  42.9475060  26.6509876   9.9450169
  43.1179352  25.7369251   9.7176933  42.1054115  26.6317139  10.3996973
  10.3582401  62.6312981  89.0195465  10.7387047  62.2568817  88.2250137
  10.7338142  62.1137581  89.7318192  36.0399551  43.5817757  60.5586662
  36.3597260  42.6937141  60.3995399  35.1093445  43.5444298  60.3377419
  44.8773003  66.8060684  82.8174820  45.3942261  66.0045319  82.7365341
  45.5151596  67.5132141  82.7209549  69.2960510  42.6511955  58.4017334
  68.6811218  42.2805481  57.7687073  68.7604294  42.8441849  59.1712112
  52.2578316  47.6333694  23.8228340  51.9226685  46.7512512  23.9833488
  51.5460281  48.2130585  24.0940037  42.9823036   6.9537425  83.4442368
  42.6899223   7.0205431  84.3532410  42.2217255   7.2202902  82.9277954
  61.1946678   3.4855194  81.0683212  60.9090157   3.8832774  80.2458725
  61.6207199   2.6699274  80.8046570  67.9843826  50.2368202  74.9586105
  67.8873825  49.4107475  75.4323502  68.4625549  50.8047142  75.5628204
  61.2104454  43.8307190  44.1864624  61.7132645  43.2063103  44.7094574
  61.0772400  43.3884163  43.3480988  85.2070236  24.9727516  63.4853096
  85.2041245  24.3414021  64.2047653  85.6243744  24.5076790  62.7602158
  58.5449905  51.3381844  42.7562065  57.7874069  50.8162651  43.0205917
  59.1399269  50.7080078  42.3498116  77.5097580  11.1951885  65.2635345
  78.2461624  11.5524111  65.7598648  77.0442657  11.9655504  64.9378281
  65.1679230  30.3480701  73.8416748  64.9363098  30.2029724  72.9243164
  64.3503647  30.6272526  74.2538452  79.6068420  13.3704567  83.4727249
  79.8050842  14.3010464  83.3681564  79.9904633  12.9555569  82.7001190
  29.5687370  25.6507473  73.5414658  29.2616463  25.4699974  74.4298630
  28.9321289  25.2151260  72.9747238  34.1318130  22.0919056   7.1632380
  33.3086166  21.9780865   6.6882434  34.5151711  21.2152824   7.1915751
  55.9481964  50.1879921  46.8492088  56.1072502  49.8610420  47.7346687
  56.6436882  49.7964630  46.3207893  17.8197708   3.6266997  85.0866165
  18.2116756   3.9564543  84.2779770  18.5152187   3.1134174  85.4978638
  72.5908279   5.0398145  85.5967484  71.7194061   4.6892176  85.4125214
  72.8596039   4.6014509  86.4041061  54.4527321  32.8528252  63.4181366
  54.4156837  32.7820244  64.3719940  53.9825478  33.6626129  63.2196312
   5.4869881  32.9733429  46.7812080   5.8582354  32.4440193  47.4870567
   5.7352114  33.8716545  46.9995041  80.3802185  67.2147827  85.7268982
  79.7632523  67.6379395  86.3239975  80.2440414  67.6569061  84.8889160
   4.8129435  67.7193756  32.0652084   4.1162481  67.0651932  32.1190453
   5.0525875  67.7383575  31.1386852  21.7359562  63.1090813  88.5161972
  22.0429993  63.9793854  88.2621765  20.7934265  63.1298294  88.3505554
  71.7037277  13.0512486  74.5076752  71.2122650  12.2304926  74.4751968
  72.1948853  13.0040188  75.3279037  58.5429726   2.4043486   3.4257338
  59.4159775   2.0147560   3.3776746  58.5035477   2.7968822   4.2978549
  85.6269226  19.2525177  35.9021072  85.3285446  20.1199570  35.6287041
  86.5794144  19.2881527  35.8142128  65.9346542  68.8728256  75.9690475
  66.7149353  68.3409805  75.8123932  66.2431870  69.5955658  76.5155716
  58.8851318   3.7038715  17.6221142  59.7675438   3.9273691  17.9181404
  58.8898201   2.7490704  17.5545502   4.8896308  55.5144234  87.8770752
   5.5984783  55.0846329  87.3984833   4.0916348  55.2223358  87.4364853
   0.8418737  42.1625633  54.3400536   1.3206608  41.5940628  54.9432144
   0.4593188  42.8379364  54.9001884   6.3627505  54.3505211  64.1617584
   7.2701550  54.0464287  64.1811829   5.9039817  53.7745514  64.7733307
   0.2451961  24.7061768  20.6626568   0.2016811  25.1489277  21.5101891
  -0.3516824  25.2022152  20.1023769  69.6895218  29.9419231   7.8087282
  68.9710999  29.5487232   7.3132501  69.2731552  30.2948952   8.5950365
  35.2331772  20.0910015  82.3086624  34.3673897  19.7180023  82.4745331
  35.7942467  19.3321629  82.1486740  61.3811455  32.7680664  31.4333973
  61.1323013  33.6923447  31.4374332  60.6878433  32.3355408  30.9349174
  60.5271034  37.8122101  43.0105972  61.0309639  38.2158279  43.7173157
  59.9954529  38.5257072  42.6577530  23.0386314  11.4302216   0.3923627
  22.1478500  11.4875755   0.0467496  22.9279137  11.1118059   1.2882335
  43.1833954   1.6418793  41.4455986  43.0830498   2.1452658  42.2535362
  42.2896843   1.5262392  41.1228905  28.7784195  67.6940918  76.6614838
  29.2465534  66.8591843  76.6655045  27.8685894  67.4594193  76.8441620
  52.4768410   2.9062605  30.6555462  53.2606583   2.3575358  30.6278648
  51.9775887   2.5732977  31.4012756  50.2682381  64.2541656  58.6425438
  49.8166733  63.8887291  57.8817673  51.1111832  64.5519638  58.3005104
  56.8345337  50.4854813   6.1438489  56.9625473  50.9195709   5.3003983
  56.8315735  49.5514565   5.9345064  17.4722824  37.9336205   4.4451456
  17.7706776  38.4244041   3.6794267  17.2771320  38.6050491   5.0988507
  13.2224016  19.7803879  29.3624001  13.3873186  19.5625019  30.2797642
  13.9503164  19.3803806  28.8866215  58.5079956  70.4841309   8.3375492
  57.8067017  70.3927994   7.6925087  58.2813835  71.2746506   8.8274107
  46.1692543  67.7167282   2.1505318  45.4757233  67.0958176   1.9275682
  46.8496017  67.5612946   1.4954013   9.3306971   6.7274199   5.5007625
   8.8268318   6.3101058   6.1994767  10.1685238   6.9472604   5.9081302
  21.6005249  50.5976791  31.9173717  21.2999382  51.4902534  31.7465134
  21.2890072  50.4052086  32.8017616  81.3017349  55.2116966  79.7820358
  81.0497513  54.4008369  80.2238922  81.7776108  55.7090187  80.4472046
  54.7481842  38.3084602  47.2396812  54.2674141  39.0415840  47.6238937
  55.1057930  38.6580048  46.4234886  63.7869568  38.9650841  18.2310314
  63.2453384  38.4714127  18.8467979  64.2730637  39.5805855  18.7797470
  24.6961784   9.8112764  20.0856705  25.3684788   9.4437180  19.5119591
  24.2906876   9.0488367  20.4985790  38.1943092  34.0998268  18.7305927
  38.6239090  33.3664055  18.2904072  37.3725166  33.7344055  19.0582447
  60.3365211  71.4641800  25.8854198  60.9937515  70.8330917  25.5921497
  60.6147690  72.2956696  25.5014381  86.5743027  67.6040268  44.3163757
  86.1848679  66.8519440  44.7624054  85.9379044  67.8376160  43.6406021
  26.8491478  43.8773689  15.2111807  27.6534958  43.5508919  14.8078575
  27.1486740  44.5049706  15.8689327  82.9921112   0.9687608  36.4722443
  82.8982544   0.4444273  35.6769447  82.1251831   1.3499018  36.6115417
  76.9993515  13.7107868  56.3106384  77.5740128  13.2038918  56.8842697
  76.1859818  13.2070312  56.2806587   9.9473658   6.3059850  64.2689667
  10.9024210   6.2824831  64.2093964   9.7250080   5.5722866  64.8420944
   3.0753701  69.8480377  29.9660969   3.7701023  70.2633209  30.4770947
   2.2676251  70.0894775  30.4193993  10.8656216  27.8371410  87.3906860
  10.6474161  28.0438805  88.2994614  11.5452566  28.4696369  87.1577148
  63.9669952  36.2083130  82.0846024  63.4821854  35.6500244  82.6924744
  63.5850792  37.0781670  82.2017517  67.0107574  36.2189064  64.3489609
  66.8897018  36.9202881  63.7089310  66.3739548  35.5507507  64.0954056
  21.6027279  47.6886253  70.6196289  21.5866756  47.0942154  69.8695297
  20.7636814  47.5447197  71.0572662  69.7440262  66.9264374  61.9076920
  69.7821732  66.9637604  62.8634033  69.2268677  66.1433716  61.7190323
  52.6713791  36.9906158   4.5858054  52.4175377  36.7282066   3.7009692
  53.5209274  36.5722237   4.7252665   3.8503232  60.7734375  71.8645935
   3.4537649  60.7164001  72.7339172   3.2728717  61.3599472  71.3759308
  76.8530731  43.6773872  75.6879959  76.3541870  43.7639961  74.8756943
  77.4892197  44.3918839  75.6557159  54.5379982  63.6683159  85.5643158
  53.8390007  64.2517776  85.8596191  54.0817757  62.8871078  85.2515717
  85.9795837  52.6565514  72.9477692  85.6532211  51.8973541  72.4647141
  85.5772400  53.4082832  72.5127411  31.3927937  50.6846504  14.7511549
  31.1982555  51.5592079  14.4142075  31.9760494  50.8385849  15.4943571
  39.3482208  17.6031990  74.5906448  40.2357750  17.7021999  74.9351501
  39.2573318  16.6641006  74.4291992  28.5049763  29.2112637  89.2440643
  28.7824326  29.9713421  88.7326660  27.6201401  29.0224056  88.9316101
  21.7272053  64.7147217  25.7244759  22.3907261  65.2785110  26.1221066
  21.0618610  65.3208771  25.3987045  38.8258705  26.6670742  85.8794861
  38.2299309  27.3645496  85.6063232  38.2621803  26.0267868  86.3136673
  81.3987350  30.6732006  28.7152195  80.9991989  30.3429813  27.9105091
  80.7491760  30.4956226  29.3954926  26.9362850  47.9253426  61.8338203
  26.4376812  47.7276306  62.6266212  27.6594944  47.2983551  61.8431168
  17.5258713  61.6416855  85.2019882  17.7784710  60.9093704  85.7642517
  18.3562336  62.0341377  84.9323425  73.2174377  54.0349541   1.0490237
  73.7682266  53.8110237   0.2988777  72.4256821  53.5103912   0.9298996
  13.8995743  14.9781017   9.8242216  14.0933838  15.7326040   9.2679882
  13.5626926  15.3587294  10.6353111  52.0418320   1.4748483  15.7157240
  51.1319466   1.6392425  15.4680967  52.5504608   2.0764627  15.1720438
  41.1428185  24.9791489  42.2383156  41.2283363  25.1841927  43.1693764
  41.1197014  25.8329372  41.8061752  43.7557106  22.9981899  84.7736206
  43.1944389  22.2961369  84.4444885  44.5255318  22.5469208  85.1199722
  80.8434753  27.5713177  87.0819168  80.3850632  26.7871742  87.3839264
  80.5455093  27.6905670  86.1801300  59.1388092  11.3239450  74.9801941
  58.3313026  11.0820198  75.4336700  59.5375366  11.9901333  75.5400543
  18.9763203  22.1441727  38.1254234  19.7003307  22.5144691  38.6303177
  18.5027924  22.9061050  37.7915649   0.6435074  19.9662724  53.5142746
   1.5888923  19.9268169  53.6589203   0.2986723  19.2009907  53.9743423
  19.1636562  67.2816391  50.8733406  18.2715645  67.1541824  50.5506020
  19.0510883  67.6035156  51.7677422  18.3921528  49.3596802  47.7064247
  18.5898266  48.8328400  48.4807625  17.4464054  49.2688980  47.5900154
  29.5005856  17.8530140  22.9322510  29.6922016  18.1133728  22.0312920
  30.3464928  17.5806694  23.2879200  42.1375885  33.0224800  12.5948944
  42.2833328  32.1061211  12.3597860  42.7333717  33.1794777  13.3274431
  72.8749084  60.5018120  81.5967484  73.0550537  60.8139000  82.4835281
  72.8244247  59.5498848  81.6834869  56.1013451  10.3635340  64.6082764
  55.2529373  10.5940981  64.2297516  56.7415123  10.7918949  64.0400162
  25.5208092   2.4818816  24.7668476  25.4537487   1.5975249  25.1269150
  25.0013638   2.4533703  23.9633598  57.7069550  27.8463936  63.1375084
  57.7565155  26.9169159  63.3607712  58.6157570  28.1045513  62.9836655
  60.2793503   7.0279465  64.7106094  59.4715805   7.2470913  65.1750565
  60.2118721   7.4963937  63.8786011  84.1681442  10.4677124   1.3879205
  83.3923645  11.0105124   1.2472939  84.2735596  10.4424076   2.3389609
  86.1154022  20.2205906   9.6010246  86.5058517  20.9778671   9.1647711
  86.5224228  20.2070236  10.4672728  53.8533478  65.2481689  64.9201050
  53.6141243  64.4142990  64.5155487  53.0849724  65.8048325  64.7937698
  71.1663818  23.1328220  12.5435486  70.7275543  23.0595322  11.6960297
  71.0714798  22.2659264  12.9381590  73.4529266  70.2421341   0.2945702
  72.9433441  69.9686584   1.0573059  73.3658829  69.5169983  -0.3241612
  26.1228104  39.5461731  75.8347015  26.0633278  39.3491554  74.8998871
  26.9522572  40.0146408  75.9284363  15.4873848  69.6814346  21.0761414
  14.5751886  69.8865433  21.2812252  15.8955793  70.5333710  20.9218292
  25.3564167  14.4295368  86.7871780  25.0060253  14.6182404  87.6577225
  25.1602974  15.2139454  86.2748489  35.0782623  48.2972794  86.0293884
  34.3105392  48.1738625  85.4711838  35.7397461  48.6716499  85.4475708
  68.2627869  18.3691044   2.1535239  68.4577179  18.3758545   1.2164063
  69.1203995  18.3237877   2.5762317  24.1202526  15.9904079  11.4476881
  23.8962116  16.8227806  11.0315218  24.5330944  16.2395191  12.2745724
  63.9318695  68.3847427  23.2417259  63.8950882  68.0761871  22.3363667
  64.3832321  67.6856995  23.7148514  39.3187408  14.8470621  74.1487350
  39.9830933  14.2234077  73.8556061  38.5569305  14.6611547  73.5998154
  78.9656067  60.7954292  53.3383522  79.5311279  60.9955254  54.0842628
  78.7471771  59.8696022  53.4449577   3.1445725  30.2051182  57.7607231
   2.3343472  30.1971989  58.2703362   3.7308798  30.7805882  58.2519569
  66.7481613  22.2955189   9.7015429  67.4728928  22.9206753   9.6883955
  65.9968872  22.8060856  10.0034323  17.5588779  54.4170914  73.4262848
  16.6870365  54.0708466  73.2359314  17.6724262  54.2765198  74.3662796
  67.3486633  64.9624786  19.2723045  66.5498428  64.4437180  19.3671875
  67.8311844  64.5322800  18.5663776  36.0829315  48.5918617  22.8833313
  36.0173492  47.7803841  22.3799057  36.6301575  49.1639481  22.3452911
   7.1149058  60.0190582  41.1845016   6.3275723  60.5207939  40.9733162
   7.4755311  59.7698555  40.3335724  84.7249374  19.3848038  54.9667397
  84.1828232  20.1736774  54.9618454  84.4915695  18.9388733  55.7809410
  75.1911697  40.2628937  46.8764725  74.5850830  40.4380569  47.5963402
  75.2356033  41.0886879  46.3944702  61.1878242  60.1718712  17.3694286
  62.1277695  60.0311813  17.2556782  61.0326920  60.0122871  18.3003960
   0.0788323  33.4670753  66.5139618  -0.6463590  33.7500343  65.9569473
   0.7226823  34.1720505  66.4454269  44.4422302  39.4544754  85.2559509
  45.3130417  39.1863556  84.9626389  43.8556023  38.7810936  84.9114914
  57.7605286  45.1693954  53.5546112  58.6546288  45.0087776  53.2529182
  57.3918152  44.2960014  53.6867752   5.7628856  50.3162766  55.3049736
   5.6812344  51.1732368  55.7235222   6.1957564  50.4974632  54.4706917
  13.4768581   3.8949025  87.1814499  12.5467234   4.1128168  87.2413940
  13.7549000   4.2606235  86.3417053  57.2260475  51.7282028  36.1046181
  57.3315773  52.6717720  36.2261429  57.7438889  51.3367195  36.8080482
  75.8509293  70.3043823  53.8417587  75.8598480  70.2881165  52.8847389
  75.2991486  71.0544739  54.0634232  16.3748627  48.7659492  14.0461140
  16.3090477  49.6735535  14.3430185  17.2716064  48.6846123  13.7213573
  45.3915138  63.1008949  56.2372932  44.4994583  63.0733643  56.5832863
  45.9428139  62.8410759  56.9753952  49.6092339  52.9124870  31.8631363
  49.3259583  52.0035439  31.7641125  49.7178993  53.0280113  32.8071060
  37.8984375   2.7118392  86.9310226  37.6056747   3.4509981  87.4640961
  37.1267738   2.4629326  86.4222870  32.8387947  34.9048157  71.8575974
  33.6783028  35.2235680  72.1890411  32.3836021  35.6928749  71.5609589
  79.1735382  46.5623894  46.0635262  79.8607407  46.6564980  46.7231750
  78.7535553  45.7280273  46.2725372  63.5293961  62.3220711  69.3101883
  64.1313553  62.8361511  68.7720413  63.8427544  62.4469109  70.2059860
  79.4543686  16.6841469  26.9652309  78.6861801  16.7960892  27.5252132
  79.0985260  16.6314983  26.0781937  34.4016457  45.8886147   6.5574942
  33.5133667  45.5804214   6.3780198  34.3313293  46.8431320   6.5438147
  29.0212917   7.7576313  85.8522034  28.4526100   7.8477063  86.6168747
  28.9491730   8.5980597  85.3997574  28.7667065  38.0169067  16.1051521
  28.0806065  37.4546165  16.4647713  28.3507061  38.8741951  16.0144043
  68.5997696  36.4646873  35.9216347  68.4615631  35.6971703  35.3666153
  69.4970169  36.3705139  36.2415009  43.3749733  68.0158081  84.6794128
  43.3482552  68.9624481  84.5401688  44.0536346  67.7046661  84.0803757
  52.3428688  24.7375717  29.7475929  52.3280716  25.1160202  28.8685093
  53.1592216  24.2388210  29.7799320  42.7990189  57.5332985  81.7580109
  43.4841156  57.5107689  81.0899048  42.3325768  58.3531532  81.5951996
  21.8621578  12.1637917  36.5739975  21.3958454  12.4058790  37.3741112
  22.5851040  12.7887974  36.5196953  36.1546936  57.6565895  17.4860191
  35.6813622  58.0738945  18.2057743  37.0380630  58.0217171  17.5367241
  76.2907944  67.0641174  34.5153580  76.8140182  67.8108521  34.8066711
  76.3928909  67.0568466  33.5636444  65.9483719  25.4321518  88.6939545
  66.7350922  25.9614353  88.5629349  65.9517746  25.2252941  89.6285324
  32.9885483  61.4013100  55.6733437  32.7125015  61.2841873  56.5823593
  33.8960533  61.0973053  55.6575508   3.9902861  51.1526718  43.3355522
   3.0399961  51.1069107  43.2302589   4.1853085  50.5206528  44.0274696
  79.5458145  40.5569000   0.4217586  79.6622849  40.9561768  -0.4403573
  79.4634476  41.2992630   1.0203760  10.4333830  37.5640259  32.8400764
   9.7005968  37.2548141  32.3074913  10.1723604  37.3725243  33.7408676
  36.2598953  68.8261795  84.8884811  35.6815186  68.0753632  84.7543716
  35.8353882  69.3351822  85.5790939  59.1996040  35.0673866  43.2121506
  58.5636330  35.4471130  43.8184319  59.8525429  35.7561378  43.0875435
  74.8021545  40.2666283  56.0999260  74.6483917  41.0904083  55.6373520
  74.8698959  40.5181770  57.0209961  40.5513840  42.9508133  38.1347771
  40.1017036  42.9971390  38.9785042  41.4573479  42.7368279  38.3576508
  60.7484741  65.0172577  15.3439627  60.6644554  64.1682358  15.7779408
  60.4058647  64.8705292  14.4623032  75.0717697  11.8285170  66.9919128
  75.6482315  11.0654888  66.9505920  75.3551788  12.3824787  66.2645645
  79.6742706  45.3024368  15.8768139  80.2776489  44.7211609  15.4139004
  79.8403778  45.1310539  16.8037815   3.4400923  47.9325371  35.8623314
   3.7027016  48.8389244  35.7019272   2.6369832  48.0035934  36.3782768
  12.0042324  18.3951511   6.9352045  11.9123259  18.0599365   6.0433435
  12.0518227  17.6110058   7.4820881  11.6765671  36.5442276  17.3448582
  12.5020380  36.9659462  17.5835762  11.1231384  37.2603226  17.0331554
  64.4757767  52.8196220   8.5390310  64.9126816  52.1185951   8.0553932
  64.9257050  52.8444481   9.3835306  78.0051117  67.6492844  82.6048584
  78.7543640  67.0926666  82.3926315  77.2410278  67.1182785  82.3802643
  74.9413147  62.9924736  71.1209869  75.5681381  63.7158394  71.1124573
  74.5712280  63.0066376  72.0036316   3.7513869  38.5739174  67.1760864
   3.8870897  39.3648415  67.6978683   3.2190530  38.8640518  66.4353561
   2.7915232  30.4084377  27.7098045   3.4619253  29.9194317  27.2326603
   3.2820420  31.0568905  28.2149105  43.4115067  69.8896332  50.6566429
  43.7534294  69.1966476  50.0917664  43.4775620  70.6844635  50.1273842
  76.1840210  19.3755474  28.6574535  75.7846375  20.1858044  28.9740162
  77.0451050  19.3539238  29.0749359   7.4274211  45.7641754  87.4832001
   6.7517943  45.6334343  88.1485291   8.0766697  45.0845528  87.6643600
  80.5281601  65.8107529  16.2904167  80.4825211  66.2243576  17.1524372
  81.2814713  66.2223129  15.8668766  84.4190063  22.2302895   6.7972641
  84.6184158  22.1031837   7.7247944  84.0987167  23.1306381   6.7423296
  73.9698792  52.2735634  60.0527954  73.8853302  51.6409874  59.3394012
  74.7559891  51.9986916  60.5247231  47.2362785  27.9280529  84.4146118
  47.4532928  27.0510750  84.0983124  47.4686127  28.5084057  83.6897354
  44.1635323  59.1079788   0.8398050  44.2149506  59.9770622   0.4419585
  44.2129860  59.2723389   1.7814907  23.4703102  56.6386642  52.5421181
  24.2703743  56.1143799  52.5775108  23.6963463  57.4514160  52.9944191
  24.9177914  35.5825844  15.2538385  24.3999119  34.7820625  15.1690016
  24.4437294  36.2308502  14.7330246  84.5403824  49.5124741  41.5276527
  84.6524811  49.2711830  42.4471321  84.3711243  50.4544106  41.5461349
  49.5819626  49.9423599  28.1403198  50.1166534  49.1580849  28.2638130
  49.1029510  50.0377350  28.9635372  82.8793106  11.2498884  40.7585945
  83.5432587  11.8211069  41.1447487  83.1870728  10.3633442  40.9471474
  59.9671249  26.1068134   7.2770638  59.0520859  26.1278591   6.9969015
  60.1354637  26.9876575   7.6117415  32.3645706  31.3338356  21.5671425
  32.3380890  32.1322479  21.0398216  32.1624603  31.6268444  22.4556980
  63.4406586  69.1167908  50.5551529  63.4669380  68.3392639  49.9974937
  64.3030014  69.1434479  50.9697495   6.2381940  59.7297058  51.0729866
   5.3550744  59.5128555  50.7741432   6.2172985  60.6760521  51.2152023
  81.2444229  15.3731527   3.7093053  82.1558609  15.5461369   3.4735246
  80.7487030  15.5797329   2.9169550  72.4251328  38.8141937  86.3260651
  71.5081100  38.7941132  86.0523987  72.5823517  39.7263184  86.5700760
  37.0101585  38.7745209  17.1851044  36.9155998  38.1219826  17.8789921
  36.1558800  39.2041855  17.1423512  65.6361389  64.8158188  75.1691895
  65.2977905  64.3369217  74.4126053  65.8979492  65.6663818  74.8167419
  36.0006790  48.4169426  43.8167038  35.8883247  48.0280762  42.9492989
  35.9682503  49.3609962  43.6619835  62.3781509   1.3016685  31.1105022
  62.5203018   2.2049828  31.3934307  62.2309914   1.3665711  30.1669102
  28.6330433  59.2052689  50.8019753  27.7810135  59.6403503  50.8333092
  28.6926613  58.8592072  49.9115143  47.9588585  12.6398668  39.4996262
  47.2515182  12.5671015  40.1404114  47.9020004  11.8332014  38.9874802
  79.6902466  37.8994026  12.1376686  78.9752426  37.8464737  11.5034742
  79.7229309  38.8234634  12.3852005  80.8070984  56.5781479  24.8196697
  80.8081970  57.4610748  24.4499760  79.9971313  56.1839523  24.4959583
  39.4415016  61.4751625  41.3742104  38.6711159  61.4585762  40.8063507
  39.6893616  60.5554352  41.4685364  57.9435043   0.3238232  52.2585144
  58.5438690  -0.3593653  51.9600983  57.9407120   0.2404311  53.2120705
  23.1934147   8.9021177  64.4096298  23.8919811   9.2590675  63.8611565
  23.4933949   8.0220137  64.6369171  38.9981003  45.5845070  36.2511024
  38.5950775  45.7162247  35.3929329  38.4410934  44.9349670  36.6801414
  84.2179642  11.3967876   8.5788794  83.5128708  11.1236191   7.9919705
  84.9126434  10.7544222   8.4339199  66.2807693  45.6372986  79.2788239
  65.3301773  45.7467041  79.2535553  66.5545044  45.7089386  78.3644028
  74.5700226  53.0228157  40.0683708  74.7626190  52.0894661  39.9789352
  73.8810120  53.1879463  39.4247704  83.5921631  48.1433258  68.1744080
  83.1655655  47.4624138  68.6946030  82.8926697  48.7653008  67.9741974
  80.9311295  48.9952469  28.7691193  80.9195099  49.2981873  27.8611965
  80.3446732  49.5955772  29.2294445  16.2235527  60.2079353  45.8907700
  17.0525341  60.6107025  45.6323204  15.6434746  60.3530121  45.1433105
  31.6936893  56.5930595  27.8628178  32.3831062  57.2538681  27.7974739
  31.4571972  56.4030762  26.9549580  70.2409744  21.1694374  26.4733562
  69.7635117  21.9601955  26.7242851  70.2785110  21.2054749  25.5175724
  25.6386700  26.5375347  22.8682537  24.8192959  26.6913643  22.3979416
  25.4511833  25.7919388  23.4384880  39.2746506  11.2983332   3.2083280
  40.0352402  11.5078192   2.6662514  39.5838966  11.4079704   4.1075368
  52.2475090  59.6781540   5.2178640  53.1625137  59.7731781   4.9533544
  52.2853889  59.5317268   6.1630392   0.9791179  17.1653786   8.7428789
   0.8950582  17.3760757   9.6728106   1.5250121  17.8664303   8.3868494
  29.2099171  32.5686302  12.8897209  28.6339169  32.6998863  12.1365767
  29.9956493  33.0740089  12.6812782  67.4904251  68.9014053  34.6318932
  67.6835251  69.4492722  33.8711166  66.7897644  68.3199081  34.3366432
  52.8621979  59.7225723  56.4393959  53.6336594  60.0470314  55.9748535
  52.7711296  58.8153534  56.1480331  43.4830856   1.2326467  11.2852459
  44.1765556   1.2099478  10.6258411  43.1896935   2.1437418  11.2930145
  11.1986704  22.4563866  76.7561340  11.7428331  22.4058056  77.5419846
  10.8353472  21.5761261  76.6593246  10.0562067   7.8136935  87.5830536
   9.6023884   7.8474340  86.7409515  10.4844084   8.6664257  87.6587067
  85.4988937   1.1029364  17.9788170  85.8944626   1.6864542  18.6263218
  86.2251358   0.5621426  17.6684284  84.2232590  53.0604401   2.3490436
  83.6717453  52.8253212   1.6028597  83.9640884  52.4507599   3.0399499
  34.5612373  65.0907898  58.4832649  35.3740845  64.8948746  58.0172958
  34.0279961  64.3031158  58.3762474  50.1300812  15.5286207   2.5256374
  49.6582718  14.9922600   3.1627769  49.8057404  15.2314806   1.6754937
  14.4861565   5.5612979  83.5325546  14.4000816   5.7167573  82.5919952
  13.9579477   6.2487726  83.9382706  75.5695877  16.9907589  56.1788712
  76.4597168  17.0059319  56.5305443  75.6811447  17.1306400  55.2385445
  46.5504875  63.8202095  88.1715622  46.3881454  62.9078407  87.9318619
  45.8075066  64.0579605  88.7262573  11.2605944  17.7917385   0.4502124
  11.4525356  17.7154217  -0.4844354  12.0886812  18.0677929   0.8430204
  75.0246048  31.9767265  65.5484695  75.2171326  32.2208099  64.6431580
  74.5004044  32.7030144  65.8860397  69.8148880  11.2149210  51.9680710
  70.6220551  10.8743858  51.5823860  70.0077438  11.2865009  52.9029045
  85.4084854   6.2537580   9.9256649  86.1703873   5.7863207  10.2680655
  85.2656708   6.9671121  10.5477276  11.7109928  50.5714531  49.7958679
  12.6021128  50.9209213  49.7988968  11.5889349  50.2343597  48.9083443
  52.0000267   1.1531751  18.5358677  52.0678520   0.2112510  18.6921062
  52.1379280   1.2502112  17.5936375  53.1965523   7.4639473  36.6150551
  54.0366707   7.0532994  36.4105949  52.5455971   6.8951488  36.2040100
  72.2662659   7.4317265  50.0749207  72.2298584   7.9177670  50.8987350
  71.3571701   7.3961973  49.7774086  33.4328918   7.6536746  84.2490616
  33.8269043   7.0747805  83.5964813  32.6335297   7.9754672  83.8322906
  74.1424179  50.0659523  13.1462488  73.7227325  49.7275391  13.9371786
  73.4337921  50.1245079  12.5054264   6.1354780  71.4731674  49.6947708
   6.2233233  72.3689575  49.3690758   5.4255075  71.0975571  49.1741104
  72.4414825  26.7981052  17.4607220  71.9491882  26.6162014  18.2612152
  73.1698456  27.3490219  17.7474480  24.9124641   6.3008046  17.3907738
  25.0845070   6.4213567  18.3246365  24.2341633   6.9447465  17.1871128
  59.3564453  24.2290134  35.6178780  60.1323395  23.7013435  35.4287109
  59.6626167  25.1341324  35.5608521  55.7495232  21.8430424  51.6109848
  55.5715485  20.9767590  51.9771919  55.3806114  22.4533787  52.2494392
  66.9582443  62.1560211  27.8625126  67.0019684  61.3281784  28.3410473
  67.7922668  62.2070847  27.3955650  27.4361267  56.6414795  35.9109306
  28.0484810  55.9953079  35.5591965  27.5825043  56.6202202  36.8566322
   8.1407614  13.9425735   0.6611368   8.7377806  14.5420246   1.1088618
   8.6612949  13.1533012   0.5117146   2.3093288  27.7719212  10.6393232
   3.2343471  27.5262184  10.6250830   2.2948303  28.6696472  10.3074961
  81.7544937  68.3686066  69.4583969  82.3957901  67.6586075  69.4878464
  81.0122375  68.0421753  69.9670410  19.3906956  66.3284912   1.0838059
  18.7193584  65.6693802   0.9074346  19.8881645  65.9726105   1.8200841
  72.5151443  37.0454750  13.0647440  72.9273300  36.1946259  12.9151039
  72.8749924  37.3422432  13.9006090  40.5262375  14.0747557  49.9831581
  40.7205238  14.8059072  49.3967285  41.3254318  13.5479536  49.9820671
  70.1093369  57.7357178  28.3739929  70.4780350  58.6174431  28.4274826
  70.8722229  57.1579285  28.3538532  44.4731064  31.8456135  24.9784718
  45.0636253  31.2828007  24.4777126  44.3560028  32.6198807  24.4279938
  16.0833416  27.2403355  38.4699516  16.9866886  27.5287342  38.3394890
  15.5611134  28.0363998  38.3710136   0.1453349  22.5905342  26.3621330
   0.4026147  22.9484100  27.2118187   0.6792003  23.0700798  25.7286854
  64.7518158  65.6257477  39.6414223  65.0188751  66.2882767  39.0042686
  63.8380013  65.8345184  39.8352966  78.4788513  69.5573578  54.2166023
  78.9078903  69.8543243  53.4141273  77.5567245  69.7820892  54.0924530
  72.4201813  17.0792351  69.0593262  72.8295822  16.2223301  69.1790543
  73.0895157  17.6054516  68.6219254  67.0868301   4.2369757  37.1387520
  67.2496796   5.1229353  36.8150444  66.6550064   4.3661184  37.9831963
  57.2756233  59.3461304  89.3061752  57.3754959  59.6383743  88.4001694
  58.0172310  59.7379837  89.7673721  75.1188583  63.2535744  12.1573372
  75.9388580  62.7746086  12.0372143  74.4892807  62.5860405  12.4298449
  16.1424866  50.1966515  31.3264503  16.6943321  50.7740326  30.7988815
  16.7409573  49.8136139  31.9678154  38.6686440  67.0065460  67.7546997
  38.6669083  66.9602585  66.7986221  38.6328964  66.0931702  68.0387726
   6.7496114   8.4705458  18.1590195   7.1903715   8.4076557  19.0063725
   7.3154531   9.0387173  17.6362972  41.7853241  32.4867744  18.8076553
  41.8162384  33.4429893  18.7772102  41.8854256  32.2147331  17.8954010
  25.5208435  66.3675003  45.8169861  26.1795254  66.1446304  45.1591835
  24.8540630  66.8545532  45.3328247   7.4011574   5.4629025  46.2219543
   8.0683641   4.8466997  45.9196968   7.7010183   6.3149753  45.9052734
  16.5973606  68.3269806  19.0603561  17.5027847  68.1390457  19.3075829
  16.2407246  68.8096619  19.8060532  48.9323463  11.5639820  42.4993324
  48.9052353  10.8455524  41.8673859  48.2154350  11.3770390  43.1054001
  56.6871948  17.4229603  73.8359528  55.9749870  17.1749802  74.4254456
  56.8678169  16.6297283  73.3315811  14.9408102  62.0606422  36.6186943
  14.9721155  61.2247276  36.1534004  15.7034025  62.5420494  36.2978592
  50.8504562  55.5131149   5.8586612  50.0465317  55.6336861   5.3532915
  50.6190262  54.8675690   6.5264511  37.7105064  69.6538086  68.3443451
  38.1476250  70.2380142  67.7247849  38.1020851  68.7956848  68.1814957
  26.4561443  60.5586052  62.4340744  26.5118999  60.6088676  61.4798241
  26.3413143  61.4662857  62.7154274  29.0286999   2.2845008  89.2384186
  29.4932156   1.5860016  88.7773819  28.1594849   1.9218777  89.4093170
  28.2056599  55.0043602  25.2178211  27.8822994  54.2515297  24.7229347
  27.5708599  55.1163940  25.9254284  44.0365715  13.3289871  65.3335724
  44.4717865  13.0461540  66.1378250  44.4381142  14.1732531  65.1281281
  76.7543869  25.3617249  72.9721527  76.1652603  24.6585026  72.6989441
  76.2696991  26.1659622  72.7863693  82.0373764  43.1710854  61.3436508
  82.7500916  42.7460938  61.8207779  81.3612213  42.4972534  61.2729645
  33.3988495  49.3027039  10.1635723  32.7507019  49.8376465  10.6217995
  33.3068085  48.4317474  10.5498333  43.8021431  28.4607410  19.2807369
  43.5115623  27.5920410  19.0029697  42.9921799  28.9537945  19.4114513
  72.3710556   6.5460782  83.3723450  71.5180359   6.9315991  83.1724472
  72.2303162   6.0618472  84.1859436  27.6840191   8.9944868  76.6114273
  28.2003918   9.4415131  77.2820663  26.8853455   9.5167208  76.5364227
  33.2153282   2.1841090  58.2308655  32.7747192   1.3343506  58.2283363
  32.9518051   2.5930007  57.4064903  80.0029602  11.3068190  14.1490870
  80.9346924  11.5256691  14.1342316  79.8384781  10.9017029  13.2975826
  56.6455231   3.7812572  11.1355219  56.4998093   3.0775909  11.7678614
  56.8877411   4.5373683  11.6701784  53.4026718  39.3007469  70.9890442
  52.6748772  39.6483574  71.5045166  53.0038567  38.6322746  70.4319763
  85.4442062  36.6199875  25.8104706  84.8746490  35.8666229  25.6546593
  86.3139954  36.2406960  25.9363155  17.4710789  67.8603516  39.9025650
  16.8914776  67.2866211  39.4014397  17.9300671  67.2723389  40.5023994
   4.4565320  30.3822937   0.1088464   5.3186040  30.4533749   0.5187386
   3.9605174  31.1194725   0.4648926  32.6750755  52.6659851  70.7859192
  33.3387871  53.3515511  70.8615265  31.9696751  52.9503937  71.3670883
   6.1722875   7.0733237  31.4387970   7.0259204   7.2156973  31.0298061
   6.3374991   6.4170308  32.1157150  65.0054016   7.1325517  81.8617096
  65.2019882   6.2754989  82.2399292  65.0276489   7.7337165  82.6062469
  25.4807167  27.7448826   5.6186833  25.0718613  27.3893089   4.8296099
  26.0419807  28.4517002   5.2999024  69.0127411  64.9383774  76.2125244
  69.1951141  64.4797974  77.0326920  68.4585342  64.3342514  75.7184448
  10.0757208  32.1166801  10.3978882  10.2954102  32.9950638  10.0873899
  10.8922501  31.6234779  10.3187370  28.7424316  40.0416451  70.9106979
  28.3977356  40.9345856  70.9020157  28.0009441  39.4961128  70.6483536
  67.1981583  25.4213657  12.9972839  68.1486206  25.5342503  13.0078716
  66.9473495  25.5874157  12.0885735  81.5702591   0.8425932  80.9786682
  80.7958908   0.3498466  81.2503052  81.6217957   0.7054219  80.0327530
  47.2286949  10.8974409  35.6097488  46.7859383  10.0952711  35.3327560
  47.1823235  11.4725609  34.8459930  34.2434235  69.8671494  11.4498882
  35.0888100  69.4374390  11.3198767  34.3342628  70.3268585  12.2845402
  41.9452209  54.4457321  32.0665894  42.8466797  54.1569748  31.9243813
  41.4883003  53.6623917  32.3729095  45.2663651  35.6369629  67.0673447
  45.0303307  35.7280579  67.9905090  46.2129784  35.7774811  67.0471725
  55.7376442  31.6403255  87.2643356  56.3109245  32.3997955  87.1604767
  54.9548302  31.8602924  86.7593155  13.6875620  65.3952408   6.7602463
  14.1771059  65.6382828   5.9744287  12.8861637  65.9166336   6.7140055
  71.2482681  65.4354324  72.9281998  70.9809799  66.0610886  73.6015091
  72.1948166  65.3504639  73.0424194   7.0212746  43.7986145  81.0774002
   7.3581977  44.4333649  80.4450989   7.2136793  42.9461899  80.6867752
   7.4183483  71.4356537  59.0091324   8.0358896  70.7200928  59.1603012
   6.5587096  71.0496902  59.1773186  40.9437180  67.4677811  37.6916161
  40.6456680  67.7608261  38.5527306  40.9994736  68.2695999  37.1718063
  82.6723099   9.4484625  12.8769207  82.7922058  10.0383739  13.6211386
  82.1200256   9.9395332  12.2685890  18.7304573  37.1816978  73.5629578
  18.9403572  36.5566788  72.8690414  17.7767372  37.1465225  73.6365433
  55.2613602  23.2582340  85.4496155  54.7439346  23.7854328  84.8408737
  54.9850616  22.3574333  85.2809448  13.2732182  40.4228172  24.5151367
  12.8248549  41.2630157  24.6114235  13.6326227  40.2422066  25.3837223
  51.2450142  71.8241043  51.7044678  50.5655327  71.5909958  51.0718575
  52.0621490  71.5429535  51.2927971   0.0508575  65.0110397  42.8703346
   0.7881821  64.9284363  43.4751167   0.2605407  65.7802811  42.3406792
  49.9671326  53.4821663  37.2446861  49.8044624  53.1370354  38.1225548
  50.6458473  54.1453896  37.3700447  35.5095291  13.8677559  79.9668045
  34.9217110  13.3766222  80.5408173  35.3868179  13.4726162  79.1036530
  82.2511139  32.0619583  37.8443794  82.2285919  31.5149708  38.6295738
  81.9759979  32.9272766  38.1473083  48.4998360  44.4864998  78.6225967
  48.6727028  45.0155182  79.4013672  48.5998802  45.0964127  77.8916855
  78.0974350  64.3806458  29.4947834  77.6116562  64.0806046  30.2630424
  78.5339584  65.1814957  29.7851639   0.1468796   0.5641620   1.0317420
  -0.1226627   1.2987117   1.5831182   1.0343451   0.7880385   0.7515349
  33.9606667  42.6404419  34.9225998  33.3089142  42.1755562  35.4473190
  34.6956367  42.0305977  34.8582764  50.2673607  34.9204941  63.5036125
  49.5826759  34.4159584  63.0644341  49.8667030  35.7737236  63.6700592
  61.5722046  61.7176628  44.2216797  60.6423340  61.8283348  44.4199791
  61.7684517  60.8192139  44.4872246  27.2745914  66.8041687   1.6662220
  26.6887703  66.5949478   2.3937314  27.8617687  67.4740372   2.0165591
  56.6279831   9.6916637  18.3349247  56.9538422   9.2969341  17.5260773
  56.7280807  10.6338463  18.1988926   9.9445906  11.7854919  57.7794838
  10.6561956  12.0611200  57.2016640  10.0332880  12.3438959  58.5518494
  45.9517708  40.3810158  43.9173889  45.2594566  39.7604561  43.6896973
  46.4236603  39.9602966  44.6361008  29.0246048   3.0867729   6.4620137
  29.2960396   3.5049787   5.6449099  29.3887997   3.6448014   7.1491804
  84.6173096  30.7366791  18.3778782  84.2411346  31.2392368  19.1004829
  84.0973587  30.9886112  17.6147175  51.9909973  40.6909828  33.2649727
  51.9109650  39.9183159  33.8242683  51.6263046  40.4164581  32.4236259
  54.9993210   4.8283176  26.0789356  54.3570175   5.2211404  25.4878597
  54.4930573   4.5814452  26.8528748  77.8831177  51.5808830  44.0883675
  77.8076019  52.5075531  43.8607407  78.7670135  51.4931412  44.4450989
  71.5328217   1.8625780  50.5166473  71.1382523   2.4333465  51.1760178
  70.8234406   1.2773718  50.2510338  76.7767639  48.4139786  13.8698311
  76.1691055  48.5949669  13.1527319  76.2183304  48.3377953  14.6435118
  65.4984055  30.8858566   5.8873158  66.1063004  31.4466057   6.3692517
  64.7128067  30.8592072   6.4335327  14.5387726  56.5669670  59.8403435
  14.1194820  56.2344131  60.6339645  14.0210075  57.3352928  59.5998688
  73.4878693  70.3675156  44.4364891  73.2968903  70.5592957  43.5183487
  72.9347687  70.9746933  44.9280663  43.1807289  38.5786896  31.1949196
  43.5437202  38.4181862  30.3238792  43.8790703  39.0340385  31.6652412
   2.1966815  12.0093880  76.7773972   2.1457424  12.9128227  76.4652328
   2.6958015  11.5503407  76.1018295  66.6993484  49.8859406  56.2784462
  65.8798523  49.4752693  56.5541267  66.4523392  50.7810059  56.0458984
  24.4593372  57.5797119   5.0668688  24.9565468  58.2535324   4.6032109
  24.5391617  57.8163986   5.9909029  58.0723038  60.7309761  50.2089310
  57.9780312  59.7822914  50.1232605  58.2730865  61.0326881  49.3229942
  39.7211189  65.4207077  45.1090012  39.6234398  64.4714432  45.1837578
  39.1122246  65.7758789  45.7565613  41.1792030  47.3794708  54.5531921
  40.9359818  47.6408081  53.6650620  41.7332687  46.6082916  54.4326706
  63.2842865  13.7567272  63.4094772  63.7692146  12.9733973  63.6692276
  62.9729118  14.1300621  64.2340393  14.4461174  66.7606125  42.1274071
  13.9648561  66.9202118  42.9392891  14.8269815  67.6098480  41.9038544
  80.8368683  67.9488525  21.5436840  79.9179916  67.9571991  21.8116932
  81.2765579  67.4233627  22.2120914  86.7134933   5.5813613  73.7814636
  85.9370117   5.1034098  73.4901428  86.6442184   5.5917115  74.7360992
  70.0484161  34.9765434  43.3954430  70.2311096  35.6801033  44.0182266
  69.5718079  35.4042168  42.6839867  77.2489929  41.5768166  52.3147278
  77.4749069  41.0746117  53.0976601  77.6019516  41.0614166  51.5894585
  68.7614365  36.5547256  41.4350281  67.8777237  36.9225388  41.4352760
  69.3103714  37.2505569  41.0734787  48.3684654  51.7812767  10.3474436
  48.2911453  50.8459625  10.5356960  47.4708710  52.1102829  10.3955679
  18.3477745  70.7028427   5.8572493  17.6632481  71.3436050   6.0497994
  18.5032978  70.7936935   4.9171481  54.1063843  34.1993179  16.8708973
  53.9838486  34.5288467  15.9806004  55.0455132  34.0256119  16.9348564
   2.3392484  54.0969849   6.7906861   3.2666945  54.0556946   7.0238605
   2.3269928  53.9980392   5.8386931  68.5289764  13.0250311  12.2554398
  67.7334137  13.3753519  12.6561670  68.2324753  12.2584677  11.7648268
  36.5411873  15.5699177  13.4434147  36.6083755  16.4892712  13.7013044
  37.1678886  15.1165714  14.0072889  44.4964752   2.6514266  14.2065964
  44.8421669   1.9320464  13.6781845  43.5672150   2.4469256  14.3109379
  41.2360573  64.2750092  48.9983063  42.0057144  64.2622528  48.4293594
  41.0331345  63.3515358  49.1474648  19.5094852  60.3089485  69.1337433
  20.2784462  60.7831345  69.4500961  19.7269249  60.0748177  68.2314529
  12.6138706  31.1123753  10.4135361  12.7569027  30.4906883  11.1271734
  13.4291191  31.6114902  10.3636885   8.4052849  38.9198456  88.7601929
   7.7498999  38.2913361  88.4574127   8.1980515  39.7273178  88.2897949
  13.0102043  38.9207611  29.7863712  12.9192429  39.2548370  30.6787567
  13.9524126  38.7967529  29.6719284   5.0511494  51.3850174  31.5537720
   4.6211381  51.6370277  30.7365742   4.7350278  50.4983330  31.7272224
   7.8047061  45.2592049  42.9878273   6.8535132  45.1614761  42.9440880
   7.9758358  46.1152420  42.5952148   4.7539649  40.0511818  54.4469872
   4.6397104  39.1736259  54.8117752   4.4122200  39.9862404  53.5552330
  61.5592575  67.7258835  14.5518217  62.0379829  67.5519409  15.3622513
  61.6441040  66.9180450  14.0454273  67.3597641  65.9951553  43.1676102
  67.2714157  66.7973404  42.6529083  66.5773010  65.4865723  42.9546967
  25.1255817  16.8404236  85.5218964  24.7510586  17.5364819  84.9820175
  25.9565773  17.1994610  85.8329773  85.3707047  20.7681923   4.5116262
  84.9465866  21.2554836   5.2179599  85.9296951  21.4129009   4.0779119
  52.6368790  37.5926361  11.7419415  53.5206985  37.8930893  11.9536629
  52.7519569  36.6816940  11.4714355  27.3598003  49.2981491  66.2270203
  26.4254398  49.5059586  66.2312393  27.7270870  49.8320160  66.9315186
  67.3577499  13.6486158  75.4621964  67.0834351  14.3258276  76.0805511
  66.9904709  12.8384733  75.8157578   9.9837303  13.8441048  36.0675163
   9.7989101  13.3772993  35.2525520   9.8656836  13.1860409  36.7525330
  28.1357555  30.7911053  72.7868042  28.3293877  31.3397446  73.5468903
  28.6569118  29.9999390  72.9234924  29.8364296   2.1072443  79.7475128
  29.0600471   2.6648161  79.7982483  29.5830479   1.3021619  80.1990280
  29.6832142  26.6268425   9.5083179  30.1040363  27.1156597   8.8010721
  30.1967182  26.8422184  10.2868795  58.9701653  30.0545502   0.1607558
  58.4362946  29.8722610  -0.6125398  58.6495018  29.4422531   0.8229467
  84.6653671  49.6725349  25.7314396  84.7618484  48.9919205  26.3975353
  83.7313309  49.8817940  25.7363720  36.1271477   6.4136553  23.3686676
  35.4405060   5.7760401  23.5641136  36.6641045   5.9897528  22.6991787
  68.7292480   5.5217104   7.9042292  68.2405319   6.0214839   7.2503047
  69.3843994   5.0413108   7.3980389  21.9517784   6.8950047  15.5893631
  21.0506001   7.1601849  15.4055452  22.1544170   7.3027406  16.4313374
  20.9585114  32.9146690  79.1791840  20.9468365  33.5855865  79.8618011
  20.9229584  33.4068451  78.3589859  59.4099998  20.8117924  24.3198738
  59.4013634  19.8554401  24.2805309  59.6132622  21.0120945  25.2335453
  41.4183083  44.2718353  87.8284378  41.4469986  43.5996895  87.1475372
  42.2136192  44.1274796  88.3411484  47.7631378  30.1188717  76.1203156
  47.8790588  30.3201389  75.1917267  46.8142853  30.1044827  76.2456360
  52.0681801  27.0879059  79.8975906  52.5528870  26.5634041  79.2602615
  52.6484184  27.8236580  80.0931015  75.4630356  32.8038139  76.8193283
  74.8481064  32.0756645  76.7305374  75.8644943  32.6748390  77.6786499
  56.9916992  44.5609550  74.9242020  57.6564560  43.9051476  75.1345596
  56.8121109  44.4298592  73.9931870  27.9576931  57.3958855  89.3796539
  27.8945904  58.1707916  88.8212967  27.2861385  56.8027115  89.0429230
  60.6548309  44.9906731  68.9182358  60.8896599  45.6958694  69.5213852
  60.6833305  45.3969612  68.0520020  76.8522263  43.1128693  16.9811134
  76.4855652  42.8323135  16.1426144  77.7837296  42.9018402  16.9178123
  36.9910164   3.7491910  41.0127144  37.7768326   3.7682288  40.4664841
  36.2652168   3.7690923  40.3889771   3.2505279  60.7114639  53.9873466
   2.5660107  60.5271759  53.3441467   3.0012641  61.5537262  54.3677368
  46.8939362  56.9864235  35.9573059  47.0033302  56.0482903  36.1127663
  47.6596718  57.2342300  35.4391594  70.3365631  57.2491913  69.8921280
  69.8142776  56.4561958  69.7712479  70.6151657  57.4895134  69.0084686
   7.8752742  38.4447517  67.1891327   8.6680803  38.5702019  66.6676483
   8.1749935  37.9862862  67.9741287  30.3501720  33.4031677  23.6563854
  30.2795048  32.4498520  23.7056217  30.0836067  33.7082062  24.5236359
  83.6274490  20.8637581  44.8257027  83.8008041  20.4919281  43.9608765
  82.9450378  21.5173779  44.6729813  56.5950813  56.9724197   1.0559416
  56.7042999  57.9085007   0.8884552  57.3658524  56.7293434   1.5688334
  16.0651646  43.4719429  69.8137512  15.5585356  44.2799225  69.7317276
  16.5763035  43.4266624  69.0057220  35.6887894  33.9858856  17.0666466
  35.3095589  34.1245842  17.9345055  36.3146172  34.7024765  16.9614239
  48.3859138   7.1539969  66.3326187  49.1368103   6.8435388  65.8266525
  48.7676048   7.5029311  67.1380920  34.5320625  48.7812195  35.2817345
  34.4560318  47.8487206  35.4839668  35.2874794  48.8386040  34.6966858
  25.3637619  31.2035809  68.3245392  26.2738895  30.9486084  68.1732559
  25.3380527  31.4647961  69.2450485  54.7513046  34.5090294  13.7750006
  54.6753883  34.1507797  12.8906231  55.4657135  34.0124474  14.1740704
  10.8039522  11.4965916  37.4937782   9.9099483  11.8132277  37.6231308
  11.1009712  11.2529955  38.3705177  41.5250854  64.9115753  85.0841293
  42.0829964  64.1983032  85.3943100  41.0720825  65.2199554  85.8689346
  73.0937347  35.6046906   2.3669982  73.5181503  35.0088158   2.9842768
  72.7738266  35.0360451   1.6666164  81.7509232  18.3610477  39.1968536
  82.4110184  18.0511265  38.5768127  81.1474075  17.6242466  39.2923813
  23.9966545  54.3429604  33.1688614  23.7200298  55.2548180  33.2595406
  24.1416550  54.0461845  34.0672646  62.2476501  22.2891808  73.6993027
  62.0065994  23.0288677  73.1416397  63.0723190  21.9710369  73.3319550
  66.3673096  30.2484512   3.1838813  66.1357269  30.5542965   4.0608416
  67.0904770  29.6377563   3.3264093  16.2449608  52.8074379  88.9761200
  15.6987276  52.2710342  88.4015503  15.6217651  53.2645607  89.5408325
  64.1617279  48.0521698  81.3289566  63.5900154  48.2769928  82.0630112
  63.8653946  47.1853752  81.0513229  79.0764160   9.6215563  44.2549820
  79.7168350  10.2729788  43.9690628  78.5309067   9.4673758  43.4836960
  83.0417404  13.3347197  57.5982590  83.0239334  12.3776875  57.5961075
  83.4454803  13.5686407  56.7624931  83.1664886  10.8662939  69.0146103
  82.2327576  10.8019485  69.2152100  83.4955597   9.9732895  69.1170197
  34.8424263  48.0227737  55.7150154  35.6063919  48.3491058  55.2395248
  35.1825485  47.3078308  56.2529793  63.1489525  24.7889462  10.3780174
  63.2004013  24.7664433   9.4224653  63.0215034  25.7137966  10.5893002
  74.2925720  30.3372459  80.3283691  74.2586670  31.2890434  80.2326355
  75.1931534  30.1554756  80.5969772  55.8286705  71.5622559  60.7321625
  55.4519463  71.1684875  59.9452362  56.7667694  71.3849487  60.6631279
  18.8958244  31.3924713  61.0525551  18.2316990  31.8698864  61.5497932
  19.2179832  32.0270805  60.4124603  68.2482529  10.0756187  31.9019051
  69.0167618   9.5068960  31.9485645  67.6848450   9.7759418  32.6153488
  83.8789291  65.1851883  19.8362446  83.8037949  65.6784897  20.6530914
  83.4248123  64.3610001  20.0115433  47.0685616  60.5933990  84.7937546
  46.6986847  59.8115234  85.2037506  47.9121971  60.7158127  85.2291031
  12.3838272  11.5629139   3.2832491  12.2719994  12.0496283   4.0998492
  13.2527580  11.8153381   2.9710417  76.4371262  60.9070892  46.0945549
  75.6984482  61.4924774  45.9275055  76.3665085  60.6917229  47.0245361
   3.9750068  48.5920219  28.7853584   4.5671897  48.0071831  28.3125839
   4.2179694  49.4692955  28.4893970  58.3726883  57.8140945  51.0429649
  58.2629051  58.6476288  51.5005684  58.4518127  57.1654663  51.7424316
  65.7137222  46.9574089  35.0706711  65.0821533  47.4436073  34.5406113
  66.4589615  47.5514259  35.1600952  20.1346378  67.6180801  40.6220894
  20.4193478  67.7085190  41.5314789  20.2738705  66.6932297  40.4183693
  70.4762726   2.9293828  75.8772278  70.0339127   2.0993624  75.6994171
  70.4841843   3.3820481  75.0338593  57.2360115   0.3797419  25.7475586
  58.0962410   0.1685277  25.3847580  56.7845535  -0.4627076  25.7994900
  49.4740906  26.5034771  80.6188278  49.1520500  26.1718063  79.7806702
  50.4000435  26.6893959  80.4630203  15.7422800  10.6879530  20.2438545
  16.3572598  10.1211634  19.7782574  15.2840652  11.1641226  19.5513706
   1.7903638   1.1279746  65.8618317   1.4782926   1.0961381  64.9574890
   1.4863832   1.9740440  66.1904526  63.6195297  66.5260696  11.6000977
  64.1640778  67.2255173  11.9613037  62.7607002  66.9304428  11.4771109
   1.9468349   9.5282507   6.9809623   2.5009019  10.0500956   6.4005146
   1.5010195  10.1731300   7.5301528  32.2057381  47.1188126  63.5861015
  31.3806419  47.3728790  63.9995003  32.8538399  47.7176628  63.9570160
  65.5264587   8.9180593  23.8922997  64.6349640   8.5698957  23.9081345
  65.4316025   9.8316832  24.1616039  72.3836517  15.8548126   7.1739745
  71.8763351  15.2765179   6.6043830  72.5454559  16.6336727   6.6415963
  11.1886473  45.0420990  32.3774338  10.8081074  45.8650436  32.6843338
  11.7244053  44.7380371  33.1100616  56.3635330  36.7240067  69.2891541
  57.2947845  36.5042191  69.2627869  56.2047806  36.9856529  70.1961060
  42.1879158  26.4438286  78.6981125  41.3187256  26.0437489  78.6720200
  42.3308525  26.6460247  79.6227341  76.2957306  39.2658730  20.1466160
  77.0000381  39.0747795  19.5272064  76.1035309  40.1938515  20.0119076
  44.6241570  25.2668285  78.4125748  43.7568893  25.6575680  78.5193329
  45.0752716  25.8485394  77.8007355  66.7979355  48.1298256  18.4404392
  66.9994659  47.1940842  18.4427814  65.8455353  48.1699295  18.5273724
  51.2686195  21.7484856  15.1084385  50.6472244  21.5445251  15.8073635
  52.0206642  22.1308384  15.5606222  49.7046432  59.8525505  21.4703846
  49.4936104  59.5020142  20.6050396  49.8572998  60.7854843  21.3201733
  46.9837723  66.4334106  34.2334404  46.8239937  67.3766785  34.2028084
  46.5586281  66.1445694  35.0409431   4.3361015   0.0644474  37.8105621
   4.5801945  -0.0365280  38.7305908   3.6781683   0.7596835  37.8122330
  61.9061012  10.3422260  48.6208382  61.2230682  10.3841200  47.9515533
  62.3761673   9.5298738  48.4328117  72.1855087  42.9825439  47.5265846
  72.1257324  43.9155731  47.7317963  72.9487076  42.6777802  48.0173798
  71.8695068  17.0351601  75.1425858  72.3218384  17.2842789  74.3366318
  71.2982330  16.3123245  74.8829956  71.9193954  58.8786430  19.5570564
  72.3542938  59.3964882  20.2345028  72.3351212  59.1551552  18.7403889
  53.7245979   0.8418912  72.4705048  52.7849960   0.6701440  72.5328445
  54.0764847   0.5579034  73.3141632  47.5967789  15.0105257  76.6714554
  48.2227364  15.7225437  76.5394058  47.2029991  14.8748789  75.8096161
  37.4267006  58.7211113  78.3528137  37.6624107  58.2939491  77.5292816
  37.6381950  59.6441231  78.2129745  44.5950432  69.3853989  28.6331215
  43.7431717  69.0514297  28.3520241  44.6549377  70.2539444  28.2352886
   7.8199010  59.6152954  11.1597767   8.0123587  58.6797752  11.0966167
   7.0609808  59.6649933  11.7409840  53.0633163  40.3486061  77.6863632
  52.1352844  40.5788612  77.7307053  53.2848473  40.0744171  78.5762939
  70.6772461   2.7295783  31.8552017  71.4029465   3.1053817  32.3535614
  70.2362823   2.1487858  32.4752541   8.7492723   2.3244951   7.9786930
   8.7408123   2.3419948   7.0216904   9.2190552   3.1201444   8.2286501
  46.4818535  63.4841957  65.9941864  46.0502014  63.2538948  66.8169098
  46.2868652  62.7526741  65.4084549  42.2909966   0.6689044  62.8498077
  42.2042236   0.0735913  62.1052895  43.0059013   0.3005818  63.3689232
  65.5892639   7.9374447  57.0251770  65.6964798   6.9870906  57.0647163
  66.4121170   8.2857933  57.3683853  35.6604843  59.3977814   4.4689817
  35.5250740  59.3705826   3.5217984  35.5683670  58.4875145   4.7503343
  42.3177528  23.4112186   1.4691492  43.1921730  23.6596928   1.7689483
  42.2212868  23.8486691   0.6232399  10.7299547  39.5733490  23.1510468
  11.4350195  39.9968262  23.6407242  10.4265556  38.8713989  23.7267609
  57.6732674  39.4506302  77.1770706  56.8550987  39.0042915  77.3952789
  57.5138550  40.3669968  77.4031067  45.6906471   0.6188561  12.7620945
  45.5726967   0.6316968  11.8122759  44.9590721   0.0941418  13.0872202
  62.7397804  56.3993378  33.5039902  61.9800606  55.8204651  33.5669098
  63.4930191  55.8090439  33.5244026  74.1414642  71.6544876   3.5029387
  75.0576401  71.4300919   3.3401377  73.8390732  70.9913483   4.1234498
  36.9386063   6.8590941  88.9491425  36.4184380   7.1357760  88.1947479
  37.1616554   7.6744204  89.3982773  15.1039486   4.0159144  49.6613274
  14.4466066   3.7282979  49.0277557  15.9332047   3.9648976  49.1859703
  14.8068676   0.6691831  66.7089233  14.7062759  -0.0275659  67.3574982
  14.1690235   0.4562119  66.0277252  65.8981705  56.5626602  84.0417480
  65.9657974  57.4980659  83.8502426  65.3766251  56.2078743  83.3217773
  11.9369717  56.4693794  57.7456665  11.0162125  56.2443161  57.8790131
  12.0781240  57.2380257  58.2983780  39.1878128  69.4321899  20.1740017
  39.8762474  68.9605865  20.6429176  39.3650093  70.3555450  20.3535767
  31.1110973  50.7690735  74.3411331  30.6981430  51.6072769  74.1334915
  31.0890255  50.7214508  75.2968903  85.0882187  17.5497360  33.1015778
  85.1855698  18.5011711  33.1406517  85.9752579  17.2128372  33.2276459
  23.4962349   5.1362410  39.6659241  23.7337627   5.8081117  39.0268631
  22.9215508   5.5868044  40.2847633  13.9478445  42.9494820  71.5151062
  13.9290094  43.5653038  72.2476578  14.8363953  43.0195351  71.1660995
  62.2634544  37.6434250  59.2421875  62.7899437  37.7268639  58.4471512
  61.9481735  38.5305595  59.4148712  78.4423676  24.6020565  80.5279541
  78.2077560  23.6788635  80.4336014  78.4145584  24.9486103  79.6361237
  84.5954361   3.4861913  29.1125374  85.1445541   4.2699575  29.0921021
  84.9866867   2.9026184  28.4624615  39.0882492  56.7903023  83.6339035
  39.6551628  56.3279991  83.0165558  39.3195305  57.7129364  83.5267334
  61.8917923  23.5850563  29.1024456  62.7752419  23.5262012  29.4661579
  61.3140755  23.4460907  29.8528862  80.8415146  36.6737633  74.9458237
  81.4810715  36.0565491  74.5905151  80.0569611  36.1461678  75.0953674
  17.5565090  55.8979874  12.1631575  17.6615810  54.9580650  12.0157089
  18.4296150  56.2623291  12.0176601  76.2170639  16.8670235  37.1212158
  75.7985992  16.7175083  37.9690170  75.9997025  16.0898476  36.6064529
  29.8003807   1.3243539  48.6225624  30.3557987   2.0268354  48.2845345
  29.0742569   1.7780361  49.0505180  84.5736618  31.7330704  13.2419052
  84.4534912  31.1615505  12.4835148  85.1911469  31.2619724  13.8013773
  65.5596237  66.4730606  83.3089066  65.0744095  65.7907333  82.8449783
  64.8993607  66.9164276  83.8415527   0.3301687  33.0758324  55.9398956
   0.1502530  32.1631088  56.1652756   1.2681315  33.0952225  55.7499466
  73.8670883  33.1878014  23.3635845  74.7764282  33.1023941  23.6500053
  73.7639847  34.1191635  23.1682224  12.8467083   7.7991066  82.3154907
  12.3895664   8.6305208  82.4420013  12.4150858   7.4010668  81.5595169
  67.2324677  36.6830559  12.7400198  68.0965195  36.6395645  13.1496019
  67.4004440  36.5319328  11.8098698  52.8668365  57.1676674   7.0201292
  52.7601051  57.1916656   7.9710574  52.0147285  56.8820915   6.6906052
  69.4309006  59.1941910  64.2678833  70.1849442  59.5558395  63.8022079
  69.8130341  58.6469154  64.9539566  64.0834579  65.3467407  31.1241283
  64.1514130  66.2949142  31.2363033  63.8421516  65.0197144  31.9907627
  79.9027863  55.7204628  62.7830238  80.7437592  55.9987869  62.4203491
  79.3078003  55.7174797  62.0332146  80.7541428  38.9216270  76.8249054
  80.4117126  38.0845490  76.5114136  81.3127213  38.6892128  77.5666580
  67.7380219  64.4925613  54.3221931  67.0737381  64.4089432  55.0062752
  68.5235825  64.7833176  54.7854271  45.2740974  60.5059853  21.5222511
  45.8521843  59.7944794  21.7975903  45.7656326  60.9636269  20.8402023
  74.1594238  26.6540012  33.3858452  74.1429749  27.1935978  32.5954056
  75.0895538  26.5553970  33.5892181  86.5492783  45.5478630  63.5645905
  87.1213455  44.8929901  63.1644440  86.8439941  45.5998344  64.4738083
  65.8692856  70.0978165   4.7118173  65.7645035  69.3307419   4.1489320
  66.7937241  70.3316574   4.6283584  83.6421204  22.5850925  18.5475826
  83.6061783  22.9163952  17.6502647  84.1616058  21.7834587  18.4862976
  11.1180258   0.6676033  67.2541199  11.5939398   0.2479975  66.5374146
  10.1951933   0.5167774  67.0495148  14.1237545  56.3433914  19.0126610
  15.0113964  56.1121254  19.2862263  13.6000729  55.5692787  19.2193890
  63.1203194  42.6021690  62.5723686  62.4374237  42.4529800  61.9184341
  62.7705345  42.2174034  63.3760109  73.6705093  46.3764191  51.2216606
  72.9401093  46.4805679  51.8314972  74.3315125  46.9954414  51.5316849
  13.5715570  52.0301895  52.9256897  13.2868586  52.5998268  53.6403198
  13.9679718  52.6247711  52.2888565  69.9348602  62.4030266  83.2409058
  70.0215683  61.4765892  83.0163345  69.4415207  62.7808075  82.5128098
  71.2357864  40.9788551  27.3360939  71.2726440  40.0891533  26.9849453
  71.1540222  41.5380592  26.5635433  41.8426971   5.5489407  27.2475719
  41.9901352   5.0649118  28.0601063  41.4037323   6.3533049  27.5242310
  44.7099419  25.5775757  18.4253101  45.4197464  25.8408775  17.8395786
  44.2664757  24.8680668  17.9603729  74.0630188  61.7628708  19.8876457
  74.2651138  62.3946457  20.5777550  73.5670471  61.0745239  20.3308392
   1.5743414  67.7348557   3.6954339   2.0544593  66.9153366   3.8142245
   1.5593755  67.8684616   2.7477231  79.5744553  69.3141861  12.9751177
  78.9122162  69.1217804  12.3113050  80.1728745  69.9258652  12.5461884
  62.7886734  15.1805477  27.9130478  63.4344902  15.6016569  28.4803410
  62.6686554  14.3097630  28.2919426  51.5372543  16.8805695  29.5520039
  52.2703629  16.3654842  29.8888569  51.5628777  16.7428856  28.6051044
  24.2579575  62.9304962  76.4967117  23.5851479  62.4243355  76.0413361
  23.8794231  63.1128540  77.3567581  62.0711975  20.7704048  12.1293468
  62.3075256  20.0596256  12.7253094  62.8755150  21.2805386  12.0341167
  76.9370041  36.7630577  65.0609207  76.5481415  36.0909843  65.6206818
  77.3865128  36.2715340  64.3734741  21.4042530  44.0910301  75.1846313
  21.7785168  43.8171196  76.0219727  22.1422100  44.4653244  74.7034302
  59.1437759  30.2226505  43.4429169  59.8260231  29.6688938  43.8225555
  59.1170197  30.9928780  44.0106010  42.9656525   7.8520598  50.8874817
  43.8396072   8.1013403  51.1879730  42.8962364   8.2316494  50.0115128
  39.6216011  37.3654213  30.6505756  40.2711220  37.0893860  31.2972279
  40.0522079  37.2313232  29.8062840  49.6510086  62.6610451  32.7411537
  49.3642502  63.5416222  32.9832077  49.2061195  62.4836235  31.9124050
   8.0984154   6.0000048  26.1367283   7.3040805   5.4823861  26.0050678
   7.7811623   6.8881550  26.3003483  60.2274208  24.7644844  20.2410793
  60.8672676  25.4691830  20.1399441  60.6651573  23.9907646  19.8861485
  36.7024841   4.2577109  88.6523361  36.5598564   5.1838455  88.8476944
  36.6339989   3.8205757  89.5011292  49.6716728  28.9907627  77.7250977
  49.2198029  28.3895836  78.3172379  49.0432205  29.1511059  77.0211334
  27.4979305   6.1304469   4.9174685  28.2739716   5.5836673   4.7948995
  27.3372459   6.5148587   4.0557027  49.7362175  40.3759575  46.3206863
  49.7257309  40.9094429  47.1153679  48.8628464  39.9860992  46.2823906
  56.7818871  54.3859863  59.6959763  57.6292305  54.4818764  60.1307716
  56.2186737  53.9811020  60.3555908  70.8489761  49.1430855  54.6195984
  70.3595657  49.1698799  55.4417877  71.1695175  50.0373764  54.5024147
  44.5378304  53.5882187  63.8568573  44.1892319  53.4876633  62.9710808
  44.7856712  52.7015419  64.1188049  67.0967789  60.2529373   3.3962946
  67.8433762  60.2723923   3.9949975  67.4369507  59.8399582   2.6025901
  57.0553093  23.7055473   4.3450274  57.2345543  23.9425163   5.2549448
  57.0560112  24.5397778   3.8756752   2.2473273  34.9699287   1.2533029
   2.1282578  35.8624229   1.5781213   1.6230749  34.8923416   0.5318313
  80.4636307  63.0508690  76.3868713  80.0767059  63.8439598  76.7577209
  80.9869843  62.6839409  77.0993958  48.2771683  71.4421005  46.9214172
  47.9780998  71.5753479  46.0219574  49.2284813  71.5369263  46.8740425
  46.3703232  65.9655533  44.6359367  47.0753441  65.3313446  44.7661171
  46.3348351  66.4561462  45.4570885  26.7701244   1.0623168  68.5807800
  27.7107391   1.2015924  68.4708786  26.3656826   1.8324121  68.1812668
  85.3605042  59.5816803  73.1499634  85.6702652  58.9968109  73.8414841
  84.5905762  60.0092621  73.5249481  63.8879433  29.6687336  29.0586987
  64.3924332  29.2046795  29.7268105  63.6162109  28.9853191  28.4460506
  66.1770477  64.6220932  15.5363178  66.7027130  65.4210052  15.5769215
  66.5360107  64.0638809  16.2260876  50.8569374  16.3227978  56.4109116
  50.9528503  15.9353762  55.5408897  51.3517303  17.1408901  56.3646698
  30.9843483  28.0859108   7.6729603  30.4391708  28.8665962   7.5752711
  31.8495140  28.3581295   7.3669891  26.3412857   9.9131775  80.0555420
  25.7539043  10.1564560  79.3399734  26.6983280  10.7453480  80.3657684
  13.1659775   2.9013073  63.6664619  12.6143026   2.3630624  63.0988541
  12.6259365   3.0655360  64.4395142  40.5921402  63.0725822  22.4288082
  41.2417564  62.3973160  22.2332516  40.6162186  63.6551094  21.6696529
  62.6011467   0.7896084  74.2056198  62.6439743  -0.0987899  74.5593796
  62.7346687   0.6792436  73.2642212  81.8716736  71.2710190  33.9719124
  81.0930862  71.8229218  34.0456772  81.5879517  70.4131393  34.2877731
  25.6993046  31.7183800   1.3979670  26.4950676  32.2417870   1.3029010
  25.7481747  31.0772724   0.6888656  58.4373856   6.4870009  34.6003952
  57.6917992   7.0681276  34.7508049  58.8892899   6.4540558  35.4435616
  75.4510117  23.0541515  80.5104675  75.6422272  23.7251797  81.1657486
  76.1647110  22.4224892  80.5991821  24.0364304  56.5395088  11.8696861
  23.1329346  56.2743683  11.6975660  23.9570675  57.3060799  12.4374056
  66.1208649  66.0947113  66.7351379  66.0175095  65.1701050  66.9602203
  65.4507980  66.5431519  67.2510300   6.4100966  47.8470345  80.0566635
   6.1425414  47.7965660  79.1390076   6.0321112  47.0654144  80.4596939
  17.0065460  63.1843987  25.3811646  17.6875381  63.6865845  24.9336243
  16.6812363  62.5769348  24.7167912  17.0844364  50.6494484  63.4279671
  17.7445240  50.8563652  62.7663765  17.0215015  51.4427910  63.9598312
  20.1117592  39.1455536  13.4217501  19.6698895  38.4252243  12.9721794
  19.8905735  39.0232964  14.3449850  74.0180283  50.0013580   3.2308791
  74.7751999  50.5295982   3.4836411  74.2514114  49.6424866   2.3747385
  42.7995453  39.8149261  82.2180328  42.0784760  40.4196930  82.0432510
  43.5584755  40.2191811  81.7975159  31.5734100  37.7238045  16.3466206
  30.6182671  37.7418747  16.4066849  31.8154945  36.8465233  16.6432819
  36.5545273  17.2562428  18.1588306  37.2692337  16.6800747  17.8878021
  35.7623062  16.8168259  17.8497524  79.7362366  36.7464485  52.5941544
  79.2496796  35.9403877  52.4216347  80.6008759  36.4484787  52.8767242
  32.5062599  18.0765190  15.4950829  31.9733868  18.8697567  15.4398308
  32.7068291  17.8588295  14.5847998  64.9624023  23.0667496  80.3105392
  64.4765091  23.8901157  80.3575668  64.6193848  22.6304340  79.5306625
  14.8590908  35.5462494  27.6995106  14.4024363  34.7145958  27.8261890
  14.9076242  35.9287224  28.5756340  82.1197815  11.2530298  22.2680683
  81.4104538  11.7750530  21.8931332  81.6891632  10.6920195  22.9131050
  68.2487717  56.4411659  45.7159843  67.5593338  55.9712791  46.1851501
  68.0879211  57.3635750  45.9147758  73.0455704   9.0908718  77.3794632
  73.5001068   9.6918688  77.9697418  73.1323776   8.2338371  77.7968216
  71.8955841   4.2105408  41.4449081  71.5398254   3.6672382  40.7417068
  71.3556824   3.9999847  42.2067528  49.8157425   7.2359648  55.2759209
  49.8363838   8.0029554  55.8482246  50.3237610   6.5737276  55.7445221
  13.9946623  46.4249077  86.8356323  14.8364725  46.1720657  87.2146530
  13.3474436  45.9301682  87.3382034  15.9010458  53.2019463   8.9897728
  16.4147930  52.4604683   8.6696138  16.4719315  53.9602089   8.8658209
  35.5193672   4.9679198  14.0761280  34.5903664   5.0997357  14.2653694
  35.6081123   5.1860919  13.1483583  16.9893036  51.9068336  40.0153122
  16.0404797  51.9491501  40.1343803  17.3483715  52.1095810  40.8791389
  50.8506584   7.0463834  17.6567230  51.1096420   6.1889749  17.3190727
  50.8558426   6.9406981  18.6080570  50.3729935   3.1882665   3.3976607
  50.1296272   3.0539112   4.3136044  49.8801537   3.9640284   3.1302047
   1.6593441  68.0020752   7.8808546   0.8775219  67.8417206   7.3523927
   2.0216997  67.1310577   8.0429010  39.0850563   9.7311325  79.7176132
  38.7297020   8.8441105  79.7737274  38.3780556  10.2929115  80.0350800
  65.6926498   9.2467546  87.3005524  66.6371689   9.3851347  87.3710327
  65.6052933   8.4614000  86.7603455  35.2399635  66.6972733   9.2727461
  35.0433044  67.3526459   9.9421043  35.8519936  67.1352081   8.6812601
  80.8432312  67.2951431   5.9495831  81.7311249  67.3671570   5.5993056
  80.9424896  67.4537811   6.8883123  47.5551567  22.0797424  60.8090439
  46.7431946  22.2028885  60.3173256  47.6064873  21.1349602  60.9539070
  86.3358231  56.1788979  66.8562698  86.7433395  55.7158051  67.5881958
  87.0628281  56.6214523  66.4182739  64.8629303  66.7765045  57.4444580
  65.6522522  67.1413345  57.0443382  64.2150879  67.4781189  57.3791695
  81.7134476  11.9808350  51.0653801  82.4967117  11.9503651  50.5160103
  81.2194977  12.7320156  50.7367859  32.2978897  22.8703499  -0.2022586
  32.8172264  22.0663853  -0.2148755  31.9966736  22.9467258   0.7030965
  58.8733559  18.4026127  46.8503799  59.3756599  17.6128635  46.6498413
  59.5112190  18.9991055  47.2422447  86.8064651   6.3475833  20.8960896
  87.0128937   6.5818558  21.8009300  86.3105392   5.5319510  20.9670353
  47.7609062  70.4507751  16.8790226  47.4321632  69.8707123  17.5658169
  46.9828339  70.6916504  16.3762188   6.6676993  20.7850533  84.0343704
   7.5086570  20.5840168  84.4449921   6.5990057  20.1614685  83.3114243
  23.2987061  44.2009125  69.1774139  23.9049053  44.3947563  69.8923798
  23.8442001  43.7931747  68.5047913   2.4333954  30.3906403  74.8157654
   2.3696580  30.7350655  75.7065735   1.5869795  29.9717255  74.6598129
  12.3573370  52.7281990  36.2348061  12.4523783  52.9328079  37.1650391
  11.5643206  52.1942940  36.1868095  59.5800743  36.1631279  45.7966270
  60.1705856  36.5468979  46.4448929  60.0829887  35.4469337  45.4088478
  36.0341225  40.9607124  34.4258499  36.4044495  40.7161789  35.2739601
  36.0369148  40.1480942  33.9200096  25.6999683  45.9408684  13.3523788
  25.9136677  46.8594170  13.1885729  26.5487595  45.4995766  13.3847179
  47.2523804  28.9474411  60.8736916  46.8944397  29.7197590  61.3114510
  48.1691704  29.1684361  60.7097130  77.1424637   7.9176855  14.3393202
  76.6210709   7.1254683  14.2098217  77.0499573   8.4020634  13.5189228
  17.0493164  22.8317261  34.2970810  17.2102776  22.9773903  35.2293358
  17.8559361  22.4296360  33.9747162  57.4967461  66.4556503  52.7860947
  57.1426735  66.7204056  53.6350746  56.7635994  66.0278473  52.3437042
  34.1796112   9.2652922  14.9292488  34.6243401   8.8576622  14.1860905
  33.4208145   9.7030907  14.5435181  67.4092865  33.1121101  55.3729515
  67.6372528  33.2491035  54.4534416  66.5270920  32.7414932  55.3483543
  36.2225304  44.0850601   7.7320333  35.7908440  44.7820435   7.2379737
  35.5035439  43.5594940   8.0828524  31.2121201  49.0681725  71.6585312
  31.4015045  49.1357574  70.7226868  32.0552177  49.2211304  72.0851669
  26.5479431  69.7024612  47.7952576  26.3737469  68.8357010  48.1621590
  25.6846104  70.0386429  47.5546989  57.1007500  71.5245667  66.4354401
  57.5106087  71.1641998  67.2218094  56.3289185  71.9890900  66.7590485
  66.6796265  16.2202682  87.7833710  66.2036819  15.7508907  87.0982437
  66.0242538  16.3830032  88.4617767  52.7069778  61.5206680  22.4586525
  51.9650841  61.8461952  22.9684086  52.4507713  60.6349220  22.2016621
  16.6827564  46.4993477  48.9278107  17.2543755  47.1901550  49.2628746
  16.7532654  46.5708389  47.9758949  29.5058346  30.2722206  81.6999741
  30.2777214  29.8111668  82.0283813  29.8575783  30.9350624  81.1057053
  70.8920288  26.1417370  52.6571846  71.4732437  26.0529785  53.4125252
  70.0915146  25.6851959  52.9159927  65.8414383   8.4657211   8.6691656
  66.1134033   9.2917223   9.0691481  66.4700012   7.8225036   8.9968977
  60.2616539  27.8429661  69.8460999  59.3936729  27.7597446  70.2409592
  60.7042580  28.5044746  70.3778381  36.6696968   3.1835446  63.4460068
  36.7536163   2.3398993  63.0016518  37.1092186   3.0561914  64.2867432
  63.4139595  31.6801643   7.9060273  63.6468430  32.2056618   8.6714354
  62.7535858  32.2014542   7.4495277  76.0176620  25.2597980  24.0453548
  76.9683075  25.2217712  23.9401951  75.7879257  26.1618805  23.8224220
   5.9396362   1.8551151  57.8634758   6.4851856   1.2103001  58.3138351
   5.5494576   2.3725545  58.5679245  21.9817333   1.7352222   5.9899378
  21.1579380   1.8584296   6.4615479  22.5644035   1.3247125   6.6288500
  22.5071640  56.0134048  79.3801575  22.0185833  56.3745308  80.1198273
  22.3125610  56.6046677  78.6529922  68.1255417  20.3350048  57.6824150
  67.2532959  20.6439419  57.9273186  68.2361450  20.6233959  56.7764168
  51.7644844  21.8567276  54.6271973  51.7487411  22.6421242  54.0802650
  51.3076439  21.1944981  54.1085625  81.3614273  68.5392685  40.5547600
  81.2853088  68.9875946  39.7124786  81.1403275  69.2080383  41.2029037
  53.8597336  55.5929871  20.5585594  53.3624535  56.3183212  20.1806221
  53.2852325  54.8333321  20.4631596  35.2092896  16.7136154  84.5290756
  34.9241142  17.5521488  84.8920822  34.9363632  16.7443409  83.6121292
  55.6254425  60.5160408  26.9481411  55.1039658  61.2543221  27.2631550
  56.0177994  60.1453514  27.7386341  65.4291000  22.8553028  82.9479141
  64.6363907  22.3427505  83.1064606  65.3200150  23.1967640  82.0603714
  40.4889717  64.7803192  36.8824883  40.6581001  65.7070007  37.0524635
  41.3558846  64.4013062  36.7374229  67.7476196  62.4795761  45.0768890
  67.9963608  63.1855431  44.4802551  67.7790070  61.6887627  44.5384979
  61.8891983  54.1580238  74.2206726  62.4081039  54.9544563  74.1081161
  62.4101791  53.6142235  74.8115082  70.7726212  47.9805908   8.1446857
  71.1513596  47.1251030   8.3470011  71.2234650  48.2597160   7.3477821
  61.1504860  23.3584461  79.4948273  61.1406898  22.5708065  80.0386658
  60.5767059  23.1479912  78.7581329  85.7519913  44.4347839  31.0259380
  85.5726318  44.4736214  30.0864944  86.7042847  44.3581123  31.0849934
  49.0503349   4.6616344  68.0776672  49.1229820   4.5717864  67.1274643
  48.1089821   4.7183347  68.2416077  39.7590523  46.6981659   6.4709687
  39.7290230  45.7433243   6.4109340  39.1786499  47.0004463   5.7724056
  32.4162674   2.3258092  81.0021896  32.0979691   3.1631858  81.3394089
  31.6605473   1.9448627  80.5549774  65.1416397  55.1128769   7.2216825
  64.8570862  54.3197098   7.6757202  64.4674683  55.7608681   7.4262233
  60.2656250  47.5387039  84.5684891  59.5924721  47.4298210  83.8967361
  59.8408241  48.0578537  85.2513199  58.6259003  51.9431229  60.9767609
  59.4948311  51.5712471  61.1281013  58.7082405  52.8594856  61.2408333
  17.6486568  20.3216782  81.8815002  18.0086708  21.0202675  81.3350601
  17.4520950  19.6143475  81.2672653  14.8164263  36.6305542   4.8644376
  15.7645721  36.5705757   4.7475820  14.5634651  37.4119301   4.3728151
  32.1475677  64.8819199  88.7060547  32.3603516  65.7618484  89.0169907
  31.1908455  64.8517456  88.7088547  19.8259811  29.8026829  88.2632523
  19.9045639  28.9554195  88.7016602  20.0041561  29.6131458  87.3420792
  15.4101963  67.8417053   7.2289453  16.1989937  67.6562042   6.7194185
  15.6912451  67.7676392   8.1409521  46.0788498  24.8775711  30.0586071
  46.8709564  25.2035351  29.6313515  46.3742943  24.5875053  30.9216290
  20.9982166  25.2880287   3.0151145  21.2695732  25.3741722   2.1012347
  20.1442661  25.7188015   3.0530224  74.1657257  16.1430340  30.2708244
  73.6601334  16.1785965  31.0828247  73.6103287  16.5776711  29.6236324
  25.6981831  59.6193008  30.4986763  26.0470161  60.2137756  31.1628647
  25.5923729  58.7849960  30.9558086  42.0733032  55.9871216  85.4857483
  41.5498924  55.4874306  84.8591843  42.2469444  56.8182297  85.0437698
  50.1255226  17.0815010  86.8074951  49.6150665  17.7868576  87.2051620
  49.5178680  16.6589241  86.2005234  65.0918579  43.9236794  85.6103973
  64.7714539  44.3969765  84.8425674  64.7304916  43.0423012  85.5164795
  47.6553574  56.5815887  80.3655396  47.9508209  55.8158302  80.8580322
  47.3700447  57.2021790  81.0361328  33.5434113  58.1765251  60.2830048
  34.2979355  57.6811638  59.9643478  33.5714073  58.9977798  59.7920990
  80.0269547   2.6196575  30.8026695  80.5174942   1.9550867  30.3189869
  79.8817139   2.2299571  31.6648006  70.2951660  36.2193413  59.9096603
  69.8331070  35.3878899  59.8028107  69.6739120  36.8797531  59.6028404
   6.1291857  52.7093010  20.0555515   6.6250091  52.3786163  20.8045769
   6.1833568  52.0095444  19.4046803  68.8978043  71.0900497  60.6948395
  69.4921722  70.5516205  61.2173805  68.6834869  70.5447006  59.9379425
  85.2021179  34.3168030  77.0696335  84.9864273  33.4138145  76.8365631
  84.4923859  34.5902061  77.6508102  60.4107819   9.2160044  88.9429703
  60.1987877  10.0707502  89.3180695  61.1596565   9.3844824  88.3711014
  54.9579887   3.5810413  72.9214020  54.8270454   3.8380260  73.8341141
  54.8925285   2.6261182  72.9296951  41.5157585  59.4298973  23.6013336
  41.9895706  58.8204079  24.1672478  41.4590759  58.9795151  22.7586136
  51.9414253   3.9110043  79.9912262  52.4565849   4.5618076  79.5144653
  51.1825027   3.7489657  79.4308624  67.3216553  25.9347553  17.2551918
  66.8183441  26.7435493  17.1615505  67.0147476  25.3775043  16.5399914
  39.7495918  20.9809017  87.8853226  39.1382561  21.5254574  87.3893814
  40.0496330  21.5454903  88.5976715  77.9985428  32.7278290  78.6661606
  78.1640320  32.6174660  77.7298584  78.6020432  33.4200439  78.9360886
  62.4279251  56.4590759  13.6723871  61.8341789  57.2061729  13.5979090
  61.9362984  55.8119049  14.1780586  65.6998062   9.6718473  41.3045731
  66.4708023   9.8560314  41.8411102  65.0218506   9.4285975  41.9350014
  60.4271812  43.2343140  23.0251389  60.8808289  43.4831352  23.8304482
  59.5000191  43.2333412  23.2630405  16.2789116  60.7604332  48.5359268
  17.1956635  61.0266190  48.4656219  15.9833288  60.6776848  47.6292725
  51.5897980  68.9334030  69.4225616  52.0943260  68.9184494  70.2358704
  52.2283745  68.7247849  68.7407074  78.2856903  45.8939857  76.1119843
  78.4514847  45.9552994  77.0527191  78.1487350  46.7994499  75.8334045
  82.9362946   8.6646614  53.5249138  83.1260910   9.5988140  53.4379082
  83.6907043   8.3097639  53.9951706  43.8961411  71.1896591  87.8727493
  43.3293648  70.6635056  88.4368134  44.5956650  70.5910797  87.6108398
  64.0307007  49.2213860  22.4864712  64.3881378  48.4844437  21.9911060
  63.4925079  48.8148804  23.1656914  64.0220261  56.9771843  59.4244576
  64.2173538  57.4246407  60.2477798  64.3236465  57.5813828  58.7460747
  12.5940247  64.6796951  26.7570419  13.2349920  63.9741478  26.8441772
  12.4607344  64.9939880  27.6512928  18.1254063  47.6693916   4.9951606
  18.3404636  46.8380890   5.4181519  17.1771736  47.7515869   5.0968003
  25.9397259   5.6004004  19.9779110  26.7586670   5.8281674  20.4180107
  25.2903881   5.5708575  20.6805630  82.9176102  68.6787949  37.6519737
  83.6536102  68.3437042  37.1398697  83.2613983  69.4623337  38.0810471
  45.2684479  55.1970901  54.9291115  45.9080429  54.5189590  54.7116585
  45.5147133  55.4856339  55.8079338  44.3043365  53.3956146   8.1860847
  44.3918877  54.3474503   8.1353436  43.3730965  53.2324333   8.0364265
  71.7336426  11.1383171  30.7339630  71.4419479  11.2713547  29.8320484
  72.0084457  10.2219086  30.7641029  52.6143608  49.3824539  33.7307205
  52.9228401  50.1064568  33.1858444  51.8244705  49.0701904  33.2893600
  21.9884758  64.0864029  52.3029022  22.3483391  63.8841057  51.4393005
  22.4984856  64.8380432  52.6048241   8.5188942  24.0619335  75.9866714
   9.3658609  23.6227646  76.0641937   7.9155898  23.5078773  76.4819260
  72.0250320   2.8039377   7.1221662  71.4947128   3.3446894   6.5368581
  72.9243393   3.0914760   6.9646950  43.6805115  63.1768723   8.6290207
  43.0527992  63.5089684   7.9872127  43.7883568  62.2530746   8.4027462
  72.9730225  32.4810944   3.2143445  73.7256699  33.0701256   3.1614988
  73.2574539  31.7811604   3.8020687  82.1276474  35.4893417  53.2007713
  82.8860245  36.0560303  53.0594940  82.3122101  35.0439339  54.0276794
  78.9641266  49.4902802  50.8121338  78.8289490  48.5829239  50.5388870
  78.1194229  49.9143448  50.6608696  54.4985046  27.4000511  12.1876545
  54.7987022  28.1502037  12.7008638  53.7663765  27.0433254  12.6906109
  85.1387100  34.8871307  57.3219833  86.0074768  34.6510353  56.9968147
  85.3092957  35.3829155  58.1228142  21.6547413  14.5739603  77.3790131
  21.6553364  13.6293726  77.5338898  22.3385067  14.9119234  77.9573593
  56.4023895   5.6491890  58.8861923  55.4895782   5.4031072  59.0360413
  56.3880692   6.6051102  58.8388443   8.1666746   3.9110644  18.5997982
   7.5198541   4.0391674  17.9059353   7.8488178   3.1503122  19.0860634
  10.8831205  51.9016228  33.3065872  10.7503567  51.5424767  34.1838684
  11.3533974  51.2141228  32.8349762  51.4519005  17.1171780  52.2845459
  51.6953087  16.2698135  52.6573181  50.9896240  16.8989353  51.4752846
  77.9509506  19.8460732   8.1990805  77.9667740  19.7234726   9.1482639
  77.3466339  19.1753654   7.8809881  26.6179218  44.7346878  74.8481216
  26.7537460  44.3014870  75.6908112  27.1007023  44.1959496  74.2212982
   2.4799366  29.8517933   8.3394442   2.2529192  29.0875740   7.8096657
   2.2405961  30.6010437   7.7939420  59.4284592  40.8226814  56.8237724
  58.9509163  41.5842209  56.4947739  59.5880165  40.2862167  56.0472565
  46.0019302   9.0332708  23.9201736  45.8960571   9.9739571  24.0620556
  46.9063606   8.8527069  24.1763725  70.6163177   5.1591620  70.3880386
  70.3742371   4.2342958  70.3405914  70.4061737   5.5065227  69.5212021
  35.4510536  41.5885735   2.3331606  36.0729218  42.3112488   2.2479959
  35.5839806  41.0639114   1.5436736  54.9389267  34.5876770   4.5901384
  54.7562943  34.0572319   5.3657079  55.8641891  34.4285583   4.4035902
  78.3312302  56.2031898  36.6940536  77.4244919  55.9811440  36.9056168
  78.5687256  55.5971565  35.9922333  84.9356384  55.3267250  39.1302414
  84.1933746  55.2832451  39.7330627  84.6992950  54.7346611  38.4162140
  30.1864967  12.1398582  75.2546234  30.9323425  11.6224737  75.5583649
  29.8189049  11.6294708  74.5330887  41.1466217  46.0581551  66.3157578
  41.9284706  45.6905708  65.9036560  41.3369255  46.0352516  67.2535629
  38.5032578  42.4765472  57.5585670  39.2759285  42.2797966  57.0289459
  38.5594597  43.4177017  57.7238007   7.8729415  21.6818275  37.2527542
   7.0400348  22.1434593  37.3496742   8.5060444  22.2301998  37.7161140
  36.5683212  42.3385315  80.8229294  36.5205269  41.3828735  80.7971191
  35.8145752  42.6299820  80.3099365  81.6079559  59.5509949  88.8051834
  81.8652344  58.6736336  88.5218430  81.3052444  59.4327698  89.7055283
  21.0712624  45.1746979  84.3223953  20.4141827  44.7526741  83.7688828
  21.8767300  45.1406708  83.8063507  44.0593987   4.0303822  86.7643890
  43.6160698   3.4124248  86.1831665  44.4069023   3.4869208  87.4715805
  66.5816727   5.6195254  76.2447968  66.8771057   4.8083220  76.6581879
  67.3600922   6.1762633  76.2263947  45.2884865  61.8135185  61.9827118
  45.7241974  61.3572845  61.2628250  45.7421532  61.5091133  62.7686844
  40.6389046   0.8475553  22.5212364  41.1020279   0.5751643  21.7290554
  40.7007141   1.8027531  22.5183334  77.0499802   1.6533784  34.4645386
  76.9911423   0.8727190  35.0153008  77.0177078   2.3846445  35.0813332
  59.0847588  55.1073341  61.0379219  59.2215347  56.0377617  60.8595123
  59.8984299  54.6877327  60.7584534  66.3278503  60.6408348  65.4645844
  66.0171585  61.4957314  65.7626648  67.2719345  60.6611748  65.6211472
  24.6406078  51.1600113   7.7408214  24.1288662  50.7739563   8.4516764
  25.5450268  51.1294250   8.0527859  74.4850006  61.6021156  31.5365963
  73.6838150  61.7017326  32.0508041  75.0381317  61.0259933  32.0641899
  42.1335602   9.8045712  61.8246727  42.3023148  10.7463369  61.7958260
  42.1383133   9.5888481  62.7572365  22.1346607  35.2069206  25.7047348
  22.5403481  35.1655273  24.8387470  22.1986790  34.3134613  26.0421734
  40.0678825  43.8401909  78.5875244  39.9328918  43.2288933  79.3116302
  40.4621315  44.6112251  78.9953308  69.8716583  20.1640339  44.0475693
  70.4971924  19.5806580  44.4772263  70.1516953  21.0436783  44.3006248
  70.5013962   0.9753728  29.8070545  69.7500381   1.0640250  29.2206726
  70.3671799   1.6506139  30.4720879  10.3459845  43.5781097  68.4873428
  10.5755835  44.5073624  68.4857025  10.7751265  43.2267418  69.2674789
  45.0313759  17.6947365  32.8123283  45.9208069  17.8619347  32.5005836
  44.6117554  17.2191048  32.0954437  56.9702568  32.8731728  83.3719254
  56.3503952  33.1870041  82.7135162  57.7116432  32.5426788  82.8646240
  11.9410467  65.4721069  52.1526413  11.4734507  65.6847382  51.3449440
  11.8833513  66.2690506  52.6796913  28.5853729  35.8366318  20.2532749
  29.1993446  36.4842224  19.9070110  28.0557976  35.5808754  19.4980469
   4.2433047  44.0335579  21.1418400   3.3593400  44.3923531  21.2199745
   4.3393655  43.8340492  20.2106037  45.8572578   7.9666457  39.4594460
  45.0496864   7.4638896  39.3531380  46.5538292   7.3532343  39.2254715
   2.3817258  42.0575485  72.3764496   3.2888849  42.2461815  72.1362152
   2.2695463  42.4714966  73.2321930  31.0316029  45.9007683  10.9413090
  30.2153683  46.1084061  11.3961487  30.9695702  46.3723602  10.1106567
  72.1477585  30.8063049  24.0555363  72.6743622  31.5811596  23.8592739
  72.1888504  30.2802219  23.2569256  31.7999878  24.7383575  86.0166092
  32.4987259  24.0929317  86.1234818  31.0631371  24.3774815  86.5096130
  36.1127243   8.1916914  27.9452610  36.9258156   8.6693926  28.1093273
  36.3877869   7.4056926  27.4732666  78.5310822   1.1554319  48.8346252
  79.1920319   1.0232123  49.5142517  78.6621857   0.4266879  48.2280159
  13.2129698  45.0487556  75.7008362  12.2868567  45.2670479  75.8052139
  13.6566544  45.5557327  76.3808060  45.1451187  16.1651974  21.0007706
  46.0729179  16.1047764  20.7732372  44.6957321  16.2317505  20.1582432
  85.5128403  63.5075188  37.4444847  85.1133194  62.6418190  37.5291901
  85.5789871  63.8297729  38.3433762  52.5421448  55.2916565  62.6226044
  51.9362526  55.8149757  63.1472626  53.0715141  55.9366646  62.1536026
  23.1153183  33.8755760  76.7615128  23.4367676  32.9780502  76.6757736
  23.1810417  34.0651436  77.6974487   4.7135158  55.2805099  19.7994022
   4.3221169  54.7724342  20.5099640   5.5737338  54.8824539  19.6659641
  21.5279121  43.4580917  39.9999771  20.9368019  44.2046280  40.0974655
  20.9469967  42.7019005  39.9166641  21.8414021  58.6063919  62.1608391
  22.0447750  58.4726372  63.0865746  22.1426868  57.8057823  61.7313232
  72.6562347  22.2917347  79.9060059  72.3777008  22.1837807  80.8153992
  73.6118011  22.3253937  79.9505768  76.4221954  69.1731262  23.9430542
  76.2566528  68.4384155  24.5338383  76.4686813  69.9370041  24.5179920
  47.9550362   5.1954136  84.8136139  47.0382309   5.2759933  84.5505371
  47.9425316   5.3102231  85.7638245  38.3493652  15.9393396  70.5118790
  38.1417809  15.2342968  69.8986435  37.7593727  15.7947922  71.2516403
  31.1384792  63.5184898  21.4795895  31.2527618  62.5909691  21.2725258
  30.4230690  63.8043365  20.9115124  38.7811584  63.0756950   9.4764318
  38.1184273  62.6820717   8.9089146  39.5001259  62.4437866   9.4790955
  40.5233498  33.4252968  75.3928757  41.3317909  33.9375916  75.4071884
  40.2183075  33.4338188  76.3001251  40.6014061   6.4159460  71.8923569
  40.1371613   7.2238674  71.6733246  40.3881798   5.8159127  71.1777039
  11.3265867  44.6876030  83.3952484  11.2404327  44.9291725  82.4730530
  10.7769756  45.3183060  83.8604126  45.9323769  55.6334763  72.3605728
  45.5721550  55.1510849  73.1047287  45.7951813  56.5543098  72.5830002
  16.6838722  46.7544899  46.1254272  16.7126408  46.9280777  45.1845360
  16.4300652  45.8339195  46.1914902  37.0158119  26.7345753  12.4240017
  36.8939781  27.6371193  12.7186241  36.3703728  26.2313805  12.9204245
  56.3276520  35.4857254  44.1629715  55.5126076  34.9906578  44.0802650
  56.0462036  36.3795967  44.3579521  82.1629791  37.0056953   1.5880711
  82.7172394  36.9287529   2.3646750  82.2357101  36.1543541   1.1566081
   8.8115721   7.9288211  80.5036316   7.9590483   7.5210290  80.3515091
   8.6631308   8.8608789  80.3440552  37.7224312  12.9749775  86.4058228
  37.5289841  13.5514231  85.6665497  38.6419601  12.7360992  86.2890625
  17.6791801  50.4777908  52.5805244  17.2910480  50.2516289  51.7352791
  18.2967300  51.1811066  52.3799973  85.7684860  63.3373337  32.5028763
  85.9776077  63.5877762  33.4027519  85.8172836  64.1558151  32.0089760
  10.3575230  66.2010880   3.2276418  11.0943308  66.8091736   3.2874465
   9.6729689  66.6976242   2.7792416   4.9194446   1.7952895  26.9553585
   4.4401708   1.0036416  27.1999435   4.3264723   2.5128124  27.1784668
  44.3875961  10.3580914  40.7276917  44.7205544   9.5472288  40.3431473
  43.7518692  10.0692835  41.3824196  74.7411575  47.4632912  48.3963242
  74.4464493  48.0571709  49.0867462  75.2357712  48.0208855  47.7957649
  41.7847862  13.3667288  77.8473740  42.7121239  13.5763483  77.7363129
  41.6447868  12.5988321  77.2933273  64.6204529  58.3721123  12.4442062
  63.8063316  58.7208519  12.0811338  64.7600632  57.5504761  11.9734020
  36.3369217  58.9529076  26.4467831  37.2645645  59.0932159  26.2569771
  35.8788185  59.3349609  25.6981773  71.4818802   6.1752410   3.9645102
  71.0555725   6.8365092   3.4193335  71.9659195   5.6295824   3.3446789
  33.1989098   0.8684929   6.9283299  32.2791061   0.6549506   6.7715044
  33.4452362   0.3291976   7.6798058  20.6839733  23.2388115  51.4289055
  21.2797832  22.5218105  51.6460533  20.7641125  23.3378353  50.4802208
  38.7928009  71.7216568  81.9912949  39.0659294  71.7038879  82.9085312
  38.4634857  70.8389206  81.8223114  55.2739143  69.9953461  47.4566307
  55.6823959  69.2847061  47.9509583  54.3337326  69.8383026  47.5439911
  74.1693726   3.3148384  19.2292099  73.8563461   4.1622357  18.9127235
  74.2293396   3.4210248  20.1786098  60.0302620  13.7056150  38.7144279
  59.0959435  13.9072361  38.7657166  60.3352737  13.7514505  39.6205750
  43.7354851  43.1319237  82.9075699  43.2744675  43.8906288  83.2654343
  44.0893326  42.6827011  83.6751785  69.5348434  33.3296585  70.1090775
  69.6504974  32.3837013  70.1986313  70.4230194  33.6706200  70.0035782
   2.7533698   5.5338831  17.0687122   2.4788599   5.9992399  17.8588505
   3.5669551   5.9650993  16.8072472  14.7439013   1.9668980  11.5156927
  14.7049694   2.9040065  11.3245277  14.1324196   1.5702705  10.8952026
  22.3590717  60.8684387  48.1752357  23.3155289  60.8789406  48.2114220
  22.1038456  61.7793617  48.3212166   5.6707978  42.0241013  50.5243263
   5.6556249  41.3538895  49.8410873   4.9128928  41.8235016  51.0734825
  16.1793404  29.5898190  81.6646957  15.7941532  29.9514046  80.8665009
  17.0334568  29.2570763  81.3890152  66.6597519  17.5363140  67.7218704
  65.8268280  17.4443493  67.2592468  67.0106812  16.6466904  67.7624588
  51.1502075  48.4272881  17.5921803  52.0729980  48.6221962  17.7555923
  50.6933975  48.7695999  18.3605404  39.4609680  27.8478508  16.5702724
  39.6553688  28.7007141  16.1816044  40.3156242  27.5006142  16.8256588
  47.9728012  67.4004517  53.5596504  48.9222374  67.3298416  53.6587334
  47.6254272  66.6475449  54.0378685  78.2475128  47.3315201  58.4508438
  77.4641724  47.6807098  58.8759117  78.3925705  47.9109116  57.7028503
  66.7156448   0.0696223  81.6820221  67.4353638  -0.4658555  81.3481064
  66.6402512   0.7880529  81.0540085  76.0318451  34.7539291  28.6517735
  76.4292755  34.8200912  29.5200462  75.1776199  35.1752892  28.7466259
  40.4277878  66.9705429  76.6744308  40.7045708  66.1024857  76.3809967
  41.2408295  67.4712524  76.7414017   0.2926582  58.5702972  10.3381834
  -0.2658665  59.3144493  10.5629463   0.9784544  58.9440765   9.7848244
   3.5585737  15.1033897  23.8230095   2.8928311  15.7319880  24.1020851
   3.8538463  14.6909943  24.6347828  77.6922226   8.1394968  46.3103561
  78.1253662   7.3280230  46.5751801  78.1343079   8.3936272  45.5002861
  80.2224884  21.5336380  77.0475845  80.6032867  21.6771774  77.9139633
  79.7568741  20.7009583  77.1255646  56.2904778  60.0802574  34.3370667
  57.2192650  60.2695351  34.4703369  55.9888992  60.7673378  33.7427559
  57.3264046  45.9590149  30.2643414  56.7331505  46.5862617  30.6776772
  57.6813736  46.4272041  29.5086765  28.2345715  45.9200287  24.4078465
  28.6493511  45.8741493  25.2692909  28.9556503  46.0978928  23.8039894
  81.1249771  69.3129272  82.8397675  81.2536011  68.6049347  82.2085571
  80.3749390  69.8020630  82.5015030  11.7842016  12.9274664  69.0715027
  11.9195585  13.8424168  68.8249741  12.0524225  12.8845224  69.9893494
  35.1988678  61.7218285  38.7546806  35.7621803  61.1713524  38.2107239
  35.3598976  61.4197693  39.6485863  76.5417404   2.4712474  52.0291824
  75.7104645   2.1960111  51.6425858  76.8629837   3.1567485  51.4434166
  23.1939545  52.4463730  19.3053761  22.9527149  53.0523720  18.6048069
  22.5759907  52.6376686  20.0108948  39.3701820  17.7451477  21.8692169
  40.3164635  17.6077404  21.8255978  39.2287140  18.5806637  21.4240990
  81.7518311   2.7763884  63.3035278  82.2672119   1.9957168  63.5064278
  82.3477936   3.5067279  63.4698601  46.0630875  59.7828064  80.6194305
  45.6182442  59.0883369  80.1335754  46.7939568  59.3417854  81.0525131
  80.0759430  24.6454468  50.2672348  80.1325684  24.0487823  49.5208969
  80.2891235  24.1014938  51.0254555  58.4354362  41.6478310  85.2835922
  57.9378281  40.9388084  84.8762741  58.9022141  41.2283669  86.0063629
  10.4856081  26.0579147  23.2156620  10.9062366  25.2948456  22.8193951
  10.7954817  26.0588627  24.1213150  80.8361740  54.0221863   9.9699268
  79.8798828  54.0097733   9.9300060  81.0486069  54.8698959  10.3604279
  79.1024628  64.9746475  85.6833267  79.0776672  64.5912476  86.5600357
  79.8450165  65.5782166  85.7067719   8.9576044  51.2771873  48.7848816
   8.9712658  51.9762192  48.1311188   9.7009850  51.4692688  49.3564758
  35.3450737  70.9554672  67.4472656  36.1596336  70.7664108  67.9130783
  35.0526352  70.1044083  67.1210632  78.9002380  13.5392141  27.9175568
  79.2421188  14.0798826  28.6296139  79.2390747  13.9490919  27.1216793
  74.1145859  41.4276428  71.8757248  74.5045319  41.6412811  71.0280609
  73.5115738  40.7084846  71.6875305  82.7174072   1.6049381  54.2609749
  82.8498230   0.8687364  54.8582230  81.7875900   1.8165256  54.3440781
   5.7067204  62.6834068  49.1948814   5.9757514  63.1521111  49.9849281
   5.6863213  63.3550491  48.5131836   8.2852087  41.2260094  83.1275024
   8.2566395  41.2862434  82.1726303   7.6028337  41.8272858  83.4259415
  34.6002083  32.6990051  86.8870773  35.3213120  32.0742111  86.8104248
  34.5275993  32.8668823  87.8266373  28.7284851  11.3500662   3.3157687
  28.4530582  11.4920464   4.2214251  28.0208092  10.8351212   2.9281368
   2.6663604  32.8042908  63.8859215   2.8425009  33.1220322  64.7714996
   3.5327501  32.6949577  63.4939423  72.8490829  40.1990814   7.9537525
  72.7975082  39.9075890   7.0434756  72.0866394  39.8029709   8.3756571
   8.0551844  42.1095924  26.1232681   8.6362743  42.8701439  26.1346550
   8.6120520  41.3786697  26.3913727  77.8300400  30.1893845  53.6810341
  77.0484085  30.1823349  53.1285515  77.8990860  29.2930527  54.0097542
  62.8970108  63.3105698  42.3659210  62.3520622  62.7264824  42.8932762
  62.2733994  63.8915215  41.9302177   4.9363298  36.3702316  27.4815960
   4.6171722  35.5043869  27.2272663   5.7039080  36.5146217  26.9282341
  60.9248734  67.3618851  18.7972946  61.2646065  68.2364502  18.9869061
  60.1019783  67.5197372  18.3345261  44.0621872   2.0079713  50.6752968
  44.6643829   1.6716682  51.3389969  43.8310814   2.8842106  50.9835587
  82.6353760  28.0757656  76.4447174  82.3246078  28.6600227  75.7531281
  82.1661987  27.2551956  76.2938232  67.5016556  50.3393974  33.6469841
  67.6742020  49.3995094  33.5915565  66.5582581  50.4013023  33.7966461
   4.0278149  16.1337929   9.4632921   3.5412817  16.9522552   9.3651314
   3.7749491  15.8069153  10.3266811   5.9161205   6.9256525  36.9709435
   6.7749906   7.2960815  36.7675819   5.3455768   7.2460737  36.2723427
   6.7866240  50.3668633  25.8267193   7.5879164  50.7531166  26.1802330
   6.9315782  49.4222984  25.8816795  37.1092873  60.1807060  52.5748138
  36.6278229  60.9735680  52.8110237  36.4777069  59.6539230  52.0850830
  48.2533646  49.7508545  38.8284302  47.8703613  49.2320442  38.1210594
  47.5034485  50.1675529  39.2529526  23.8969002  10.6641369  17.0973148
  23.8983898  10.2013674  16.2594166  24.7528038  11.0908747  17.1367645
  10.7154799   2.4538274  17.3894558  10.5976105   2.6525826  18.3183460
  10.4213943   3.2439888  16.9362564  12.4873466  57.7341690  84.4681168
  12.8556471  58.1399345  85.2529373  11.8840523  58.3905945  84.1197281
  15.7902794   3.6842866  19.3570671  15.5900621   4.3081350  18.6592445
  16.2926884   4.1913710  19.9947834  72.1788864  69.5713272  51.1952400
  71.3312759  69.7730103  51.5916138  72.1500015  68.6280746  51.0350151
  52.1721649  36.9890289  16.2584705  52.8921547  37.5116081  16.6116848
  52.0660324  37.3034058  15.3606195  54.5176926  10.3696108  40.0401993
  54.3745766   9.4605083  40.3034172  53.7387428  10.5974817  39.5327072
  59.1386414  29.0881653  28.5780926  59.6237373  28.9768372  29.3957253
  59.3427696  28.3032360  28.0697136  79.3006287  38.8657913  41.2411079
  79.1796951  39.8118629  41.3220749  79.9273071  38.6446114  41.9300041
  29.2364731  30.8059654   4.7230830  29.8843765  31.4537926   5.0001621
  29.7401066  30.0015049   4.5988731  63.2343712  58.2538338  39.9335976
  63.2672310  58.7849350  39.1379280  63.4348984  58.8679390  40.6399231
  82.9194565  26.7101765   7.9662490  83.2497025  26.1874809   7.2355242
  82.0148773  26.4185104   8.0798044  70.8462982  11.9152040   9.4175167
  69.9961166  11.6245813   9.7476130  71.4640198  11.2557268   9.7333412
  76.9013138  33.7411728  41.3142014  76.6372147  33.5912285  40.4064598
  76.1076813  33.5795670  41.8243637  21.9133358  57.4859581  77.3140030
  21.0406723  57.3333893  76.9514999  22.1824799  58.3269768  76.9445648
  86.7378845   5.6832538  39.3507462  87.4234161   6.3238916  39.1613655
  85.9367752   6.2027149  39.4186592  64.0920639  14.4544621  38.8976936
  64.1913376  15.3006411  39.3339958  63.1480522  14.3597040  38.7708054
  29.4899502  56.2573853  81.4353714  28.9273014  55.4924812  81.3146210
  30.3606987  55.9578667  81.1739883  28.4755325  41.6793480  47.4065552
  29.2520142  42.0726585  47.8048210  28.7001266  41.5909843  46.4802818
  40.5008316  14.8098431  24.2596493  41.0081749  14.6513424  23.4635887
  39.5881157  14.7678719  23.9743099  30.9650478  66.8207092  36.8350830
  31.3184052  66.4960251  37.6633072  31.3645363  67.6837082  36.7261467
   9.3283768  11.4757805  83.8288345   9.3669291  12.3329897  83.4046402
   8.4640102  11.1340275  83.6001205  47.0372849  24.5981274  58.9859848
  47.9668159  24.4806252  58.7900467  46.6210289  23.8002815  58.6597900
  16.5564251  18.6172638  28.3381100  16.4515896  18.8307228  29.2652988
  17.2088089  19.2417393  28.0208435  74.9337540  45.1998138  79.3400574
  75.8259811  45.1804276  79.6861572  74.8920135  46.0090942  78.8305893
  21.5330696  64.2341690  74.4643707  21.6979122  63.3452034  74.7786942
  22.1216354  64.3367691  73.7165146  82.3669128  59.2241058  54.5493088
  83.1206512  59.7515259  54.8137703  81.6123047  59.6824455  54.9190521
  45.9154968  58.3380241  73.3317871  46.7133293  58.8522377  73.4554062
  45.2382355  58.8318634  73.7940292  43.2945099  30.4271393  13.0129633
  42.4948349  29.9458904  13.2254496  43.5083275  30.1542873  12.1207380
  39.2061882  49.9275169  84.3750076  38.2634964  49.7616806  84.3825607
  39.4799232  49.7952652  85.2826462  52.4610367  32.0596733   8.0857639
  52.6888199  31.1461468   7.9130864  51.8944321  32.0236855   8.8564100
  28.1102371  35.9043121  89.3767242  27.9862309  34.9552307  89.3669205
  27.8093109  36.1940880  88.5155029  83.4108276  66.2086639  22.3742390
  83.3860092  65.7765732  23.2280025  83.5044937  67.1389542  22.5792503
  61.9519463  32.7139473  26.9204922  61.3151855  32.0001526  26.8848763
  62.8009605  32.2750931  26.9735947  66.0704880  12.0724010  52.6559677
  66.7775955  12.0754890  52.0108147  66.2691879  12.8100977  53.2326393
  28.9950428  47.2106857   3.4208982  28.1984482  47.3231125   2.9022183
  28.6931419  47.2226601   4.3291631  49.5026741  65.6362305  33.1840858
  48.6400337  66.0419312  33.2706261  49.9471970  66.1587219  32.5165215
  84.9854279   0.4193057  82.7151642  84.9334030   1.3698732  82.6154327
  84.3180084   0.2101534  83.3686447  81.6571503  57.2531738   7.8141055
  80.9387054  57.8578148   7.9997721  82.3858414  57.5773048   8.3434324
  42.1976242  18.6043396  10.3416376  41.9597282  19.4408760  10.7414455
  42.9672546  18.3149395  10.8316870  35.0015945  44.5065308   3.5649328
  34.7427483  44.3856277   4.4785042  34.2182693  44.8533859   3.1379409
  51.8132820  27.4700050  86.3551788  51.5273056  27.3196373  85.4541550
  51.7484398  26.6114864  86.7734833  21.3329544  12.8024292  71.7020493
  20.5308361  13.0119858  71.2235870  21.3025723  13.3627138  72.4775391
  20.0530930   5.7297206  30.6900940  20.0595093   5.1163483  29.9552708
  19.7784691   5.2021375  31.4400749   2.6608005  12.5446806  64.7693253
   2.9395258  12.5472469  63.8536110   1.9887526  13.2246132  64.8170395
  62.8390694  61.5787964  32.5598755  62.2555504  60.8200226  32.5612259
  62.7620659  61.9417305  33.4422455  53.7476654  54.7694321  75.6371689
  52.9752998  55.3242378  75.5281982  53.3935280  53.8954010  75.8011322
  50.6137543  49.7472115  61.1272507  50.9062271  50.0369835  60.2631187
  51.3149223  49.1743469  61.4377747  53.9795723  46.4555664  47.5307655
  53.6610985  45.5585213  47.6313362  54.2544670  46.5109367  46.6155624
  21.3114834  50.7656364  63.4027519  20.5307255  50.2728310  63.1501808
  21.4406013  50.5526123  64.3269730  71.7612228  69.3954086   7.9955215
  71.1884995  68.6422272   8.1402121  71.5891800  69.9734192   8.7388487
  56.3304863  46.6492958   8.1029577  55.9359932  47.4820633   8.3620100
  56.7046509  46.8201103   7.2386341   8.9326210  47.2034149   2.2445581
   9.6796513  46.7582207   1.8445846   9.0309982  48.1188049   1.9826027
  11.6989927  46.7339821  43.0538368  11.9958172  46.4305534  42.1959000
  12.2623949  46.2763443  43.6778374  63.7054825  26.1711254   3.8787837
  63.2461472  25.3549900   3.6808865  63.2786942  26.8261585   3.3265049
  24.5460987  42.9480476  17.2669868  24.7396774  42.7844810  18.1900272
  25.3904400  43.1853867  16.8835945  54.1917000  42.8189888  27.8183212
  53.3369255  42.3882713  27.8270931  54.7977524  42.1423721  27.5164528
  59.3364449  51.0136681  38.3239937  59.5985298  51.6459694  37.6548615
  59.2490768  50.1863289  37.8505936  70.0592422  63.3073845  31.5653610
  70.7440186  63.8952065  31.2463207  70.3527908  63.0497017  32.4392357
  41.4874153  20.6096706  11.9446545  40.7231865  21.0644169  11.5905428
  41.8790245  21.2369347  12.5524492  31.3161354  70.1150131  13.7464533
  30.7486038  69.7269440  14.4124441  31.1340351  69.6109772  12.9533415
  47.1230278  41.8121758  61.9082527  47.5201111  40.9995461  61.5948944
  46.3671112  41.5269852  62.4215660  79.9747314  66.3871536  65.1089172
  80.1282806  67.2202759  64.6633148  79.2623978  66.5708160  65.7213516
   0.5031813  14.0095234  65.3003922  -0.0646881  14.6769505  64.9152985
   0.2381461  13.9707451  66.2193451   6.7170243   6.9445500  42.9171906
   6.6733193   7.7015138  42.3329582   7.1927757   7.2616553  43.6848755
  72.8198853  45.2680206  29.6652412  73.1982803  44.9292336  30.4765835
  72.0652771  44.7031441  29.4987354  10.3769321  63.8227463  73.6826553
  10.8030252  62.9657631  73.6666412   9.7115793  63.7466736  74.3665771
  71.6498184  18.3984299  53.4635963  71.0592880  18.2437706  54.2008781
  71.1907425  19.0379562  52.9190941  18.1463699  57.9752502   2.4636827
  17.8721161  58.1330490   3.3670745  18.9220886  57.4200020   2.5423856
  84.3498688   1.4713161  23.3526096  84.7892227   1.0062574  24.0645905
  84.5896149   2.3889229  23.4820290  24.9955330  17.4596443   1.8924416
  24.1992989  17.9704590   1.7464564  24.6836491  16.6238518   2.2394469
   9.4545937  24.9960995  16.3510475   8.9544382  24.5858707  15.6455078
   8.8703327  24.9644279  17.1085892  69.0321045  43.8725243  20.6392593
  69.3543396  44.7361908  20.3814335  69.4601059  43.6975861  21.4773769
  74.0819321  13.3591566  62.6731415  73.2186127  13.7260656  62.4826279
  74.5989151  13.5435572  61.8889503  68.2116547  28.4917412  44.2546539
  68.6342392  29.3258343  44.0498543  68.7696381  27.8327579  43.8415871
  47.9213715   5.6898346  63.4899483  48.6222458   5.3245006  64.0298920
  48.0617523   6.6360946  63.5233841  44.0445862  68.9419632  11.3636894
  44.7833557  69.0044479  11.9691200  44.4303131  68.6248169  10.5470724
  57.8141785  37.2301903  60.0188026  57.3302116  36.5537720  59.5450211
  58.7106628  36.8974876  60.0619392  51.6178894   2.5379527  62.2209740
  52.2245102   2.8359783  62.8987846  50.9418564   2.0576050  62.6989670
   5.6200480  24.6119747  35.1075630   4.7545934  25.0161972  35.1693993
   5.8647857  24.4300041  36.0148811  46.5441513  15.7899075  24.5225525
  45.7992439  15.7777252  23.9215603  47.1145058  15.0870037  24.2113380
  28.3567238  53.3583031  49.8252602  27.6697350  53.2026176  49.1771545
  28.4506454  54.3105431  49.8507004  14.3968172  29.4174919   5.7792015
  13.8306065  29.4003220   6.5507860  15.1598110  28.8969402   6.0303931
   2.6723573  21.7799034  12.0153170   2.8496690  20.8628273  12.2245131
   2.3427701  21.7612190  11.1168432  64.7434387  30.8135357  26.7533722
  64.2805481  30.2368813  26.1455593  64.3819351  30.5957298  27.6125069
  21.3125477   1.4693612  25.6140976  21.1032715   0.5447687  25.7466278
  21.7326679   1.7392818  26.4307213  26.1974201  70.4036331  54.3761368
  26.8872795  69.8953781  54.8027458  26.4419250  71.3161163  54.5304794
  12.6254454  64.8704224  11.2763939  11.7889957  64.7654800  10.8229952
  12.5335655  65.6902924  11.7617903  51.9411812  40.0762100  87.6696701
  51.2211075  39.4515038  87.7561111  52.6151505  39.5993233  87.1853409
  80.8779526  65.5545959  12.2635460  80.2909164  64.9751740  12.7492352
  80.9682693  65.1396790  11.4056911  36.0635681  58.2204819  42.1276741
  35.3037796  58.4254189  41.5827370  36.4002228  57.3989105  41.7700272
  10.1107483  38.1062813  65.7776566  10.5482826  37.2825089  65.5627289
  10.7496328  38.7826233  65.5526657  49.8823853  57.4296989  42.0991554
  50.4422264  56.8867264  41.5441856  49.0857506  56.9118881  42.2152443
  39.8438644  24.6862411  47.3121452  39.7994270  23.7692890  47.5831757
  40.4577560  25.0881939  47.9268036  82.2208939  54.1099129  52.9317894
  81.8311081  54.9086723  52.5764313  81.5557861  53.4359589  52.7915955
  71.9912338  50.1556931  26.1790733  72.7570801  50.3388405  26.7232914
  71.4492416  49.5769501  26.7152882  46.0357971  10.5225716  17.0941639
  45.7414207   9.6624899  16.7944374  46.4614792  10.9099636  16.3293419
  24.9409046  11.7199697  86.3701630  23.9843655  11.7130661  86.4050522
  25.1805019  12.6294851  86.5479507  56.6191101  43.4196815  29.5560207
  56.9242783  44.3269234  29.5516071  55.7082787  43.4719467  29.2663956
  74.8638458  65.1648178  19.9092159  75.1333237  64.6202774  19.1695595
  74.7161407  66.0303726  19.5281277  41.0996590  15.6354437  76.3779297
  41.6901817  15.7426195  75.6322632  41.2969437  14.7619667  76.7160797
   9.6213923  18.1725140  74.0494690   9.1233082  17.3554173  74.0272064
   9.2307940  18.7099667  73.3604050  57.4852219  52.2242355  63.9523621
  56.7008133  52.2752647  64.4985580  57.1512146  52.1929169  63.0558739
  60.7481728  67.3069992   0.4061307  61.4853325  67.9065018   0.5219894
  60.3601990  67.2331390   1.2780548  78.2586060  14.7674904  80.6980820
  77.4511032  14.7591658  81.2119980  78.8807755  15.2555218  81.2374878
  70.8917465  27.3671894  15.4557943  71.4511108  27.0580826  16.1683922
  70.3497162  28.0478077  15.8547802  84.1249695  28.5022182  28.3925133
  84.8867111  27.9923782  28.1167564  83.4286194  28.2362747  27.7920151
  58.5695953  25.5552826  22.3848896  58.8898354  25.6203518  21.4851990
  57.7579079  25.0528526  22.3144569  40.4803848  65.9962463  12.1338053
  40.8775673  66.8410339  12.3455009  40.1566811  66.1012497  11.2391424
   2.6802509  35.0266075  15.8440676   3.0947678  34.1933632  15.6202135
   2.3543797  34.9002380  16.7351742  46.0547562  56.6523743  28.0541191
  46.0475845  56.3606224  27.1424942  46.9827499  56.7528801  28.2661419
  47.8661346  19.1443081   4.7321239  48.0816803  19.4053974   5.6274471
  48.6817017  18.7828121   4.3851328  20.9603500  44.8982201   8.0754099
  21.6251659  45.5118484   8.3879976  21.0202293  44.1543694   8.6748533
  47.2474594  16.2970047  30.8594017  47.4302521  15.5652180  30.2700748
  46.3803978  16.6055813  30.5963192  67.1865158  42.7599983  13.6935625
  66.3100586  43.1396217  13.7563782  67.6987762  43.2298813  14.3516121
  43.8116875  52.1210938  30.6056404  44.4862671  51.8514137  31.2288952
  44.0786171  52.9974098  30.3280602  82.1059799  64.3369904  53.3879585
  82.4795227  65.1631088  53.6949310  81.7060318  63.9507904  54.1671371
   9.3998852  33.5945625  77.6339264   8.4619036  33.4935989  77.7958832
   9.5228119  33.2842178  76.7368164  34.2626686  61.1404037  71.6580048
  33.8555565  61.9386292  71.3213654  33.8459930  60.9992027  72.5081100
  86.8472409  71.6576065  89.2096321  90.0000000  90.0000000  90.0000000
