QMMM reactant CHA#2 frame 55446
 55680
  18.0711613  38.9554520  38.0615959  17.3622684  38.6792870  38.7259064
  18.8707714  38.7894096  38.6558647  17.9695568  39.9248581  37.7969666
  18.1299057  38.0098610  36.8794975  17.1510162  38.1151848  36.4117470
  19.1625004  38.4916306  35.8432693  18.9320850  39.5297432  35.6038132
  20.1433773  38.5651283  36.3129234  19.4623241  37.6300316  34.6142120
  19.3276024  36.5757484  34.8559570  18.6712456  37.7780190  33.8790970
  20.9804420  37.9287605  33.6814690  20.4846668  39.3381538  32.7888603
  19.6131248  39.0444832  32.2038116  20.1953373  40.1909943  33.4029083
  21.3104095  39.5612946  32.1132469  18.2837830  36.6184502  37.3587151
  19.1441536  36.2594414  38.1964569  17.4182205  35.7455750  36.7765884
  16.9097233  36.0835075  35.9720192  17.3886509  34.3066711  37.0489578
  17.0994873  34.0421638  38.0660744  16.3826828  33.7263260  36.1904945
  15.4576025  34.2920837  36.3011475  16.7636833  33.7640915  35.1699486
  15.9507732  32.3513184  36.7349472  16.5453320  31.5711842  36.2595673
  14.9446583  32.2391014  36.3309174  15.8787394  32.0070648  38.5219574
  15.2319241  30.3155174  38.5598526  15.2013025  30.0464268  39.6156693
  15.7860584  29.6408176  37.9073029  14.1910095  30.3222961  38.2365074
  18.7344608  33.7305717  36.9108009  19.5623131  34.0207329  36.0634308
  18.8447323  32.6514206  37.6313820  18.0695362  32.4513245  38.2471199
  19.8579464  31.6036892  37.4626007  20.5491829  31.9543095  36.6962090
  20.4739857  31.3216801  38.8058395  19.7660103  30.7538090  39.4094925
  21.7277336  30.4555740  38.5967979  22.4212475  31.0846405  38.0387497
  22.2191639  30.1179676  39.5092773  21.6771564  29.6118870  37.9085121
  20.8667336  32.5095940  39.7993050  19.9448566  32.8688545  40.2566566
  21.3756943  32.0054970  40.6208572  21.5933781  33.6796341  39.2416496
  22.6048622  33.4383392  38.9148827  21.1050415  33.9492531  38.3052025
  21.5948315  34.5727730  39.8664818  19.3183193  30.3447857  36.7609367
  18.2779808  29.8814354  37.0523643  20.1198063  29.7795849  35.8140945
  21.0131092  30.2033539  35.6078682  19.6582050  28.6384621  35.0881615
  18.9225349  28.0442543  35.6302032  19.1171150  29.1276684  33.6712189
  19.6099644  29.9717445  33.1887894  18.9745750  28.2800655  33.0008850
  17.6573486  29.5696735  33.9139214  17.0497971  28.7800846  34.3561096
  17.5655365  30.4402084  34.5634155  16.9831886  30.0180378  32.6854248
  17.5552750  30.8771439  32.3350639  17.0259075  29.2104607  31.9546089
  15.6237793  30.4277210  33.0298042  14.8792734  29.8225441  33.3453522
  15.1381264  31.6259880  33.0309944  15.7258835  32.6826973  32.7195435
  15.2460880  33.5690308  32.7851753  16.7069931  32.7229309  32.4830971
  13.8856688  31.8777695  33.4067078  13.1549463  31.1859722  33.3197441
  13.5668011  32.8057404  33.6460762  20.7731953  27.6047001  34.8740845
  21.9428520  27.9130650  34.8437233  20.4009037  26.3411922  34.6370087
  19.4410496  26.1052475  34.8446388  21.3674068  25.2861519  34.4029198
  22.3120651  25.5714760  34.8658562  21.0924530  24.3116798  34.8065376
  21.8247395  25.0757847  32.9469833  20.9585476  25.0950375  32.0968285
  23.1286926  24.8566723  32.7018318  23.7410946  24.7513847  33.4980621
  23.7672005  24.6910000  31.3432674  23.1038895  24.5182743  30.4957504
  24.6047516  25.9604359  30.9295197  25.3930435  26.1415768  31.6601906
  25.2498150  25.5999756  29.5814018  24.5431652  25.0736580  28.9397354
  25.5696354  26.5477371  29.1483192  26.1396580  24.9727993  29.6356297
  23.7249775  27.1943474  30.7642574  23.0499153  27.0380287  29.9228554
  23.1937637  27.4487820  31.6814117  24.5249081  28.5054951  30.4768810
  24.1206722  29.4629326  30.8055248  25.4877415  28.3497524  30.9635010
  24.8522263  28.6756954  29.4512081  24.7552700  23.4850674  31.4714737
  25.3704376  23.3120918  32.5028496  24.6808929  22.6791058  30.3937492
  24.1037045  22.8959312  29.5937862  25.3180904  21.3093719  30.4068604
  26.1350174  21.3376350  31.1279240  24.2842712  20.1852493  30.7904663
  23.5963860  20.0097370  29.9633579  24.9024372  19.3157425  31.0139122
  23.4200573  20.3369713  32.0839539  23.8913383  20.8392715  32.9287567
  22.5870914  20.9367619  31.7171879  22.8852043  18.9815884  32.4088821
  23.6436749  18.2769394  32.7499008  22.0524654  19.0365620  33.1100426
  22.1134052  18.4206371  31.2848606  21.4124508  18.9549866  30.7916718
  22.3803253  17.1843739  30.8089981  23.4409676  16.5082645  31.0860043
  24.2568741  16.9226818  31.5133953  23.5871906  15.5615654  30.7658768
  21.6430283  16.6063271  29.9577026  22.0491066  15.7462330  29.6179352
  20.8472557  17.1257839  29.6156387  26.0418873  20.9411163  29.1151199
  25.8799438  21.5844288  28.1353970  26.8696461  19.9115467  29.1138992
  27.1943340  19.4467487  29.9497471  27.2432747  19.1324711  27.9164639
  26.3087444  18.8227844  27.4486542  27.8310966  19.7646885  27.2509823
  28.2115765  18.0052509  28.1436729  28.6985092  17.8622818  29.2627277
  28.5573578  17.2130871  27.1402245  28.3637562  17.4651051  26.1815243
  29.3624897  15.9653959  27.2113209  30.0336037  16.1339378  28.0535202
  28.4556789  14.6993084  27.3828297  27.7783051  14.8775587  28.2179909
  27.8555641  14.4944849  26.4962578  29.0413780  13.7823362  27.4477901
  30.2526875  15.7330084  26.0239830  30.0476303  16.2522926  24.8924637
  31.3129787  14.9930964  26.2244701  31.4927845  14.7325716  27.1835823
  32.3862724  14.8235254  25.2869663  31.9442501  14.7903566  24.2911663
  33.4078865  15.9417610  25.1860294  32.8761139  16.8637657  24.9510288
  34.4165001  16.0682659  26.2960663  35.0312386  15.1749487  26.4064236
  35.0689850  16.9234943  26.1201477  33.8054161  16.3478756  27.1542549
  34.3966866  15.8230152  24.1626568  34.8262749  16.6685181  24.0137253
  33.0502243  13.4282064  25.5593300  32.8627167  12.8294907  26.6113968
  33.9810791  12.9550724  24.7343121  34.1789017  13.4853506  23.8977814
  34.7236290  11.6883392  24.8920269  34.6712418  11.3764038  25.9351234
  34.0134888  10.5938931  24.0753384  34.6828117   9.7336092  24.0794659
  32.6662941  10.0854893  24.6615238  31.8758240  10.8350859  24.6983452
  32.3518600   9.1854515  24.1331635  32.8594894   9.9006300  25.7182236
  33.9274368  10.8448830  22.7170181  34.6868553  10.4492044  22.2830563
  36.2260666  11.6899099  24.5044727  36.6378441  12.3972282  23.5792503
  37.0163612  10.8410740  25.1573906  36.5312080  10.4429541  25.9487419
  38.4204483  10.4392767  24.8999062  38.6328583  11.1008224  24.0600586
  39.4359550  10.7439508  26.0008125  40.4036217  10.4241505  25.6142235
  39.5019531  12.2988768  26.4063053  40.2651939  12.5067625  27.1562042
  39.6012421  12.8330612  25.4613781  38.5349312  12.5821524  26.8218994
  39.1376114   9.8799295  27.2506390  39.1233559   8.8430185  26.9149055
  39.9495811   9.9541359  27.9740353  38.2438164  10.2277536  27.7685642
  38.5355911   9.0141287  24.3320541  37.6650620   8.1236210  24.4995384
  39.6001816   8.7854862  23.6459789  40.2622375   9.5288172  23.4749775
  40.0507622   7.5024390  23.0856266  39.1438370   6.9019837  23.0145569
  40.7622414   7.6928663  21.7067890  41.6062431   8.3765583  21.7980347
  41.1741791   6.7191930  21.4415226  39.7327042   8.2490149  20.6108837
  39.3249474   9.2441177  20.7886658  40.2180214   8.4278164  19.6514072
  38.4993324   7.3448653  20.2842445  38.6989937   6.2839370  19.6734333
  37.3800545   7.6161056  20.7946796  40.9000664   6.7441936  24.0283546
  40.9445648   5.4801259  24.0144691  41.6230469   7.4597383  24.9003468
  41.2477150   8.3857050  25.0480404  42.6169930   6.9911141  25.8561764
  42.4872704   5.9162374  25.9823170  43.9858284   7.2810254  25.2471905
  43.9914093   8.2755375  24.8010807  44.7505417   7.2759390  26.0239086
  44.3298378   6.1762733  24.2828846  44.3683701   5.2555141  24.8649654
  43.5355721   6.0956645  23.5407600  45.6774063   6.2817464  23.5469933
  46.4803123   5.9425254  24.2014904  45.6558952   5.6353550  22.6696014
  45.9867706   7.6556849  23.1482868  46.6919212   8.1349525  23.6897373
  45.2766418   8.4504290  22.4215374  44.3020248   8.1261587  21.6503868
  43.8294144   8.8189669  21.0875702  44.1791458   7.1597967  21.3836555
  45.6036110   9.7104397  22.6340256  45.0088692  10.4835043  22.3717976
  46.3693390   9.9286461  23.2554302  42.4707184   7.6700554  27.2077065
  42.2730598   8.8821268  27.3052521  42.4822121   6.9058819  28.2519112
  42.7288284   5.9488244  28.0437717  42.5314598   7.4476256  29.6339645
  41.8198204   8.2729664  29.6119938  42.1476250   6.3526821  30.5776653
  41.0828629   6.1290464  30.5115623  42.5845718   5.4008827  30.2755737
  42.5831757   6.5882688  32.0404396  42.1148949   7.5965376  32.5309486
  43.2083130   5.7772737  32.7467041  43.9858932   7.9343014  29.9095364
  44.8681450   7.1948767  30.2217083  44.2096939   9.1869783  29.9120293
  43.4558029   9.7860041  29.6071930  45.5066185   9.9000587  30.1237240
  45.8474998   9.5475368  31.0971870  46.5186806   9.5590734  29.0030003
  46.5376472   8.4738617  28.9027157  46.2697258  10.2281303  27.6898670
  46.9449654   9.7727671  26.9654388  45.2291222  10.0589676  27.4130478
  46.4610519  11.2828646  27.8874302  47.7539330  10.0230103  29.4963036
  47.9794540  10.7811069  28.9522171  45.2548637  11.3645468  30.2987156
  44.2282486  11.9073992  29.8219070  46.0793762  12.0952711  31.0213814
  46.9953346  11.7368736  31.2508907  45.7313423  13.5117979  31.4931793
  44.7473488  13.4201441  31.9530201  46.7146339  14.1085234  32.5116272
  47.5285072  14.6717110  32.0549774  46.2762413  14.9505692  33.0472374
  47.3335457  13.1679869  33.6024017  47.6821785  13.7523470  34.4539185
  46.6396790  12.3825331  33.9019241  48.5603180  12.3618097  33.1266327
  49.2098656  12.7424278  32.1189079  48.8896179  11.3474007  33.8021660
  45.4233475  14.5504284  30.3901749  44.4068336  15.1907063  30.5328808
  46.3027878  14.5500698  29.4398212  47.1372681  13.9831266  29.4879303
  46.2545319  15.6166897  28.4780540  46.3195419  16.6017818  28.9400806
  47.5240479  15.3944464  27.6801777  48.3950348  15.3389416  28.3331680
  47.4882278  14.3380690  27.4139366  47.7963371  16.4424610  26.5105534
  48.3144989  15.9617996  25.6807518  46.8589745  16.6174297  25.9825020
  48.3692284  17.6970921  27.0499229  48.9364815  17.7792759  28.1477871
  48.2269020  18.7000713  26.3243446  45.0030365  15.6007748  27.5670815
  44.4034805  16.6770401  27.3149223  44.4815788  14.4275837  27.2166729
  44.8262939  13.5021200  27.4283028  43.2608986  14.3147030  26.3523006
  43.4600601  14.8974886  25.4529686  43.1450920  12.8413849  25.9420147
  43.2739754  12.1101885  26.7400398  42.1182289  12.7270422  25.5947762
  44.0706711  12.4718952  24.8102207  45.0496750  12.8386555  25.1186714
  44.0945435  11.3866835  24.7109966  43.7281952  13.0064507  23.4396172
  42.5662918  13.3363504  23.1366024  44.6529465  12.9759369  22.5759926
  42.0767822  14.7389307  27.1428699  41.3408508  15.5905848  26.6503220
  41.8015633  14.2063465  28.3234711  42.3918343  13.4142637  28.5339069
  40.6401253  14.4506874  29.2075691  39.7821617  14.0871830  28.6420097
  40.6217117  13.6857920  30.5586510  41.5835075  13.9406595  31.0037212
  39.4582634  14.1850977  31.5103455  38.5030327  14.2668028  30.9917355
  39.4113998  13.6665144  32.4679298  39.7052689  15.1905031  31.8513069
  40.4928932  12.1246157  30.4335270  39.6038437  11.9336472  29.8325119
  41.2989578  11.8359728  29.7589550  40.5387650  11.3159857  31.7310829
  41.3364029  11.6100492  32.4132843  39.5439415  11.3947811  32.1695137
  40.6936035  10.2432375  31.6156101  40.5727043  15.9491625  29.5122776
  39.5008583  16.5671463  29.4035759  41.7208328  16.5845642  29.8049717
  42.5681229  16.0444202  29.7027454  41.7585258  18.0461445  29.8748837
  40.9447556  18.3313942  30.5415993  43.0913429  18.5311680  30.4556065
  43.8892174  18.2947674  29.7516079  43.0225677  19.6188622  30.4384365
  43.3940315  17.9774742  31.9024506  43.3931580  16.8919029  32.0006104
  44.8085861  18.3795834  32.4375038  44.9512138  19.4602051  32.4334984
  44.7879753  17.9130459  33.4223976  45.5418777  17.8058491  31.8707504
  42.4659882  18.7328987  32.8147507  41.4091949  18.6071796  32.5792122
  42.6245193  18.3341370  33.8167267  42.8011818  19.7700768  32.8190765
  41.6226807  18.7687988  28.5590096  40.9087753  19.7477856  28.5363522
  42.2043457  18.3174763  27.4179707  42.8490639  17.5457287  27.5120182
  42.0073814  19.0682049  26.1769962  42.2039413  20.1038113  26.4544544
  42.8767586  18.5311775  25.1101418  43.9008789  18.6699657  25.4565792
  42.6864319  17.4662628  24.9766064  42.7926445  19.2242508  23.7467785
  43.3859901  18.7279224  22.9788570  41.7618370  19.2930374  23.3992119
  43.4623756  20.6471615  23.8599396  43.5483780  21.2470303  24.9378395
  43.8418045  21.1979961  22.7255077  43.8755569  20.5541649  21.9480457
  43.9410782  22.2030716  22.7173080  40.5433350  19.0457211  25.6741791
  39.9772797  20.0978241  25.4462490  39.9310493  17.8993778  25.6276913
  40.4868317  17.1930923  26.0885277  38.4262428  17.7762890  25.4865971
  38.1782227  18.0627766  24.4645824  38.1687698  16.3236675  25.7497597
  38.9174500  15.8161554  26.3580437  37.2517357  16.1737537  26.3195629
  37.9464569  15.4978762  24.4476528  37.5692787  14.4911947  24.6277409
  37.2296333  15.9937239  23.7931252  39.2759247  15.2997379  23.7201462
  39.6022530  16.2423954  23.2808170  40.1071129  14.8650904  24.2754021
  39.1127205  14.4441519  22.5097237  38.6937447  13.4831095  22.8079796
  38.2691193  14.8749237  21.9703999  40.3881950  14.4335632  21.7658997
  40.6789398  15.3745213  21.5419273  41.1282234  13.9813719  22.2835712
  40.3497581  13.9015942  20.9082088  37.6423950  18.6497898  26.4843311
  36.7501297  19.4183483  26.0054665  37.9018822  18.6339016  27.7897091
  38.5303535  17.9457531  28.1790352  37.1196594  19.5386982  28.6577339
  36.0442543  19.3949471  28.5531464  37.5123672  19.2559719  30.0833416
  38.5270653  19.6435223  30.1744194  36.6116829  20.0350990  31.0307865
  36.6651344  21.0946617  30.7806358  35.5688553  19.7356300  30.9262486
  36.9564514  19.9873848  32.0637245  37.2754288  17.8758621  30.4667606
  37.9387894  17.3491726  30.0149326  37.3415909  21.0158958  28.3699913
  36.3704300  21.7853966  28.3157692  38.5878143  21.4245567  27.9909801
  39.3309288  20.7490730  27.8832569  38.8653412  22.8610344  27.5767937
  38.7060890  23.4871063  28.4547310  40.3405991  23.1755314  27.2701836
  40.9783096  22.7801247  28.0608025  40.6295700  22.7893734  26.2926979
  40.5939102  24.6770134  27.2434139  39.8810196  25.1969337  26.6034355
  40.4890938  25.0960312  28.2441845  41.9821930  25.0620308  26.6616898
  42.1087914  26.1410828  26.7495632  42.7592697  24.5899200  27.2628269
  42.0637360  24.7715321  25.1440449  41.7794266  23.7384644  24.9439411
  41.3027153  25.3316021  24.6006622  43.4145355  24.9406548  24.6470890
  44.1602020  24.5073719  25.1727734  43.4674187  24.7916374  23.6495419
  43.6261711  25.9145412  24.8109589  38.0106239  23.1791725  26.3133640
  37.2941666  24.1796722  26.3936043  38.0904808  22.2374325  25.3262749
  38.6837006  21.4289608  25.4469528  37.3813515  22.4191837  24.0326214
  37.4268646  23.4426517  23.6603985  37.8560524  21.4482765  22.9701309
  37.8824730  20.4801006  23.4701672  37.1882553  21.4325371  22.1087952
  39.2603378  21.8070335  22.5497475  39.4395370  22.8712330  22.7029285
  39.9463654  21.1836891  23.1232510  39.4155884  21.5727158  21.0896187
  39.7709122  20.4767628  20.6273842  39.1344109  22.5741119  20.2613182
  39.1823769  22.3345413  19.2813148  38.8707314  23.4595451  20.6694584
  35.8451843  22.3525200  24.2694035  35.0871048  22.8603268  23.4174995
  35.3052521  21.6843414  25.3312740  35.8171043  21.0298157  25.9054737
  33.8365250  21.5927906  25.5841484  33.2380142  21.6054440  24.6732559
  33.5111847  20.2168732  26.2887516  33.6995010  19.4531460  25.5341949
  34.2658844  20.1807499  27.0743885  32.1453705  20.1182175  26.9351768
  31.8326588  20.9622288  27.5499611  30.9832897  19.9832249  25.9290543
  31.0455818  19.0764179  25.3274593  30.0382576  19.8793201  26.4621754
  30.8606148  20.7990799  25.2167110  32.0131073  18.8912907  27.8416538
  31.9617939  17.9771309  27.2502327  32.8690033  19.0889854  28.4869862
  31.0218620  19.0171261  28.2771988  33.3788719  22.8720379  26.2923031
  32.4001541  23.4283810  25.8058949  33.9935913  23.2798252  27.4007530
  34.7980194  22.7370472  27.6807251  33.6932220  24.5754070  28.0578423
  32.6708412  24.6446934  28.4293747  34.6615334  24.7632980  29.1968307
  35.6207237  24.5229454  28.7382660  34.6280823  25.7692165  29.6152878
  34.4463615  23.7267265  30.3774185  34.4906006  22.7275066  29.9441719
  35.5368881  23.9263020  31.5150890  35.5522499  23.0665531  32.1849442
  36.4818115  24.0397930  30.9837284  35.4530830  24.8031197  32.1571693
  33.0413513  23.8534470  30.9756813  32.9944878  23.3977852  31.9647579
  32.7979965  24.9156742  30.9522324  32.3344994  23.3135033  30.3456650
  33.7720566  25.7074642  27.0837612  32.8121872  26.5492649  27.0161858
  34.8046837  25.6618595  26.1833611  35.5771599  25.0223255  26.3032856
  34.9201469  26.6908817  25.1629238  34.7190056  27.6464367  25.6472359
  36.2729301  26.5696793  24.4164486  37.0136681  26.3677692  25.1901684
  36.1209793  25.7273083  23.7415962  36.6281853  27.7224770  23.5530586
  37.5649414  27.4622326  23.0602551  35.9146767  27.8449326  22.7381916
  36.9239655  28.9677906  24.2787113  36.0985680  29.6211758  24.8835850
  38.0833435  29.4577827  24.1055222  33.8367500  26.6320972  24.0941181
  33.4788666  27.6315861  23.4550972  33.2686653  25.4815769  23.7983685
  33.7051773  24.6433220  24.1545792  32.0614357  25.3810310  22.9447117
  32.2425613  26.0144463  22.0763340  31.9458351  23.9443531  22.4296875
  32.9656715  23.6773109  22.1527042  31.7108612  23.2568092  23.2421970
  30.9933262  23.8594627  21.1843796  30.9466610  22.8423958  20.7951508
  29.9597778  24.0565357  21.4690533  31.2773724  24.7182655  19.8777485
  30.5077209  24.5008316  19.1371689  31.1798954  25.7429371  20.2364197
  32.6487694  24.4972115  19.2323818  33.3467407  24.8531055  19.9901981
  32.6976318  23.4528065  18.9242744  32.7281494  25.3673573  18.1023540
  33.6686859  25.3890438  17.7349072  31.9962749  25.2230606  17.4214382
  32.5316467  26.3282471  18.3435612  30.7329521  25.7873268  23.5736752
  29.8318748  26.3220921  22.9233875  30.5608387  25.5307083  24.8810844
  31.2345352  24.8691769  25.2397079  29.4421005  25.9710045  25.6934490
  28.4676781  25.6824589  25.2993183  29.5356655  25.2070522  27.0388546
  30.5156136  25.5691090  27.3498497  28.4176159  25.6909809  28.0278606
  27.4841690  25.7392521  27.4671040  28.2309322  24.9642029  28.8184586
  28.6109505  26.6772404  28.4497776  29.3977127  23.6657715  26.8248367
  28.3438339  23.4377193  26.6653538  29.8773155  23.3226166  25.9081440
  29.9380875  22.8193169  28.0085011  29.4810753  23.1025028  28.9566784
  29.8194828  21.7410488  27.9018650  31.0013447  23.0180950  28.1429329
  29.5117168  27.4754620  25.8178558  28.4792271  28.1726475  25.9104443
  30.7313290  28.0721912  25.9574699  31.5870838  27.5496902  26.0790272
  30.8854351  29.4961987  26.1508312  30.1558533  29.7458324  26.9212208
  32.3189621  29.8812389  26.6394386  32.9819908  29.3585262  25.9500427
  32.5163002  31.3545532  26.4840603  32.5058594  31.6682091  25.4402142
  31.8075256  32.0031548  26.9988976  33.5010910  31.6367455  26.8564167
  32.5544205  29.4713078  28.1059551  32.0966682  30.1859856  28.7899113
  32.1222076  28.4804173  28.2453556  34.0269318  29.3071575  28.4560585
  34.5229912  28.5911484  27.8008099  34.5126724  30.2828579  28.4431877
  34.0763626  28.8958893  29.4642811  30.4375973  30.3215961  24.9502640
  29.6915150  31.2640228  25.1923618  30.8885994  29.8839951  23.8072166
  31.6718712  29.2471619  23.8393555  30.4793510  30.2496796  22.4140167
  30.6977692  31.2944164  22.1928425  31.3097076  29.4166298  21.3932037
  32.2883568  29.8930798  21.3353844  31.4230614  28.4247818  21.8307991
  30.8086205  29.3131638  19.9416637  29.7626953  29.0112820  19.9965248
  31.0738869  30.2730484  19.4985428  31.5173721  28.2807522  19.1114426
  32.7046394  27.9565620  19.3093929  30.9313965  27.8880463  18.0812817
  28.9241314  30.1581402  22.2036285  28.3354626  31.1137924  21.6846294
  28.3391819  29.0984116  22.7398891  28.8907566  28.4121780  23.2348137
  26.8759327  28.8656559  22.5551662  26.6689377  29.1688919  21.5288582
  26.5139999  27.3876610  22.7377453  26.9559746  26.9018726  23.6076698
  25.4398193  27.2874928  22.8933125  26.9313507  26.5363789  21.5391884
  27.8674088  26.7867966  21.0400028  27.1967010  25.5601368  21.9449482
  25.8679371  26.3911400  20.4531174  25.4726429  27.3694096  19.8320904
  25.5042973  25.1915703  20.2479973  25.9951496  29.7415428  23.4914989
  24.7441921  29.9257317  23.2132759  26.4972267  30.3005791  24.6165237
  27.4868698  30.1158962  24.6977749  25.8082962  30.9880714  25.6824074
  24.8214874  31.1449833  25.2468758  25.6570721  29.9923744  26.8425484
  26.6468487  29.6278534  27.1174374  25.1903343  30.4728374  27.7024384
  24.7945194  28.7801285  26.5254669  23.5662155  28.7956715  26.5780067
  25.3523426  27.6599369  26.1437969  24.6522980  26.9342861  26.0848923
  26.3437405  27.5221119  26.0087681  26.3253002  32.3807182  26.0257416
  25.7676773  32.9707489  26.9823856  27.3541584  32.8467636  25.4151287
  27.7778473  32.2441483  24.7241554  28.2229042  34.0522461  25.7596245
  29.0445576  34.0036736  25.0450439  27.5739994  35.4073296  25.3423977
  26.8245316  35.6851959  26.0834694  28.3434372  36.1779633  25.3892193
  26.9421673  35.4771690  23.9769421  27.5611458  35.2739143  22.7844601
  28.5550938  35.1980782  22.6219273  26.5883656  35.4998207  21.9081898
  26.6391010  35.3735428  20.8367977  25.4396534  35.7522202  22.4727936
  24.6198368  36.0458374  21.9611416  25.6721992  35.7154121  23.8239155
  24.9419937  35.9411049  24.5869770  28.7234879  34.0850983  27.2456398
  28.6345329  35.0414772  27.9365082  28.9234962  32.9137650  27.8673058
  28.9157391  32.0349426  27.3696003  29.1404934  32.8082237  29.3088436
  28.2869949  33.3353271  29.7352257  28.9948101  31.3568001  29.7170639
  29.7226906  30.6723804  29.2813263  29.0547657  31.2706394  31.2279491
  30.1160221  31.3212414  31.4714203  28.5964241  32.1234283  31.7287216
  28.6533260  30.3197536  31.5783329  27.7616367  30.8047104  29.2159119
  26.9839954  31.3130779  29.4576569  30.4788380  33.3031464  29.8951111
  31.5573711  32.8642349  29.4638939  30.4289589  34.1245689  30.9314537
  29.5403652  34.5520439  31.1500053  31.6449776  34.6026726  31.6174908
  32.5367928  34.3162384  31.0600681  31.4914665  36.0945473  31.6310501
  30.7687588  36.4395866  32.3704720  32.4105225  36.5349388  32.0176964
  31.2647305  36.7253304  30.2711449  32.0267105  36.3399239  29.5936852
  30.3585472  36.3143578  29.8261337  31.1084099  38.1815643  30.2751026
  30.1080418  38.5258598  30.5374489  31.8443947  38.5290565  31.0001392
  31.4176521  38.8917809  28.9897938  30.6247272  38.6090012  28.2974014
  31.2937584  39.9506416  29.2168732  32.7776070  38.7185593  28.4128437
  33.4372330  38.9767609  29.1327972  32.9060249  37.7551079  28.1383038
  33.0203018  39.3075829  27.6291008  31.6843777  34.0007286  33.0202942
  30.6742649  33.7217255  33.6195450  32.8652229  33.8373108  33.6772423
  34.1509323  34.2399712  33.1717415  34.1925659  35.1990891  32.6555443
  34.5033073  33.4333153  32.5289078  34.9725304  34.3811493  34.4437332
  34.7517967  35.3182297  34.9548683  36.0451088  34.2168236  34.3403854
  34.5050926  33.1364784  35.2517548  34.7881470  33.3263206  36.2870979
  35.0052490  32.2246933  34.9252625  32.9939880  33.1196632  34.9542618
  32.6556168  32.0841217  34.9186897  32.2156067  33.7538300  36.1091957
  31.6057720  33.0492973  36.9587784  32.1917572  35.1060219  36.0992088
  32.6381645  35.6089058  35.3456001  31.5135403  35.8610992  37.0734444
  31.8774090  35.6797638  38.0847893  31.7783489  37.2935333  36.8768921
  31.1385365  37.6206703  36.0573044  31.3876839  37.8216743  37.7466888
  33.3182983  37.6530380  36.7142258  33.4318771  38.6443901  37.1528854
  33.8795700  36.9220238  37.2961998  33.7718315  37.7304688  35.3064079
  33.0446663  37.4307861  34.2906227  34.9406128  38.0880737  35.1574707
  29.9991474  35.5684814  37.0468063  29.2168255  35.8577080  38.0180321
  29.4264946  35.1459312  35.8865051  30.0219326  34.9013329  35.1082230
  28.0432205  34.7142067  35.6769180  27.3258495  35.4132729  36.1067848
  27.6165981  34.7386627  34.1852341  27.9294376  33.7909050  33.7470779
  26.5375347  34.7473526  34.0314598  28.1315975  35.9050827  33.3537865
  28.5044708  36.9515305  33.8985214  28.0577068  35.8543282  32.0809555
  27.7242641  33.3386726  36.3319817  26.6124878  33.1346741  36.7250748
  28.7809658  32.4851189  36.5115509  29.7288647  32.7503128  36.2851410
  28.4886322  31.1457253  37.1149559  27.4764004  30.9517269  36.7601929
  29.5623131  30.1233273  36.6374283  30.5105801  30.3384380  37.1299858
  29.3409252  28.6525230  37.0498352  28.3367214  28.4038925  36.7065277
  30.1874752  28.1195889  36.6168938  29.3787384  28.5654087  38.1356888
  29.6711617  30.2040710  35.1060333  28.6560860  30.1206913  34.7177467
  30.2340488  31.0613441  34.7367859  30.2704697  29.3642750  34.7543602
  28.3245831  31.0820808  38.6516876  29.2065792  31.5704174  39.3946037
  27.2831154  30.4573078  39.2033768  26.5402393  30.2043056  38.5675926
  27.1634293  30.1791725  40.6662445  27.1933098  31.1401691  41.1797638
  25.7691326  29.5440426  40.9405975  25.6619816  28.6176434  40.3763275
  25.5685558  29.2122364  42.4448204  25.4479618  30.1093826  43.0520210
  24.6768799  28.5853519  42.4394646  26.4004726  28.6581059  42.8795090
  24.5801506  30.4835606  40.4846191  24.6319714  30.5936661  39.4014359
  23.6813412  29.9785652  40.8384857  24.6317024  31.3910885  41.0861473
  28.3023777  29.1817493  41.0663071  29.1254425  29.5216160  41.9061165
  28.2606850  28.0591259  40.3690414  27.7462139  28.0395546  39.5001144
  29.0503044  26.8329144  40.5461426  30.0997410  27.1265984  40.5228386
  28.7392731  26.2270527  41.8894005  29.4195423  25.3759804  41.9211998
  29.1175117  26.8572483  42.6943130  27.3250732  25.7402973  42.2932167
  27.4448795  25.3678837  43.3105927  26.6280098  26.5776062  42.3266144
  26.7391376  24.7632999  41.3761635  27.1028786  23.5758572  41.4481964
  25.8391666  25.0582485  40.4452934  25.6127739  24.2680111  39.8584633
  25.3291817  25.9049778  40.2377701  28.9516068  25.8541641  39.3575897
  28.1120205  25.9682541  38.4679260  29.8495121  24.9128609  39.3407440
  30.5717335  24.8528519  40.0442314  29.8985023  23.7791309  38.4202347
  28.9396095  23.7114410  37.9063797  30.9431572  24.1302738  37.3460274
  30.7448807  25.1076584  36.9061356  31.9362965  24.2307434  37.7838516
  31.0646305  23.0787220  36.2658234  31.4882870  22.1891136  36.7318802
  30.1114655  22.8028164  35.8147545  32.2103157  23.4036350  34.8786354
  31.2792568  24.5742550  33.9064331  31.8381386  24.8897476  33.0254021
  30.4186516  23.9978905  33.5669250  31.0532951  25.3555355  34.6321335
  30.0531445  22.4375305  39.0610924  30.4285488  22.4302006  40.2140427
  29.7610397  21.3338470  38.3788719  29.4510612  21.3963699  37.4196510
  30.1315346  19.9587688  38.7211342  30.9681301  19.8472786  39.4109001
  28.8858566  19.1567593  39.3256111  28.0129700  19.3222160  38.6941109
  29.1270237  18.0937881  39.3312683  28.5458889  19.6956940  40.6909103
  28.6434975  20.7807236  40.6550598  27.1795254  19.2059879  41.1732635
  26.3725281  19.4524555  40.4832611  27.1911182  18.1481228  41.4357262
  26.9960289  19.6823139  42.1363602  29.5647430  19.3024750  41.8258514
  29.3775883  18.2960854  42.2003670  30.6031494  19.4350224  41.5221291
  29.3715534  19.9635315  42.6707115  30.6019440  19.2141666  37.4535370
  30.1254768  19.4240398  36.3138275  31.7070847  18.4317398  37.5840187
  31.9738712  18.3294010  38.5527573  32.4099197  17.6243401  36.6266022
  31.9462166  17.8484592  35.6659508  33.8618736  18.0350246  36.7370071
  34.1914711  17.6291599  37.6934280  34.4526596  17.5020466  35.9920120
  34.2085800  19.5384293  36.6801834  33.8642540  19.9799232  37.6153984
  35.6401329  19.6584091  36.6642647  36.2106476  18.7488976  36.8524284
  35.9753189  20.0595875  35.7078094  35.9858170  20.3893280  37.3952675
  33.5532188  20.3257828  35.5449371  33.9995766  20.0044746  34.6038628
  32.4777489  20.1662750  35.4673500  33.7633934  21.3741379  35.7567749
  32.2363739  16.1536274  36.9072266  32.2102051  15.8053055  38.0536423
  32.1448097  15.3916397  35.8857346  32.1044502  15.8740740  34.9993210
  31.9676628  13.9727325  35.9955559  32.4762077  13.6183863  36.8921738
  30.5253944  13.5486155  36.0549812  30.5547886  12.5428677  36.4741592
  29.9942455  14.1978779  36.7509995  29.9421120  13.5481033  34.7801666
  30.4309120  12.9949999  34.1663666  32.8113441  13.2755728  34.9188499
  33.0082207  13.8771315  33.8091698  33.4196968  12.0684099  35.0765877
  33.3225250  11.7523279  36.0309181  34.0769348  11.2084846  34.0580177
  33.7017860  11.4894466  33.0739326  35.5597954  11.4829674  34.0874176
  36.0455742  10.8935461  34.8650398  35.9702873  11.1673422  33.1282616
  35.7265930  12.5562706  34.1784744  33.7622452   9.6400318  34.3019295
  33.8659172   9.1885090  35.4827881  33.4422951   8.8672247  33.2748032
  33.3123627   9.2848816  32.3644295  33.3389015   7.4311175  33.4073868
  32.4540596   7.2838511  34.0266342  32.9078064   6.8134794  32.0034676
  32.9822502   5.7260947  32.0158463  31.5884380   7.3446684  31.2615700
  30.7767372   7.0131626  31.9091358  31.6769218   8.4287653  31.3323345
  31.4824276   6.8643036  30.2888870  33.9169922   7.2536631  31.1341648
  34.5954590   6.5752206  31.1025352  34.4928169   6.6062918  34.0293503
  35.5536766   7.0897837  34.3344574  34.2247543   5.4234138  34.6049843
  32.9160767   4.7046928  34.6610756  32.6501541   4.3758974  33.6564445
  32.1039581   5.3065929  35.0688515  33.1115875   3.4531806  35.4534607
  33.4116745   2.6348019  34.7990112  32.2973824   3.1822152  36.1255875
  34.2657547   3.7426085  36.3412933  34.7976532   2.8310125  36.6136475
  33.8882713   4.2430086  37.2330399  35.1766624   4.7033601  35.4943542
  35.6554413   5.4322343  36.1482773  36.2813072   3.9335270  34.8371773
  37.2252998   3.4540558  35.5360260  36.2286644   3.9268079  33.5002861
  35.5470657   4.4892921  33.0112686  37.4404221   3.5343740  32.6999054
  37.8095589   2.6431968  33.2074890  37.0497169   3.1369374  31.2808590
  37.9554863   3.0142760  30.6870232  36.5905151   2.1498501  31.3346691
  36.0382767   4.1084476  30.5741005  35.4489479   3.5543101  29.6564484
  35.7216873   5.2410030  31.0454960  38.5000648   4.5660768  32.7301636
  39.6847458   4.2235451  32.6049919  38.1564980   5.7861385  33.0495148
  37.1826591   5.9543233  33.2579765  38.9798393   6.9553733  33.2443924
  39.8941956   6.7112727  32.7035942  38.2346764   8.2102995  32.6313362
  37.4709892   8.5924253  33.3087273  39.0115089   8.9747133  32.6487503
  37.6599083   8.1209145  31.2112522  36.8018532   7.4502501  31.1659679
  37.1239014   9.4986362  30.7715302  37.9619064  10.1857433  30.8886909
  36.8085480   9.5116320  29.7282257  36.2524261   9.8579617  31.3188133
  38.5716858   7.6370192  30.1435146  38.2295609   7.9148974  29.1466007
  39.5553055   8.1019211  30.2102757  38.6427727   6.5555935  30.2599754
  39.4894028   7.0025053  34.6760788  38.7788200   6.7427855  35.5989647
  40.7708740   7.3310261  34.8453255  41.3204155   7.5922351  34.0391769
  41.4498634   7.4009438  36.1577072  40.7090492   7.7279096  36.8873558
  41.8914337   5.9780650  36.5282288  40.9816246   5.3995037  36.3681831
  42.5863457   5.5580182  35.8010712  42.2574654   5.7157440  37.9235039
  41.3317947   5.5480280  38.9459343  40.3326836   5.5284696  38.7993240
  42.0050011   5.2179270  40.0853348  41.5550880   5.0391202  41.0507393
  43.3170815   5.3076735  39.7834969  44.0789452   5.1573739  40.4293137
  43.4906616   5.4876690  38.4275589  44.4342003   5.6361747  37.9234924
  42.6078835   8.3845034  36.1630974  43.3089333   8.6331635  37.1363487
  42.9940796   8.9627142  34.9833412  42.5061798   8.6271830  34.1651306
  44.2293434   9.6883898  34.7302322  44.9913177   8.9835968  35.0630531
  44.3386879   9.8257589  33.1880798  44.2380180   8.8322935  32.7510567
  43.6275291  10.5143423  32.7317810  45.3435593  10.1803865  32.9587669
  44.2972488  10.9890690  35.5648880  45.1955338  11.1670094  36.3512001
  43.2459602  11.8144436  35.6507072  42.3727531  11.4517727  35.2956314
  43.3172302  13.2639046  36.0742073  44.0804024  13.4396992  36.8323441
  43.6594810  14.1924334  34.9434624  44.4369507  13.7135448  34.3482208
  42.5772133  14.5752125  33.9822426  41.8301010  13.7853603  33.9043770
  42.0048141  15.4048262  34.3972130  43.0083389  14.7365007  32.9942055
  44.4365463  15.3977728  35.4369621  43.9190407  16.0819302  36.1094322
  45.2935219  15.0949640  36.0386276  44.9509277  15.8800983  34.6057701
  42.0359764  13.7418242  36.6674576  41.0148392  13.1418142  36.3506622
  41.9672165  14.8544312  37.4418373  42.8134804  15.0876703  37.9413757
  40.7695580  15.7163992  37.6170158  39.9085312  15.0640326  37.7624435
  40.8475914  16.5155926  38.9104500  41.6739655  17.2203445  38.8180618
  39.9043427  17.0491257  39.0275917  40.9256134  15.7617884  40.2119141
  39.8685036  15.0526733  40.7260933  38.9689369  15.0317211  40.1288071
  39.9052811  14.3225880  41.9353371  39.0785255  13.7192726  42.2801476
  41.0753250  14.3496723  42.6798248  41.2346230  13.8337488  43.6151581
  42.1826286  15.1198416  42.2842026  42.9571648  15.4669895  42.9520226
  42.0750198  15.8172455  41.0765266  42.8618393  16.5374165  40.9072113
  40.6640396  16.7940197  36.4504738  41.4215584  17.7815647  36.3887520
  39.5999794  16.7172718  35.6332970  38.5920830  15.7233686  35.6958504
  38.0807838  15.8270588  36.6528854  39.1037483  14.7704420  35.5608406
  37.6548538  15.8279858  34.4675064  36.6176834  15.5169258  34.5924988
  38.1576042  15.3847485  33.6079216  37.7729225  17.3227024  34.2333946
  37.1155243  17.7703724  34.9787292  37.5419579  17.5473518  33.1921043
  39.2289734  17.6543007  34.6081047  39.8885956  17.5948143  33.7423897
  39.3081970  19.1412964  35.0491638  39.4423218  20.0237732  34.1632500
  39.2799644  19.5110092  36.3383789  39.4027061  18.7374611  36.9760742
  39.3617668  20.8201561  36.9545097  38.4628410  21.3338490  36.6137009
  39.3148575  20.6161785  38.4614944  40.1745186  20.0172157  38.7620430
  39.4037971  21.5675125  38.9860458  38.4051971  20.0956764  38.7609787
  40.6502037  21.6184025  36.5971947  40.5594101  22.7703762  36.3210869
  41.7553673  20.9151630  36.2142792  41.7662239  19.9067688  36.2701607
  42.8798409  21.6073875  35.5353203  43.1498146  22.3813972  36.2537384
  44.1898499  20.7254448  35.3290291  44.0360298  19.8823338  34.6555252
  44.9152565  21.4783745  35.0208397  44.9105072  20.2002487  36.6279030
  45.8888817  19.9382610  36.2251091  44.9677391  21.0552254  37.3015823
  44.2347641  18.9587555  37.3890266  43.4401932  19.3127136  38.0458908
  43.7519760  18.3028526  36.6645851  45.1614609  18.1245689  38.2046089
  44.7135735  17.1477451  38.3871269  46.1139984  17.9036770  37.7229729
  45.3487854  18.6936245  39.5815201  44.5084343  18.8944168  40.1045761
  45.9403572  18.1064377  40.1519241  45.7409554  19.6243782  39.5816841
  42.4420166  22.2804756  34.2612877  43.0217094  23.3000832  33.9475555
  41.4881668  21.7630749  33.4462585  40.9732590  20.9615021  33.7815971
  41.0644035  22.5075588  32.2104263  41.9616051  22.8497047  31.6946049
  40.5499802  21.4474583  31.2439785  39.5960045  21.0126991  31.5423279
  40.4956360  21.9168835  30.2617378  41.2031326  20.5751076  31.2662487
  40.1722107  23.7122478  32.4101143  39.8988342  24.4830875  31.4680901
  39.4529762  23.8749504  33.6193161  39.4623108  23.1170807  34.2868843
  38.6006699  25.0530643  33.8770943  37.9124184  25.1924629  33.0434380
  37.6313782  24.9290237  35.0789719  38.1773186  24.8771152  36.0209694
  36.5246353  26.0186367  35.2151146  35.7724380  25.6348419  35.9043159
  36.9426193  26.8561554  35.7736435  36.1350517  26.4206295  34.2798462
  36.8845024  23.5158081  35.0998421  36.2394066  23.5175819  34.2212372
  37.5740662  22.6820679  34.9676399  36.2638206  23.4225178  35.9909973
  39.5559998  26.1795120  34.0983353  39.4189720  27.2564793  33.5512772
  40.5547676  25.9182644  34.9735603  40.4574242  25.0511169  35.4821625
  41.6147118  27.0279522  35.2339363  41.0253525  27.9158497  35.4628296
  42.3311157  26.8814468  36.5212326  43.0951195  27.6270084  36.7415504
  41.5529213  27.0062790  37.2741852  42.9320145  25.4403553  36.6681747
  42.1328392  24.7021198  36.6016617  43.5835075  25.2748737  35.8101120
  43.7693825  25.5591068  37.9028091  44.6151695  26.2410316  37.8149223
  43.1917191  25.7651901  38.8038826  44.2632103  24.2511501  38.4478912
  45.2450066  24.0781059  38.2859154  43.6142921  23.2597694  39.1182175
  42.3572998  23.1839371  39.2070503  41.9724426  22.3507557  39.6287079
  41.7911797  23.9844875  38.9647179  44.2666359  22.1924667  39.5569725
  43.6660385  21.5581264  40.0639191  45.2322731  22.2422161  39.8488045
  42.4537354  27.3735065  34.0051537  43.1294098  28.4103184  34.0987892
  42.3874168  26.6473503  32.8867989  41.8211555  25.8186665  32.7739639
  42.9554482  27.1540833  31.6107788  44.0079193  27.3733444  31.7905941
  42.9662971  26.0234489  30.6362095  43.1048737  25.1026192  31.2027550
  41.9977570  25.9554272  30.1408310  43.9195023  25.9919338  29.5760899
  43.9202652  24.9578762  29.2313881  43.5984344  26.7300663  28.8411198
  45.3206215  26.2864323  30.1944218  45.8555298  27.3396187  29.8733025
  45.9879112  25.4460030  30.8388386  42.3208504  28.3528290  31.0635014
  42.8269424  29.0740643  30.2522449  41.0946350  28.6306820  31.4845867
  40.7318840  28.1476727  32.2940369  40.2593880  29.7126751  31.0046349
  40.6582146  29.8960323  30.0069256  38.7599792  29.2409153  30.9351864
  38.4984093  29.1901035  31.9921169  38.1183167  30.0517082  30.5902424
  38.4089508  27.8484306  30.3137035  39.1047668  27.0978546  30.6886444
  36.9303665  27.5078793  30.7028236  36.7739906  27.5786362  31.7792244
  36.2601852  28.2417755  30.2552109  36.6665077  26.4989109  30.3858681
  38.5601883  27.8162308  28.7588043  39.5908737  27.7353954  28.4134922
  37.9635239  27.0073185  28.3371925  38.1307373  28.7554874  28.4102592
  40.4774284  30.9980717  31.8386860  40.7748070  30.9920654  33.0386658
  40.3666267  32.1458969  31.1832066  40.0157928  32.0272179  30.2435627
  40.7212296  33.4290199  31.8752804  41.6880569  33.3308182  32.3689423
  40.9025841  34.5704460  30.8554344  41.7365685  34.2572670  30.2273502
  40.0094032  34.8045959  30.2762051  41.3810539  35.7500420  31.4902401
  42.2561607  35.5525017  31.8319511  39.5557785  33.8273697  32.7795105
  38.3403816  33.7530212  32.4607925  39.9241982  34.0859299  34.0456009
  40.9147530  34.1366119  34.2362137  38.9850655  34.4575653  35.1401443
  39.4574928  35.0336380  35.9357910  38.2334557  35.1379318  34.7397766
  38.3508415  33.1909790  35.8276634  38.0863304  33.3018265  37.0430260
  38.2166061  32.0197983  35.1610031  38.6468887  32.0527534  34.2478371
  37.4444122  30.8684654  35.6027489  36.4437828  31.1919746  35.8894310
  37.2477837  29.8320580  34.4601173  38.1871605  29.5169334  34.0058441
  36.7977829  28.9628983  34.9398727  36.1794090  30.1165123  33.4080734
  36.2076645  30.9399815  32.3696251  37.1117058  31.4474239  32.0669365
  34.9404907  31.0583363  31.7126503  34.7904625  31.5187473  30.8263016
  34.0253868  30.2301865  32.3270378  32.6768646  29.9462986  32.1497421
  32.1842995  30.4089470  31.3072853  31.9663773  29.1020966  32.9976120
  30.9227409  28.9000454  32.8068199  32.6916122  28.5631733  34.1053352
  32.1515388  27.9534302  34.8145142  34.0617523  28.7138519  34.2381172
  34.5520897  28.2054443  35.0551224  34.7700195  29.6338158  33.3968048
  38.0704155  30.1401653  36.7682152  37.3513641  29.4219856  37.5056953
  39.3145027  30.3168736  37.0695992  39.8682251  30.9417133  36.5012093
  40.0448875  29.7920399  38.2606964  39.9560318  28.7205429  38.0815125
  41.5852089  30.1442547  38.1302223  41.9988441  29.4767818  38.8861923
  42.0343628  29.8709316  37.1754189  42.0583649  31.4997749  38.4986115
  41.6662254  31.7958603  39.4715729  43.1346321  31.3774395  38.6201859
  41.7482872  32.6121483  37.4691200  41.2183113  32.3927879  36.4231224
  42.1333694  33.8460579  37.7226448  41.7578697  34.6195221  37.1926842
  42.6142578  33.9916267  38.5988045  39.3958282  30.2274437  39.5870247
  39.6083298  29.6140709  40.6241417  38.6227150  31.2908192  39.5243530
  38.5468903  31.7796288  38.6437759  37.8090820  31.7720833  40.6457291
  38.4699669  31.6016655  41.4956093  37.6344299  33.3176193  40.4631805
  37.2139816  33.4779129  39.4703903  36.9732819  33.7120934  41.2347832
  38.9697266  34.0786591  40.5814590  39.7941589  34.0853691  41.6939125
  39.5623856  33.4142418  42.5077095  40.9016685  34.9137115  41.8689499
  41.4048615  34.9090462  42.8245506  41.2451820  35.7701836  40.7795258
  42.3527145  36.5951805  40.9770088  42.3208160  37.4065323  40.4648628
  40.4219933  35.8179970  39.6684418  40.7887764  36.5227737  38.9368973
  39.2948418  35.0121460  39.5744438  38.6401100  35.1567383  38.7277870
  36.3966751  31.1312218  40.7991905  35.7525940  31.2865562  41.8149986
  35.8932877  30.5092525  39.7696800  36.4742393  30.5170097  38.9435234
  34.6506310  29.7653255  39.7813301  33.9188461  30.4515648  40.2075653
  34.1515541  29.5237255  38.3584633  34.9417496  28.9982319  37.8222275
  32.8581963  28.7180862  38.2759514  32.9744377  27.7251472  38.7103081
  32.0272141  29.1524372  38.8317490  32.4659538  28.6317444  37.2626457
  33.9682198  30.8163776  37.5829391  33.0686340  31.2943993  37.9706802
  34.7996445  31.5061245  37.7281494  33.7903976  30.7902412  36.5078621
  34.6149292  28.4869022  40.6394119  35.3637772  27.5542259  40.3378677
  33.7060814  28.2842121  41.6393433  32.4805450  28.9525814  41.8830147
  31.8169899  29.0033817  41.0197601  32.7838745  29.9696827  42.1311989
  31.7915039  28.2094212  43.0596733  30.9668827  27.5699673  42.7447166
  31.4970112  28.9852867  43.7663651  32.8694382  27.3739586  43.7209473
  32.4503098  26.4490929  44.1172523  33.4345856  27.9765720  44.4319801
  33.7734146  27.0753460  42.5027657  34.8148689  27.0831356  42.8243332
  33.3477020  25.8107452  41.8219261  32.2612419  25.8124695  41.1444778
  34.1687164  24.7205353  41.9157448  35.0765190  24.8096504  42.3493881
  33.9396896  23.3651218  41.2675781  32.8533669  23.3899937  41.1816444
  34.5493355  23.4057465  39.8709984  34.1771889  24.2941551  39.3607635
  36.0100021  23.6329346  39.9521637  36.4792557  22.7973557  40.4714928
  36.2924271  23.6983356  38.9014206  36.1686897  24.5615368  40.5004463
  34.2863159  22.2287731  39.0393944  33.2075462  22.0743103  39.0619202
  34.6296349  22.4743118  38.0344353  34.6700363  21.2849560  39.4267807
  34.4144554  22.2183838  42.1851959  35.2991905  22.3939705  42.9950714
  33.8486290  21.0051880  42.0032730  33.2557793  20.9836674  41.1858559
  34.5010719  19.7307186  42.4234276  35.5901222  19.7699051  42.4004288
  34.1214867  19.4844952  43.9135246  33.8851013  20.4586735  44.3415451
  32.8273926  18.7544746  44.1086121  31.9775200  19.1626034  43.5615730
  33.0225906  17.7271748  43.8009529  32.6453247  18.7254124  45.1829071
  35.1215439  18.6950665  44.5856552  35.1445274  17.7995319  44.2405624
  34.0227318  18.6200447  41.4214096  33.2311821  18.9238663  40.4934082
  34.5498543  17.4262238  41.5583305  35.1965866  17.2247868  42.3075027
  34.3318138  16.3194504  40.6719055  33.8318176  16.6833019  39.7742882
  35.6453133  15.7402191  40.2102089  36.1401215  15.2551556  41.0516205
  35.4588242  14.9275560  39.5081367  36.6519432  16.9592018  39.3054237
  37.3352623  17.6563320  40.2175522  33.4504738  15.1983395  41.2412643
  33.9143791  14.4061871  42.1015015  32.2164116  15.0692587  40.7363968
  31.8298492  15.5741434  39.9516907  31.3619270  13.9055872  41.0857048
  31.5874214  13.5863132  42.1032066  29.8853874  14.4077053  41.0694046
  29.2299557  13.7314329  41.6181908  29.8731651  15.3485851  41.6195831
  29.4105682  14.5490770  39.6450615  30.1261406  14.9656620  38.9361801
  29.0348186  13.5704155  39.3465042  28.0244350  15.6913767  39.5953979
  27.7775688  15.4779711  37.8371239  28.6681080  15.7994070  37.2970047
  27.7891865  14.4077063  37.6309700  26.8923836  15.9949694  37.4666367
  31.6247997  12.6894064  40.2051239  31.9618874  12.7207413  39.0551643
  31.6290264  11.5401926  40.8412361  31.4468117  11.5712347  41.8341827
  31.8788910  10.2224798  40.2417145  32.8180885  10.2988605  39.6938324
  32.2726974   9.1993322  41.3728676  33.1851692   9.5298643  41.8691025
  31.4551468   9.0543032  42.0790367  32.5244942   7.7927685  40.7440605
  32.6164169   7.0746326  41.5588760  31.6851578   7.4043427  40.1672211
  33.7872658   7.7231193  39.9027481  34.8498001   8.1859140  40.2160225
  33.8112450   7.2080746  38.6961327  32.9327965   6.8160186  38.3883553
  34.5527306   7.4084086  38.0402641  30.6976757   9.7957554  39.3135986
  29.5497799   9.6461239  39.7972946  30.9453964   9.5224829  38.0492363
  31.7923050   9.8392677  37.5992355  29.9660931   9.0614815  37.1070290
  29.1307163   9.7602854  37.0631104  30.6824017   8.9014320  35.6967392
  30.9020882   9.9112806  35.3502655  31.5020256   8.1987228  35.8467903
  29.8323803   8.3733740  34.5158005  30.5078888   8.1412191  33.6924591
  29.2817326   7.4800954  34.8106613  28.7783375   9.4706097  34.1686020
  28.7198029   9.9397116  32.9800644  27.8998222   9.7421455  35.0557442
  29.3203182   7.7474313  37.5076637  30.0203362   6.7928452  37.8948517
  27.9902420   7.6463437  37.3333168  27.5807400   8.4832802  36.9435120
  27.2174473   6.4993367  37.4310493  27.5379162   6.0787258  38.3841934
  25.7230854   6.9101009  37.4177017  25.6386318   7.6755180  38.1891327
  25.3882561   7.2810674  36.4490051  24.8369617   5.7102146  37.7833977
  25.1390915   4.7967911  37.2710762  25.0195198   5.4705482  38.8309402
  23.0372715   5.8083334  37.6650696  22.6050491   4.0563631  37.4565582
  22.7036476   3.6236813  38.4521332  21.5328407   3.9885414  37.2725105
  23.2543278   3.4567828  36.8185616  27.5855045   5.5269971  36.2322884
  27.4274788   5.9198074  35.0853348  28.0768089   4.3275275  36.5526161
  28.2231407   4.2109799  37.5451393  28.1656342   3.1748140  35.6794472
  28.5569630   3.5067248  34.7177811  29.0863781   2.1997373  36.4042892
  29.9673347   2.8163967  36.5824738  28.5659714   1.8307995  37.2881203
  29.6534271   1.0464822  35.5456123  29.6781788   1.1648996  34.2932587
  30.0009613  -0.0132352  36.1188202  26.7734680   2.5607116  35.3981895
  25.9955120   2.3126607  36.3357391  26.4501286   2.3905005  34.1660767
  27.1434917   2.6133702  33.4663048  25.0696945   2.2210078  33.6754227
  24.7075481   1.4880079  34.3962975  24.1227894   3.4919260  33.8269882
  24.0388660   3.7530415  34.8819199  24.7252750   4.7359929  33.1826057
  24.6550922   4.7678347  32.0953369  24.1023407   5.5344071  33.5858269
  25.7819901   4.8704901  33.4136162  22.6801090   3.2736778  33.3374557
  22.0771217   2.6988797  34.0403824  22.2031422   4.2532115  33.3040695
  22.6668034   2.6792879  32.4238777  25.1096077   1.7669622  32.2546234
  25.8992481   2.2996998  31.4926281  24.2670097   0.7436724  31.8635807
  23.6760921   0.3043464  32.5548897  24.3449230   0.0812120  30.5476933
  25.4088039  -0.1351531  30.4505196  23.7334213  -1.2885772  30.5534668
  24.0565739  -1.7043146  29.5990887  23.8141766  -2.2074707  31.8123379
  23.1934261  -1.8670433  32.6411171  23.5511875  -3.2314029  31.5468197
  24.8547268  -2.1527522  32.1322823  22.3642750  -1.1264000  30.4209633
  21.9984207  -1.9870149  30.6379719  23.9370613   0.9644815  29.3448811
  24.2544422   0.5013178  28.2202015  23.3658504   2.1290095  29.5401344
  23.1018562   2.3064239  30.4987469  23.2910862   3.2002149  28.4862518
  23.0444679   2.7701383  27.5155220  22.3977718   3.7977567  28.6680031
  24.5263386   4.1036320  28.4738102  24.7339745   4.8946753  27.4840584
  25.4176292   4.0886979  29.4451771  25.2905483   3.3629596  30.1360149
  26.6311836   4.8712912  29.5190830  26.3849545   5.8813086  29.1914616
  27.0266781   4.8271890  30.5338440  27.6758575   4.4924631  28.5252380
  27.8833714   3.3511374  28.1470604  28.4357719   5.4550409  28.1183548
  28.3084106   6.3681722  28.5307503  29.4659939   5.3187008  27.0947285
  29.1523590   4.5884080  26.3487988  29.7140064   6.6116481  26.3418941
  30.1005840   7.3575625  27.0363503  30.5240536   6.5067663  25.6201420
  28.4981232   7.2319040  25.6544323  27.6587296   7.4075241  26.3272457
  28.9395542   8.5262842  24.9158859  29.2965698   9.2300425  25.6677876
  29.7119598   8.4149284  24.1549072  28.0643196   8.9313517  24.4079628
  27.9330482   6.2857766  24.5127888  28.6805077   6.0636535  23.7511692
  27.6463757   5.3233809  24.9367142  26.9838238   6.6127648  24.0883541
  30.7616405   4.7994461  27.6761723  31.0406971   4.7920656  28.8776665
  31.6318188   4.3344440  26.8285847  31.3792210   4.4284101  25.8552055
  33.0739059   4.3732276  27.1979504  33.1710091   4.0257916  28.2265244
  33.9148140   3.5714269  26.1710148  33.9065971   4.0954843  25.2152958
  34.8838463   3.3629079  26.6244431  33.2985191   2.1674633  25.9324188
  32.3323174   2.2864845  25.4421177  34.0439301   1.7462378  25.2578583
  33.0820236   1.3478286  27.2345619  33.8391876   1.5690314  27.9868069
  32.1049385   1.5410969  27.6773491  33.2792511  -0.1786607  27.0008545
  32.6627083  -0.5107399  26.1655731  34.2975693  -0.3014136  26.6319733
  33.0026779  -0.9217473  28.1813679  33.7420654  -0.9472251  28.8689423
  32.1077957  -0.6114284  28.5320721  32.8854904  -1.8821622  27.8915920
  33.6637383   5.7664781  27.2683735  33.3552437   6.5765944  26.4029694
  34.5710754   6.0188823  28.1908169  34.7521553   5.3022232  28.8790836
  35.5033302   7.1315441  28.1557961  36.0026588   7.1584148  29.1243286
  36.5621796   6.8592834  27.0168571  36.1399612   6.5747104  26.0530891
  37.2346954   7.7038574  26.8667889  37.3395271   5.5789442  27.5220661
  37.5779724   5.5677061  28.5856056  36.7014618   4.7009797  27.4213009
  38.5824928   5.3139377  26.6326237  38.2065926   5.4544859  25.6191921
  39.3840485   6.0256400  26.8303452  39.1675072   3.8688133  26.7521820
  39.8510475   3.9302936  27.5989971  38.3597145   3.1912386  27.0287075
  39.8398895   3.3379359  25.5159683  39.2133980   3.2606895  24.7275200
  40.5692711   3.9148955  25.1219788  40.3357620   2.4620688  25.6000423
  34.8028946   8.4609041  27.9656715  35.1933136   9.2198219  27.0927830
  33.7308922   8.8345051  28.7297935  33.5651550   8.2719002  29.5520496
  32.9751968  10.0640898  28.6159115  33.3332367  10.6156673  27.7466183
  31.5489101   9.6452761  28.4010105  31.5571651   8.9479628  27.5632839
  31.0944481   9.1909103  29.2814178  30.4785690  11.0945854  27.8700428
  31.1966591  11.6046886  26.8655357  33.0252571  11.0094776  29.7729492
  32.9008751  10.6094866  30.9404469  33.0513878  12.2800980  29.3960857
  32.8062134  12.5261736  28.4477005  33.3976517  13.4569654  30.2003460
  33.5255661  13.1095839  31.2255611  34.6390572  14.2920532  29.6065311
  34.4965897  14.7533846  28.6293011  34.8365860  15.3618231  30.7244587
  35.4362602  16.1479187  30.2656078  33.8413925  15.7498035  30.9416332
  35.4150352  15.0179052  31.5819073  35.9273643  13.4262257  29.5895309
  36.7789345  14.0914764  29.4467793  36.1064377  12.9120865  30.5338268
  35.9997940  12.4144745  28.4131107  35.3058968  11.5752497  28.3650742
  35.7237892  12.9932756  27.5316849  36.9957314  12.0191441  28.2133026
  32.1413803  14.3268280  30.0857887  31.8197346  14.7652073  28.9928799
  31.4935284  14.6963749  31.2768898  31.9129429  14.3476791  32.1269493
  30.2930527  15.5707626  31.4314442  30.0343781  16.0315952  30.4781189
  29.0571899  14.7168522  31.7527084  29.0921268  14.3080101  32.7625237
  28.0964832  15.2149925  31.6223373  28.8759785  13.5840721  30.7765751
  29.0674648  13.9210424  29.7578087  29.6566792  12.8570652  31.0003395
  27.5323963  12.8904285  30.7585678  26.7456341  13.6321335  30.6207924
  27.5458050  12.2993450  29.8428497  27.2426796  12.0784159  31.9722080
  27.9413395  11.4502878  32.3429260  26.1738930  12.1175852  32.7443390
  25.0854301  12.7352552  32.3451843  24.2658482  12.7634182  32.9347572
  24.8764534  13.1730566  31.4593182  26.0266361  11.3653631  33.7861404
  25.0784245  11.1878462  34.0852776  26.7952919  10.8259478  34.1580315
  30.4975166  16.7188530  32.4814796  31.3590775  16.6936913  33.3480492
  29.7234039  17.7864819  32.2129631  29.0288944  17.6959324  31.4852562
  29.7725735  19.0587597  32.9379272  30.2123451  18.9364853  33.9277534
  30.6771412  20.1251564  32.2097282  30.7073021  21.0156384  32.8376083
  32.1837425  19.7671261  32.0816345  32.3290939  18.9127350  31.4205856
  32.8038559  20.6219139  31.8116360  32.5939903  19.5183105  33.0603523
  30.2370968  20.6119194  30.8555412  29.2560005  21.0564594  31.0226460
  30.9296932  21.4040623  30.5710735  30.4321995  19.7571430  30.2079353
  28.3154774  19.4301834  33.2011337  27.5244141  19.2891884  32.3690109
  28.0622826  20.0003834  34.3907280  28.8257427  20.0632191  35.0489693
  26.7267704  20.4598083  34.8963013  26.0906563  20.6892529  34.0414238
  26.0279884  19.3028183  35.6607323  25.6846886  18.5616913  34.9389458
  26.8149338  18.8250904  36.2443352  24.8423882  19.7652550  36.5552559
  24.6004620  18.8602333  37.1124878  24.9527168  20.5969143  37.2511482
  23.3829765  20.3205528  35.6652107  23.5211926  22.0755577  35.5794182
  23.5847244  22.4658146  36.5951767  24.3582611  22.2210064  34.8965836
  22.6684608  22.5467014  35.0905724  26.9909210  21.7048454  35.7783775
  27.5799408  21.6727180  36.8970261  26.6480198  22.9475594  35.2307243
  26.2472916  22.9064713  34.3045311  26.7064915  24.2299137  35.8971939
  26.8356571  24.1188259  36.9737968  27.7938023  25.1085873  35.2685699
  27.8742237  26.0988064  35.7170105  28.7439823  24.5801754  35.3462868
  27.5030937  25.4881802  33.7970123  27.3866367  24.6745987  33.0810318
  26.6014538  26.0981693  33.7416801  28.7586689  26.5190010  33.0691986
  27.9313202  26.8863850  31.5504093  27.0716286  27.5285683  31.7418289
  28.6445789  27.3256321  30.8529682  27.5923767  25.9845695  31.0405560
  25.4616680  25.0533390  35.8651009  24.5944214  24.9519958  35.0142365
  25.3872318  26.0069847  36.8410683  26.1101933  26.2036877  37.5183678
  24.2414036  26.9363117  36.8123093  23.5313606  26.7016525  36.0192947
  23.4413147  26.7176285  38.1025581  22.6074696  27.4062366  37.9660988
  22.9658222  25.2299633  38.0777740  23.7408943  24.5080833  38.3351822
  22.2599869  25.1162205  38.9005508  22.4197903  25.0047646  37.1616783
  24.1914406  27.0908203  39.2211266  23.5412254  27.3479595  39.8789253
  24.7098236  28.4341850  36.6758614  25.8087273  28.7728558  37.1929932
  23.9374790  29.3261433  36.0294342  23.0558338  28.9904099  35.6687622
  24.5291939  30.5590954  35.5028687  25.1618843  31.0422840  36.2474022
  25.2090874  30.3317318  34.1391525  24.3618011  30.1591740  33.4755058
  25.9142227  31.5174255  33.4746399  26.7134609  31.9156723  34.0997124
  26.5185089  31.3369045  32.5856247  25.2322788  32.3448982  33.2788239
  26.2206764  29.1593552  34.0394020  26.9053612  29.0328217  34.8780289
  25.5637531  28.2896938  34.0239067  26.7510967  29.1412735  33.0873413
  23.5535927  31.6467266  35.3857498  22.4203186  31.3221664  35.0473518
  23.8521690  32.8791580  35.7972450  24.7944946  32.9769783  36.1473198
  22.9581833  34.0164528  35.6942177  21.9646702  33.8272438  36.1007004
  23.5843277  35.2261810  36.4589386  24.0225658  34.9979782  37.4305191
  24.4070206  35.5856056  35.8408012  22.5212154  36.2560654  36.6688385
  22.4419403  36.8782578  35.7773819  21.5143642  35.8401985  36.7063255
  22.7851868  37.1693230  37.8437576  23.9286175  37.4918175  38.1199989
  21.8603115  37.5289307  38.7261391  22.0984783  38.0490799  39.5584984
  20.8820724  37.2794724  38.7564659  22.6595192  34.2530670  34.2435188
  23.4710426  34.7274055  33.4670601  21.4162960  34.1490936  33.8450127
  20.8057823  33.8226166  34.5803909  20.8208008  34.4227028  32.5716133
  21.2029648  35.3924484  32.2527885  21.4801521  33.4690247  31.4675198
  22.4950504  33.8537407  31.3671341  21.4582939  31.9847088  31.6562481
  20.4658871  31.5500641  31.7758675  21.6804409  31.4861412  30.7127533
  22.1427460  31.6793003  32.4476738  20.7872772  33.6502609  30.2862778
  20.9884472  34.5452232  30.0031300  19.2388420  34.5048409  32.5421143
  18.4976826  33.5931511  32.9391518  18.6896973  35.5484467  31.9878292
  19.3394394  36.0632591  31.4108524  17.2848454  35.7432442  31.5721035
  16.6965141  35.4794312  32.4509506  17.1154594  37.1978188  31.1922226
  16.0549927  37.3455391  30.9880390  17.4054470  37.8677368  32.0016823
  17.9213982  37.7403717  29.9611511  17.5554619  38.7826233  29.3837795
  18.7711067  37.0146103  29.4811230  16.7629871  34.7957268  30.4544430
  15.5412703  34.8019142  30.2238121  17.6566143  34.0545921  29.7810764
  18.6513672  34.1580048  29.9220562  17.2268047  33.3201752  28.5226631
  16.5662231  33.9467773  27.9234142  18.4303741  32.9234009  27.6780720
  19.0794373  32.4485397  28.4138222  18.1144485  31.9445286  26.5575123
  17.8525581  31.0471134  27.1180134  17.3598061  32.3051376  25.8585300
  19.0434914  31.7284870  26.0299644  19.0472279  34.2241173  27.1692600
  19.7449722  34.1262550  26.3375893  18.2320309  34.8156509  26.7525539
  19.3839512  34.7847214  28.0412922  16.4568481  32.0612488  28.8634930
  16.8716602  31.2629051  29.7317543  15.2213573  31.8571625  28.4377575
  14.5047607  32.8032112  27.6370468  14.7783470  32.7503929  26.5832615
  14.6640272  33.7651405  28.1243134  13.0624762  32.4999924  27.6426678
  12.6103268  32.7074890  26.6728191  12.5275354  32.9472427  28.4804649
  13.0245419  31.0120449  27.9194927  13.0113678  30.4065590  27.0132294
  12.1391516  30.7096958  28.4787598  14.3095455  30.7475014  28.7950306
  13.9790525  30.8529224  29.8283615  14.8194294  29.2872486  28.7346420
  15.6718931  28.9660568  27.9042797  14.3966913  28.4460678  29.7309093
  13.9250002  28.8735523  30.5150414  14.7252064  27.0464687  29.8053722
  15.7276087  27.0202312  30.2326908  13.8143187  26.4248753  30.9082661
  13.8554888  27.0960503  31.7661285  12.7954502  26.3118534  30.5378170
  14.3416719  25.0951462  31.3851280  14.3937922  24.4401836  30.5154114
  15.2832308  25.2313271  31.9171257  13.4062004  24.5028667  32.3353043
  12.3698864  23.8961792  31.9718018  13.6421299  24.5671482  33.6053886
  14.3231392  25.2638454  33.8717422  12.9633427  24.3314552  34.3151741
  14.6663599  26.2903957  28.5050259  15.5063505  25.3642006  28.4149780
  13.8286018  26.6347866  27.5128212  13.0986643  27.3091354  27.6932144
  13.9857702  26.0105953  26.2085686  14.3504553  24.9899235  26.3240414
  12.6097593  25.8605194  25.4244099  12.7562685  25.2926826  24.5056076
  11.9605236  25.2596970  26.0612793  11.7403498  27.1332340  25.0473652
  10.7390089  27.0356827  24.3126507  12.3345594  28.1831722  25.3826046
  15.0318546  26.6879234  25.3243866  15.5495033  26.0127544  24.4117470
  15.3052921  28.0025387  25.4419632  14.8859091  28.4100933  26.2654419
  16.1193943  28.8385544  24.6075592  16.0567112  28.4558887  23.5888615
  15.7742977  30.3518200  24.6442223  15.8424234  30.7059212  25.6728477
  16.3925552  30.8968315  23.9309063  14.3147783  30.5976219  24.2661762
  13.7480574  30.0789680  25.0394325  14.1630812  31.6701756  24.1448612
  13.9094687  29.9007034  22.8915424  13.7266884  30.5388374  21.8345737
  13.6523762  28.6790981  22.8444195  13.5113277  28.2141800  23.7298908
  13.1323204  28.3484497  22.0442219  17.6204185  28.6176128  24.8729477
  18.4406586  28.7552929  23.9543839  18.0234928  28.2792091  26.0992031
  17.2674637  28.2102566  26.7653618  19.3537941  27.8827305  26.5222855
  20.0370865  28.7248249  26.4123497  19.2499809  27.2733421  27.9518089
  18.4296112  26.5613880  27.8611794  20.4935608  26.4316196  28.4906635
  20.2119045  26.1436310  29.5034981  20.5732803  25.4987469  27.9325466
  21.3697758  27.0734711  28.3991394  18.9416275  28.3718719  28.9720974
  18.0828819  28.9015198  28.5596275  18.7134266  27.9754353  29.9614735
  20.0591354  29.3376942  29.3023663  20.3832283  29.7831421  28.3618088
  19.6666164  30.1417770  29.9248466  20.8609562  28.8650131  29.8696003
  19.8889656  26.7667065  25.5914612  19.1369038  25.9675102  25.0218182
  21.2178650  26.7231789  25.4154072  21.8318367  27.3014832  25.9710178
  21.8301792  25.6428318  24.6074886  20.9940166  25.0624638  24.2174797
  22.5643692  26.1946716  23.3667259  23.2345238  26.9463634  23.7838001
  23.0842075  25.3934765  22.8414040  21.5897408  26.7973995  22.3309040
  21.0470982  25.9868355  21.8444595  20.9608822  27.5392075  22.8232021
  22.3791752  27.5611134  21.3083801  22.8751068  28.4497833  21.6987896
  23.1566010  26.9424076  20.8601475  21.6421452  28.0512085  20.1429291
  20.6646080  28.2607899  20.2864609  22.0489578  28.1277714  18.8338394
  23.1950207  27.8533192  18.3531952  23.4443951  28.1809425  17.4309273
  23.8738003  27.5017433  19.0133095  21.1997337  28.7181473  18.0119953
  20.3088837  29.0202122  18.3797607  21.4099216  28.7357922  17.0242672
  22.7912254  24.8204479  25.4677410  23.4679775  25.3908463  26.2990227
  22.8898544  23.5411472  25.0866070  22.3542709  23.1664295  24.3166485
  23.7808418  22.4794807  25.6033840  24.3895931  22.9568691  26.3712540
  23.0014515  21.4034977  26.3034000  22.4242249  20.9047108  25.5248623
  23.6615944  20.6954269  26.8043518  21.9953480  21.9936504  27.2603970
  22.3176460  22.6052608  28.4339256  21.2036514  23.0795612  28.9780025
  21.1158485  23.6953926  29.8608665  20.1745300  22.7934189  28.2289238
  19.2640934  23.1213036  28.5182247  20.6423244  22.1242676  27.1010017
  20.0847874  21.6057873  26.3350201  24.6642723  21.9036407  24.4687862
  24.2817383  22.1168537  23.3000393  25.7934456  21.2203255  24.7279720
  25.9765358  20.8483753  25.6489677  26.6892262  20.8042583  23.6280975
  26.3439713  20.9115238  22.5998020  28.0467358  21.5759335  23.8168831
  28.2863941  21.5316143  24.8792896  29.1920662  21.0092487  22.9542999
  29.4768620  20.0904827  23.4670067  28.8985310  21.1401196  21.9127579
  30.0578213  21.6701870  22.9958954  27.8591137  23.0547695  23.5584679
  27.0770016  23.3522072  24.2569809  28.8217335  23.5350208  23.7340374
  27.5138912  23.1961651  22.5342960  26.9210529  19.2923908  23.8352146
  27.1759224  18.7445087  24.9454365  27.0670147  18.6129398  22.7033958
  26.8762817  18.9675865  21.7771416  27.6663380  17.2730370  22.8117714
  28.1822529  17.2084541  23.7697773  26.5261402  16.2535439  22.7456589
  26.0146828  16.1824226  21.7857361  26.9790649  15.2712975  22.8803844
  25.5028381  16.3650169  23.8941345  25.5767174  15.4975815  24.9615612
  26.2396755  14.6450815  24.9501076  24.5590706  15.5140762  25.9373093
  24.5962582  14.8406115  26.7807961  23.6310177  16.5341644  25.9326591
  22.7696743  16.5715313  27.0421848  22.1257706  17.2438965  26.8078442
  23.5497265  17.4468708  24.8668976  22.7945061  18.2186546  24.8470974
  24.4808693  17.3546600  23.7632637  24.3817654  17.9179745  22.8471565
  28.6487389  17.0421295  21.6453476  28.2599640  17.1289215  20.5008202
  29.8609428  16.6885490  21.9609680  30.0692997  16.8020954  22.9426975
  31.0026493  16.4991417  21.1724167  30.5721340  16.6931076  20.1900043
  32.1637802  17.4821491  21.4748268  32.5044441  17.2988663  22.4938755
  32.8845825  17.4071217  20.6606312  31.6682243  18.9407806  21.4880905
  30.9809837  19.0576038  22.3260384  32.7488365  19.9200649  21.7299194
  33.2294693  19.6561642  22.6719627  33.5511932  19.8108940  21.0002575
  32.2676315  20.8980942  21.7287598  30.9642715  19.3837872  20.1641541
  31.6553917  19.5406189  19.3359871  30.1941319  18.6566639  19.9067211
  30.4232979  20.3117332  20.3495159  31.5694771  15.0981112  21.1308308
  31.1595058  14.1798296  21.9252014  32.4230614  14.8476315  20.1139145
  32.5628700  15.5694504  19.4214287  33.2145996  13.6436996  19.9926758
  33.7996979  13.7956762  19.0856667  34.1790657  13.4951754  21.1470528
  33.5571709  13.4764032  22.0420361  34.7793007  12.6059046  20.9546585
  35.1576004  14.7138529  21.2567062  34.6365318  15.6381016  21.5064087
  35.8782578  14.5649214  22.0608025  35.9304047  14.9056015  19.9471340
  36.2689896  13.8656311  19.3178501  36.3750420  16.0473270  19.6883640
  32.3003616  12.4414902  19.5603390  31.5069523  12.5091667  18.6589813
  32.2898178  11.4200974  20.4197578  32.9064903  11.4217978  21.2196445
  31.3892803  10.2902956  20.2700481  30.9201393  10.3060741  19.2863026
  32.0480270   8.9526033  20.4687672  32.8090820   8.9594688  21.2490559
  31.2495327   8.2120047  20.5137215  32.8443565   8.6644688  19.1887817
  32.1874199   8.4685373  18.3413467  33.3626633   9.5474138  18.8147888
  33.7293243   7.3992085  19.2964687  34.4148598   7.2750721  18.4581757
  34.3436394   7.4868183  20.1925983  32.9114113   6.1848865  19.5005455
  33.6257706   5.4202275  19.8056507  32.2550087   6.2172298  20.3701363
  32.3735199   5.7052331  18.2486496  31.6357994   6.3191576  17.9340611
  33.0963478   5.6296144  17.5472927  32.0827141   4.7442441  18.3583508
  30.1652565  10.4633894  21.2586250  29.1152306   9.8278999  21.0208073
  30.2505150  11.3731565  22.2529163  30.9868202  12.0632467  22.2113514
  29.1209431  11.7798758  23.0949516  28.5625286  10.8776569  23.3445091
  29.5840683  12.4463587  24.4309025  30.6347580  12.7290344  24.3657341
  28.8878307  13.2316027  24.7254257  29.4383888  11.7372217  25.2457676
  28.0186176  12.5340929  22.4605789  26.9728241  12.7141151  23.0305443
  28.2597084  12.9059610  21.1667976  29.1526184  12.7183228  20.7336655
  27.2379265  13.6329412  20.3538742  27.0595570  14.5899267  20.8442535
  27.8622150  14.1812325  19.0665646  28.7306938  14.7843723  19.3312664
  28.2924442  13.0023108  18.2205448  28.6030617  13.3626680  17.2398491
  29.1337719  12.5034304  18.7015705  27.5215225  12.2449732  18.0783329
  26.8118153  14.9649944  18.2737484  26.5092545  15.7446003  18.9728737
  27.3860989  15.5279036  17.5379276  25.9860363  14.3544855  17.9084015
  25.8825283  12.8592224  20.2139645  24.8410816  13.5161057  20.0405827
  25.8154087  11.5528450  20.4269867  26.6685314  11.0200548  20.5187302
  24.5748672  10.7508688  20.3877029  23.9510365  10.9940996  19.5276012
  24.9552727   9.2833385  20.4203796  24.0275726   8.7180281  20.5092983
  25.6255512   8.8036556  19.1762886  25.8347626   7.7339864  19.1650124
  25.0923138   9.1379881  18.2863560  26.5951614   9.3011131  19.1984940
  25.8587513   8.7476263  21.5405865  25.7625904   7.6631727  21.4875851
  26.8644371   9.1115751  21.3302593  25.5121384   9.0681458  22.5230465
  23.7863503  11.0444498  21.6354389  22.5441151  10.9682522  21.5444756
  24.3859692  11.4071302  22.7853794  25.3919601  11.4216022  22.8741112
  23.6181068  11.8426094  23.9888439  22.9140968  11.0507164  24.2445545
  24.6440430  11.9896345  25.1620102  25.2773361  12.8355494  24.8946686
  24.1589279  12.4174128  26.0393734  25.5971184  10.8333101  25.4041920
  26.1440411  10.6570139  24.4779663  26.5725689  11.1948099  26.5098953
  27.4026432  10.4897633  26.5543766  26.9147129  12.2020903  26.2723560
  26.0867710  11.2693796  27.4828033  24.8885212   9.5873947  25.7697430
  24.1973228   9.7495184  26.5968285  24.2040787   9.2856989  24.9768867
  25.6064358   8.8075848  26.0238972  22.5847797  13.0200615  23.8559837
  21.6962929  13.2494202  24.7030582  22.7499352  13.7870989  22.7268448
  23.5614605  13.5548573  22.1722374  21.9812965  15.0081263  22.5649414
  22.0822544  15.6369371  23.4495335  22.3449097  15.7233686  21.2740746
  23.4192123  15.6714916  21.0972023  21.9578533  15.2240324  20.3858433
  22.0568218  17.2065926  21.1927280  20.9880581  17.4161148  21.2368298
  22.6108875  17.8022327  21.9182091  22.5152950  17.8818054  19.9383030
  22.3876076  18.9568443  20.0651321  23.5770340  17.6407719  19.8861847
  21.9199123  17.3974247  18.6770039  20.9356422  17.5961990  18.5683746
  22.3409405  16.4031677  17.9836235  23.5684204  16.0045891  17.9817715
  24.3030033  16.6915340  18.0744972  23.7829571  15.1889610  17.4260521
  21.5169773  15.6473465  17.2968349  20.5589600  15.6738415  17.6155910
  21.7951603  14.7814417  16.8576069  20.4195709  14.8247843  22.4929619
  19.9533939  13.9815407  21.7031384  19.5885963  15.4050713  23.3116131
  19.9963760  16.3572273  24.3526974  20.3775101  17.2514496  23.8595371
  20.7215176  15.9981604  25.0829983  18.6667461  16.7020550  25.1311970
  18.1639042  17.5818024  24.7295818  18.8525906  16.8917427  26.1883545
  17.7569237  15.4859114  24.9101143  16.6950798  15.6292439  25.1102295
  18.0476456  14.6639414  25.5642891  18.1525173  15.0465431  23.5255947
  18.1137733  13.9572639  23.5173340  17.1709251  15.5703716  22.3914909
  16.0755520  15.0216112  22.2451038  17.4591980  16.6422558  21.7352219
  18.2336559  17.1477089  22.1412220  16.6718674  17.1654739  20.5740356
  17.0273647  18.1551476  20.2872066  16.8827133  16.1929874  19.4373837
  16.8363438  15.1789560  19.8344860  16.0560627  16.2452049  18.7288475
  18.2417011  16.2311153  18.7041054  18.9196968  17.3079662  18.7053223
  18.6691437  15.2489004  18.0842667  15.2356243  17.3464279  20.9471760
  14.3028708  16.7283707  20.3573036  14.9787760  18.1674843  21.9265194
  15.7555561  18.6417885  22.3644085  13.7231951  18.3393440  22.5845261
  13.2389908  17.3629684  22.6028748  13.9150314  18.8999062  24.0034237
  14.4827471  19.8155823  23.8380756  12.9269705  19.1848240  24.3648872
  14.6725903  17.9927387  24.9516315  15.5940952  17.6797085  24.4607620
  15.0297852  18.8135128  26.1358376  14.2963047  19.5478077  26.4688721
  15.3362799  18.2496014  27.0168400  15.9158535  19.3701668  25.8306694
  13.7939415  16.8807945  25.4383125  12.8770266  17.2667408  25.8837452
  14.3781281  16.1880798  26.0440960  13.5456848  16.2352581  24.5958462
  12.7347651  19.1656094  21.7320595  13.0011215  20.1453075  21.0355511
  11.5362844  18.8317795  21.9643517  11.3503532  18.0823250  22.6153870
  10.3207970  19.3856564  21.2916241  10.4606581  20.4658928  21.2512684
  10.0862331  18.6723270  19.9361076   9.2892399  19.1583519  19.3733616
  10.9728622  18.7234879  19.3041496   9.6587648  17.3181286  20.0748768
   9.6540375  16.8520336  19.2356319   9.0994053  19.1109505  22.1758423
   9.0962658  18.2221031  23.0156078   7.9327850  19.7469196  21.8558426
   7.9348083  20.5590839  21.2554398   6.6844435  19.4156380  22.4553413
   6.7658701  19.1999474  23.5206814   5.8186550  20.6522064  22.3286438
   5.5713544  20.8344154  21.2828217   4.8237224  20.5840244  22.7685986
   6.4896269  21.9662266  22.8768597   7.4824004  22.0997906  22.4471378
   5.6756649  23.1249809  22.4908619   5.6034775  23.0446510  21.4062271
   6.1859431  24.0604172  22.7203712   4.7337551  23.1002502  23.0388508
   6.4660392  21.8993244  24.4190025   6.9938927  21.0048656  24.7497826
   6.9020371  22.7789688  24.8925438   5.4584923  21.9308891  24.8336868
   6.0219707  18.1514721  21.8989201   5.1747351  17.6557693  22.6551743
   6.4040351  17.6581287  20.7354813   7.1191325  18.2000561  20.2717438
   6.0790396  16.3245831  20.3024006   4.9985561  16.1913757  20.3564453
   6.3190546  16.1886196  18.8232880   7.3821087  16.2336025  18.5866566
   5.8971581  14.7790232  18.3216972   6.4539776  14.0328989  18.8885708
   4.8563447  14.5406113  18.5407104   6.1140180  14.6349087  17.2632542
   5.5260992  17.1945419  18.1823139   5.9076567  18.0420799  18.4225063
   6.6752534  15.1505013  21.1936245   6.0081320  14.1531296  21.4250603
   7.8124628  15.4204283  21.9126587   8.2956123  16.2440262  21.5834904
   8.3233509  14.5696917  23.0184860   7.9226394  13.5585470  22.9469452
   9.7917700  14.6884356  23.0415630  10.0959044  15.7349491  23.0618572
  10.2301998  14.0732241  23.8273067  10.4220724  14.0452166  21.7871075
   9.9233313  13.0850964  21.6547146  10.3230152  14.6901445  20.9139786
  11.9570522  13.8366747  22.0857410  12.3278456  14.7911844  22.4592705
  12.0372934  13.0967245  22.8820705  12.8232613  13.3126268  20.9976807
  12.3698988  12.3685560  20.6955338  12.7367420  14.1199322  20.2704449
  14.2008705  12.9960060  21.5033970  14.8307934  12.6596184  20.7891560
  14.7040958  13.8357077  21.7519379  14.1822586  12.3518028  22.2810574
   7.7601085  14.9332771  24.4619293   8.0428219  14.1189623  25.3722076
   7.1221194  16.0786171  24.7723083   6.7822757  16.7544746  24.1031132
   6.7602868  16.3991165  26.1847839   7.5790195  16.2867184  26.8955193
   6.2810965  17.8449478  26.3132095   7.0510569  18.4769077  25.8706169
   5.2663455  17.8887768  25.9176598   6.1855726  18.2869778  27.7592030
   6.6075077  17.5707188  28.7112103   5.8330941  19.5367432  28.0791130
   5.2902703  20.0373688  27.3900414   5.8328376  19.8916340  29.0247078
   5.7356992  15.2912273  26.4981403   4.8357081  14.9001331  25.7661552
   5.8956504  14.7113390  27.7338753   6.7032609  14.9669552  28.2839069
   5.0709910  13.6108904  28.1949787   5.2388558  12.7997389  27.4864922
   5.5148554  13.0460424  29.6068649   6.6048136  13.0522709  29.6141262
   5.1285334  13.9623985  30.7789268   5.5860028  13.5102901  31.6589432
   5.6833959  14.8906355  30.6425228   4.0448999  14.0702219  30.8259640
   5.0522227  11.7915888  29.9807587   4.2935452  11.9153662  30.5558128
   3.5696373  13.7645473  28.2470131   2.9979846  14.8723783  28.5335941
   2.8804877  12.5723190  28.0976696   3.4595816  11.7679167  27.9035358
   1.4395927  12.4149351  28.1945763   0.9963799  13.0368023  27.4167957
   0.9601746  10.9826355  27.7879105   1.0229703  10.9501791  26.7002048
   1.6924149  10.2322588  28.0860252  -0.4906836  10.5896034  28.2182178
  -0.5662364   9.5193968  28.0257339  -0.6897259  10.7151289  29.2825146
  -1.5862899  11.2315340  27.5030308  -2.6264961  10.4985409  27.2722321
  -1.5204532  12.3816442  27.1656742   0.9439212  12.8476305  29.6073303
   1.1197820  12.0771294  30.5464363   0.1148614  13.8661604  29.7735386
  -0.2802975  14.3218107  28.9633961  -0.6427613  14.2705755  30.9532566
  -0.4319911  13.6138077  31.7972546  -0.1716007  15.7270069  31.3277111
   0.8628061  15.6661558  31.6659451  -0.1500429  16.4523830  30.5144081
  -0.9044403  16.2743702  32.5990143  -1.9687092  16.1296883  32.4132767
  -0.3961944  15.5762186  33.8593025  -0.7976128  14.5642252  33.9126244
   0.6919965  15.5618076  33.7981949  -0.6796895  16.0879860  34.7789917
  -0.6624312  17.7749996  32.6263542  -1.0184129  18.2463074  31.7102528
  -1.2475548  18.2954159  33.3845787   0.4049818  17.8211422  32.8422279
  -2.1900392  14.1662102  30.7866707  -2.7777445  14.9782085  30.0496063
  -2.7478583  13.2628717  31.4191589  19.6710835  40.0937271  42.9289360
  18.8193626  39.6263885  42.6527672  19.3485870  40.9402275  43.3756332
  20.2171192  40.2204742  42.0887680  20.4066620  39.4096107  43.9585266
  21.2346516  40.0925598  44.1485596  19.6419621  39.3191185  45.2673378
  19.2814655  40.2944031  45.5943794  18.7922077  38.6863861  45.0110779
  20.3550472  38.5953293  46.3787575  19.7467728  38.5883293  47.2832184
  20.3853531  37.5641212  46.0269012  21.9426613  39.1294746  46.7750473
  21.6182365  40.6247101  47.6944733  20.5878563  40.7219467  48.0364532
  22.2452850  40.5896835  48.5853615  21.7954636  41.5169792  47.0940208
  21.0974026  38.1354370  43.4429321  20.3125534  37.2046852  43.1019173
  22.4297543  37.9990044  43.2525215  22.9240341  38.8624039  43.4266777
  23.1603336  36.8033943  42.9297142  22.5733871  36.4075508  42.1009178
  24.5788345  37.2965317  42.5069885  24.5584545  38.2143211  41.9193268
  25.0136566  37.5646133  43.4698868  25.3645134  36.1953468  41.8336487
  26.3313141  36.5735893  41.5014877  25.5360603  35.3385582  42.4852524
  24.4692001  35.5018120  40.3314819  25.9854298  34.5934448  39.9226875
  26.1578922  33.8540993  40.7048225  25.7725258  34.0470276  39.0038834
  26.8022766  35.2937050  39.7480583  23.2056046  35.7713509  44.0653572
  23.0748329  36.0236320  45.2866287  23.5426636  34.5538025  43.7456703
  23.7069302  34.3901978  42.7626419  23.8605480  33.5105934  44.7246361
  24.0615635  33.9038849  45.7211380  22.6811485  32.4509277  44.8334465
  22.8026142  31.7838039  45.6868477  21.3101311  33.1527443  45.1311302
  20.8542328  33.6149635  44.2555695  20.5711517  32.4464531  45.5095024
  21.5012188  33.9300804  45.8709564  22.6090317  31.7078838  43.5052414
  22.3632832  32.4395561  42.7355919  23.5397835  31.1687489  43.3287849
  21.4154415  30.7483139  43.4351273  21.5633717  30.1944466  42.5080681
  21.4558277  30.0487785  44.2700653  20.4747162  31.2941780  43.3631821
  25.2078419  32.9153976  44.2522507  25.4207726  32.7959061  43.0285072
  26.0989780  32.6565857  45.2124062  25.8692818  32.7332954  46.1929436
  27.4519386  32.1789932  44.8740273  27.5517597  32.0087166  43.8020477
  28.5234451  33.3230896  45.0145226  28.6208096  33.7176666  46.0259209
  29.4791279  32.9061050  44.6968727  28.2236137  34.4787369  44.0348549
  27.8894196  34.1037369  43.0674896  27.4103889  35.0928841  44.4216232
  29.5027924  35.3723831  43.7844963  29.8274498  36.0069084  44.6091652
  30.3288059  34.6832314  43.6087608  29.2882786  36.2682381  42.7233543
  29.2933769  37.2532005  42.9467964  29.2719193  36.0266151  41.4023132
  29.3968925  34.8842888  40.7954216  29.4192295  34.0610161  41.3800812
  29.3852272  34.8780403  39.7855072  29.1639938  37.0652542  40.6146851
  28.8744488  36.9884148  39.6501350  29.0934296  37.9374046  41.1191368
  27.7461987  30.9332886  45.6659508  27.1728230  30.7589855  46.7528381
  28.6436214  30.0327492  45.1732788  29.0353069  30.1657944  44.2518768
  29.2386227  28.9602356  45.9605026  28.5001621  28.4616108  46.5883102
  29.5119553  28.1817875  45.2481804  30.4281788  29.4000378  46.8624649
  31.0190735  30.3749275  46.4318352  30.6573277  28.8516102  48.0304070
  29.9974937  28.2021027  48.4339638  31.8410873  28.9073563  48.8943520
  32.5868835  29.5610390  48.4420319  31.3497047  29.4806843  50.3258591
  30.6771774  28.7788429  50.8190384  32.6543083  29.5264149  51.2171097
  33.4807701  30.1848984  50.9497910  32.3550262  29.8007412  52.2286797
  32.9463234  28.4799690  51.3053131  30.5838985  30.7964764  50.2740173
  31.1898708  31.4771900  49.6760826  29.6206703  30.6468983  49.7862473
  30.1134682  31.3992634  51.6611977  29.8078136  30.6140213  52.3526268
  30.8757191  31.9077187  52.2515755  29.3078785  32.0993080  51.4396896
  32.3943443  27.4781284  48.9331894  31.7084980  26.6535606  49.4576836
  33.6904640  27.1915760  48.5446167  34.3029556  27.9747009  48.3666458
  34.3272629  25.8951626  48.7527885  33.6685753  25.0266953  48.7526436
  35.4680634  25.7451019  47.7200775  36.0662079  26.6527100  47.6390076
  36.2344856  25.0354958  48.0317764  34.9599533  25.3466206  46.3266602
  34.3357277  26.1092415  45.8609810  35.8556976  25.3412876  45.7055931
  34.0981903  24.0804348  46.2405510  33.0588646  24.2724171  46.5070915
  34.0029449  23.6546478  45.2416840  34.5743599  23.0153809  47.0584183
  34.1889648  22.8739662  47.9812279  35.4870644  22.1221600  46.7492294
  36.0371704  21.9220581  45.6077957  36.7389107  21.1994667  45.5335121
  35.7852898  22.3568916  44.7316780  35.8890762  21.2444439  47.6217880
  36.6893349  20.7131786  47.3096199  35.8142204  21.4124146  48.6149063
  34.9749374  25.7428951  50.1368828  35.4921761  26.6868401  50.7405510
  35.0935402  24.5082150  50.5844536  34.4959221  23.8512192  50.1035042
  36.2183266  23.9675255  51.4240036  37.0470352  24.6445656  51.2167358
  35.9484062  24.1065388  52.4708710  36.6633377  22.5252781  51.1357498
  36.0181503  21.8452549  50.3247795  37.6534653  21.9744244  51.8357544
  38.3052711  22.5402641  52.3602295  37.9119644  20.5868053  51.9949837
  36.9691315  20.0928097  52.2297859  38.7317390  20.1289291  50.7969780
  39.6586761  20.6857967  50.6599236  39.0368004  19.0899982  50.9221191
  38.2315140  20.2430878  49.8352890  38.8018494  20.3571701  53.2393608
  39.3693542  21.2635384  53.7696381  38.7945557  19.1731358  53.8142052
  38.0110855  18.5930500  53.5500565  39.5050888  18.7169380  55.0159912
  40.4075699  19.3281517  55.0227699  38.6874580  19.0168743  56.3084145
  38.5445747  20.0974426  56.3162193  37.5022049  18.0359802  56.3503571
  37.0393372  18.0041866  55.3640327  37.8282433  17.0773582  56.7538948
  36.7843285  18.3748608  57.0972939  39.5184937  18.7408447  57.3933372
  39.2413101  19.3208961  58.1062965  39.9657707  17.2120781  54.9326134
  39.5027351  16.5377693  54.0391502  40.8487244  16.7908306  55.8473091
  41.0189438  17.2912693  56.7079391  41.3455276  15.4111547  55.9328194
  40.8037720  14.7329826  55.2735138  42.7819138  15.3594446  55.3151932
  43.1643906  14.3496466  55.4639244  42.8127899  15.7224932  53.8206902
  42.3989792  14.8371897  53.3378792  42.4469719  16.7210674  53.5816765
  43.8350677  15.6901436  53.4438667  43.7466278  16.1867065  55.9657936
  44.1996651  15.5691462  56.5445633  41.3443069  14.7281265  57.3530960
  41.4121056  15.3996687  58.3366394  41.3508987  13.3773975  57.4129982
  41.3849564  12.8552876  56.5490913  41.2503929  12.6569338  58.7107658
  41.5449600  13.2275972  59.5914879  39.7736931  12.0202894  58.9617386
  39.8026657  11.2100515  59.6902809  38.6990623  12.9569521  59.3604698
  38.8552704  13.1714602  60.4176788  38.6736145  13.8502302  58.7363625
  37.7094574  12.5163612  59.2393875  39.1571350  11.3675032  57.6743507
  39.1310349  11.9970598  56.7849274  39.6869774  10.4646235  57.3707466
  38.1097450  11.1294470  57.8598366  42.1808929  11.4788074  58.6065407
  42.4990807  10.9859266  57.5064507  42.6958656  10.9795227  59.7242889
  42.3282585  11.3555479  60.5865936  43.5709534   9.7890654  59.8110275
  44.0953789   9.6448364  58.8664246  44.6216660   9.9517317  60.9338913
  44.0611267   9.8777809  61.8657875  45.2620926   9.0697966  60.9218826
  45.4785156  11.2251558  60.7146759  44.7818985  12.0589371  60.6273079
  46.1416588  11.4246616  61.5564232  46.1990242  11.0837021  59.3782578
  46.2112694  12.0364685  58.5197105  46.7892494  10.0080013  59.1762962
  42.8098602   8.5008745  60.0182724  43.3316383   7.4073949  59.7337227
  41.5700951   8.5105972  60.4741898  41.1556473   9.3463793  60.8612366
  40.8108215   7.3029552  60.7901344  41.2747688   6.4841018  60.2402840
  40.7343140   7.0339270  62.3226738  40.3640633   7.9101591  62.8548698
  40.1901588   6.1040006  62.4876862  42.1223259   6.7269907  62.8248100
  42.4459648   5.7881775  62.3753738  42.7255325   7.6258507  62.6971588
  42.1212769   6.4773626  64.3403168  41.3406944   5.7231770  64.4402695
  43.0510368   6.0354929  64.6986465  41.7865791   7.6991420  65.0619888
  42.5161552   8.3966770  65.0264664  40.7991982   7.8233266  65.9632645
  39.8814507   6.9563122  66.2505569  39.8962746   6.0700932  65.7663040
  39.2316399   7.1839147  66.9895020  40.6491737   8.9728155  66.4532013
  41.2058029   9.7580242  66.1470718  40.0474396   9.1388388  67.2472076
  39.3940239   7.4066920  60.2208290  38.7375298   8.4040108  60.4700851
  38.9180412   6.2807984  59.6880722  39.6406937   5.5780649  59.6245155
  37.5547562   5.9833121  59.2754745  37.1285210   6.8837051  58.8330765
  37.6236420   4.8251090  58.2756691  38.2094650   5.0141621  57.3761215
  38.0806847   4.0282764  58.8624153  36.2343674   4.4666495  57.8242607
  35.4468536   5.4313478  57.6865845  35.9589729   3.3594422  57.3536415
  36.5914001   5.6517725  60.4752312  36.3982277   4.5464973  60.9810448
  36.0833549   6.6970510  61.1304588  36.2221832   7.6542063  60.8394585
  35.1780357   6.5200353  62.2684593  34.5127525   5.6844654  62.0509300
  35.9832115   6.2934408  63.5350227  36.5275993   5.3829322  63.2845917
  36.9192505   7.4024825  64.0599289  36.3606071   8.2991819  64.3281555
  37.4786301   6.9913344  64.9002609  37.5819244   7.6118565  63.2202072
  35.1847000   6.1172934  64.7028122  34.6628723   5.3185668  64.5963516
  34.1645470   7.7496495  62.3558922  34.5783043   8.8493071  61.9518700
  32.9644127   7.5500603  62.9466019  32.8249588   6.6136322  63.2983932
  31.9867668   8.5749683  63.0704613  31.5530338   8.7960835  62.0952263
  30.7383327   8.0080318  63.7836037  30.3074017   7.3496709  63.0293083
  31.0846138   7.4420605  64.6483994  29.6823597   9.0132103  64.0710526
  29.9060783   9.6125984  64.9535446  29.7028866   9.6871271  63.2145996
  28.2597618   8.5275555  64.1429596  27.9180317   7.4447103  63.5988235
  27.3075409   9.2214785  64.6957092  32.4486732   9.9139385  63.6379509
  32.1650658  10.9190369  62.9726372  33.0601463   9.9190702  64.8280869
  33.2226639   9.1153469  65.4177551  33.4585228  11.2245092  65.3736725
  32.6263466  11.9278450  65.3436203  33.7788544  10.8380213  66.8270264
  33.8010750  11.7150669  67.4738617  32.9464035  10.3004398  67.2810516
  35.0634308  10.1048498  67.0198517  35.0584488   9.3117771  66.2721100
  35.8384361  10.7852564  66.6669846  35.2789192   9.5855446  68.3700790
  34.4917336   9.8846846  69.2837524  36.2473869   8.7758760  68.5859909
  34.6172523  11.9507513  64.7795715  34.5905762  13.1936646  64.7603836
  35.6523056  11.2942381  64.2063370  35.5809021  10.2883120  64.1505356
  36.6907883  12.0506582  63.4458542  36.9925079  12.8976440  64.0620422
  37.9165077  11.2135735  63.0408821  37.6304092  10.3888483  62.3881340
  38.4403343  11.9728794  62.4602280  38.8142853  10.6281872  64.0698242
  38.2293587  10.0718222  64.8022232  39.4349136   9.8488750  63.6275597
  39.8436661  11.5475321  64.8811417  39.7989960  11.6619301  66.1204224
  40.7582970  12.1606607  64.2110062  36.1200905  12.6744976  62.1711731
  36.2980003  13.9044237  62.0251122  35.2956123  11.8992233  61.3811378
  35.3439026  10.8959646  61.4871559  34.5354118  12.3991194  60.2053070
  35.1893387  12.9146299  59.5019379  33.8990402  11.2752542  59.3636513
  33.2573738  10.6948643  60.0266113  33.0927773  11.7843876  58.1885757
  32.3482399  12.4258509  58.6600494  33.7893753  12.4110079  57.6316185
  32.4717865  11.0788221  57.6366272  34.9754829  10.3249636  58.9086075
  35.7030640  10.7339172  58.2075462  35.5332947   9.9807081  59.7794876
  34.4002876   9.0932617  58.2180595  34.1003723   9.2882290  57.1884346
  35.1548462   8.3092451  58.2817726  33.4646492   8.8350668  58.7140617
  33.5281792  13.5006762  60.6309242  33.5086670  14.5941963  60.1453476
  32.7165947  13.3227482  61.7029533  32.8425560  12.4081545  62.1125298
  31.7333755  14.3482523  62.1614761  30.9786644  14.4698877  61.3844795
  30.9383926  13.7571831  63.3831978  30.5129108  12.7695322  63.2054100
  31.5907707  13.5810652  64.2384720  29.7487354  14.6817579  63.6896362
  29.9910641  15.7406254  63.5992126  28.6153812  14.2190952  62.7331810
  28.3457890  13.1637459  62.7738419  27.6845455  14.7522573  62.9265327
  28.9680500  14.5129948  61.7445717  29.2721901  14.5786781  65.1529694
  28.6104469  15.4042845  65.4148331  28.7164268  13.6411848  65.1712646
  30.0369377  14.4445896  65.9180069  32.4509048  15.6737232  62.5062141
  32.0658875  16.7391148  61.9639053  33.5429878  15.5423412  63.3143120
  33.8053474  14.6077890  63.5933800  34.1086235  16.6898289  64.0013123
  33.2541313  17.3432388  64.1773911  34.6904602  16.1850967  65.3704376
  33.8094215  15.8358793  65.9088821  35.4548721  15.4710913  65.0639038
  35.5254059  17.2917786  66.1004257  35.9819717  16.8141708  66.9673386
  36.2838135  17.6495152  65.4040451  34.7493439  18.5442772  66.7185059
  33.6104813  18.2834587  67.1171036  35.2026634  19.7370110  66.7386398
  36.1656952  19.8288040  66.4483871  34.7272148  20.6224327  66.8390198
  35.0673218  17.4218140  63.0947647  34.8483162  18.6608715  63.0654793
  35.9313622  16.8033237  62.2903481  35.8930511  15.7951965  62.3384209
  36.7079887  17.4391518  61.2591743  37.4138641  18.1324406  61.7165489
  37.5566711  16.5077934  60.5047607  37.2008667  15.4848948  60.3815384
  37.5651245  16.8620281  59.4739571  38.9909554  16.3971405  61.0678978
  39.5215530  15.6764278  60.4456940  39.5426979  17.3140125  60.8604698
  39.0852318  15.9470520  62.5355644  39.0092010  16.8112888  63.1954231
  38.2929268  15.2341938  62.7639961  40.4883270  15.4437056  62.8703499
  40.8544807  14.7332659  62.1291962  41.1282883  16.3214016  62.7798042
  40.5869713  14.9043350  64.2462158  39.9388962  15.3460617  64.8825912
  40.2294617  13.9597998  64.2582703  41.5090828  14.8476238  64.6543732
  35.7080727  18.2366867  60.3968391  35.9939728  19.3825893  59.9887772
  34.5454903  17.6393013  60.0368919  34.3215256  16.7106743  60.3648987
  33.5737991  18.2506771  59.1567345  34.1029472  18.6721745  58.3020744
  32.6457443  17.1772404  58.6052094  32.0368462  16.7183132  59.3841400
  31.7654743  17.6708851  57.4630890  32.3405342  17.7670708  56.5421371
  31.0113144  16.9183064  57.2329407  31.2013454  18.5825958  57.6596642
  33.4907875  16.1662769  58.0068016  33.6842079  15.5572615  58.7232437
  32.8368416  19.4042721  59.8179474  32.5217743  20.4137135  59.1793442
  32.7114067  19.3848305  61.1378479  32.9944305  18.5910339  61.6945229
  32.1285629  20.4744911  61.9678764  31.1869316  20.8010979  61.5265617
  31.8528786  19.8679295  63.2818069  31.5066071  18.8445110  63.1375542
  32.7635307  19.8083801  63.8778496  30.7178612  20.5064144  64.1876678
  30.8403835  21.5878563  64.1278763  29.7647762  20.1691017  63.7802925
  30.8279781  20.1176434  65.7013321  30.8658257  19.0413799  65.8696442
  31.7859535  20.4856873  66.0686646  29.7883835  20.7486210  66.4820251
  29.5732803  21.7427025  66.0900650  28.8271122  20.2581196  66.3288269
  30.1082458  20.8559456  67.9715118  30.6958065  20.1472721  68.3870316
  30.6465473  21.7104187  67.9570084  29.2762489  20.9994926  68.5258408
  33.0308495  21.6650085  62.0592804  32.5994377  22.7439823  61.8158150
  34.3236504  21.4162350  62.2549896  34.6130524  20.4875374  62.5267715
  35.3888550  22.4235611  62.2617760  35.0255623  23.1649628  62.9734230
  36.6779633  21.8148155  62.8193932  36.4421883  21.2796803  63.7392540
  37.0066872  20.9723091  62.2109299  37.8945656  22.7544804  62.9133987
  38.7557068  22.1530571  63.2046432  38.1132507  23.2627354  61.9742737
  37.6201210  23.8200665  63.9270439  37.6455688  23.7040939  65.1564178
  37.1596146  24.9489365  63.4341927  36.9022369  25.6579437  64.1058807
  36.8979149  24.9088898  62.4595108  35.4990196  23.1061363  60.9011002
  35.8489723  24.2665367  60.8510132  35.2336159  22.4353085  59.7381363
  35.0598869  21.4427090  59.8064575  35.3471565  22.9233227  58.3995132
  36.3468361  23.3401585  58.2770882  35.1985931  21.6953506  57.5101776
  35.9357300  20.9762211  57.8673706  34.2732468  21.1394825  57.6613045
  35.3112068  21.9958954  55.9940872  34.6153069  22.7521000  55.6307907
  36.6595955  22.5193787  55.5756531  36.6529961  22.7284813  54.5059204
  36.9623337  23.4275131  56.0969429  37.4715462  21.8599453  55.8822098
  35.0491257  20.6894779  55.2311249  35.4586029  20.7822819  54.2252312
  35.5809746  19.9054070  55.7700768  34.0021973  20.3940945  55.1618958
  34.2967911  23.9805031  58.2148819  34.6058807  25.1193066  57.8962212
  33.0690651  23.5477905  58.4622536  33.0222740  22.5790157  58.7440033
  31.8691444  24.4195156  58.4023018  31.5750484  24.8074989  57.4270706
  30.6550179  23.5531788  58.8130684  30.8923340  23.0925388  59.7720222
  29.7382450  24.1373386  58.8929672  30.3119793  22.4188194  57.7644653
  31.2882481  22.0782375  57.4194946  29.4442482  21.3245735  58.4548759
  29.9107056  20.8944511  59.3411674  28.5874157  21.8991241  58.8067703
  29.1179314  20.6083984  57.7007446  29.4208641  22.9378357  56.5939674
  28.4192200  23.1765537  56.9514885  29.9748745  23.8197365  56.2723694
  29.3315697  22.2050495  55.7919922  31.7944126  25.6594448  59.3588867
  31.5583591  26.7482929  58.9560852  32.1858673  25.4463005  60.5982018
  32.5133705  24.5360279  60.8884506  32.2696495  26.5055561  61.7007408
  31.3638554  27.1110668  61.6692963  32.4124832  25.9642677  63.0408554
  33.3348999  25.3835583  63.0460167  32.6045799  26.7983513  63.7157669
  31.1493130  25.2922535  63.6028519  30.6143703  24.9194164  62.7293930
  31.3820629  24.4311237  64.2292633  30.1878319  26.1740665  64.4037247
  29.5289745  25.7061348  65.3904419  30.0952778  27.3930149  64.0890121
  33.4458580  27.3531532  61.4260139  33.2578850  28.5534039  61.6974525
  34.5459175  26.9596767  60.7269096  34.7227974  25.9912186  60.5013008
  35.4956284  27.9777412  60.2166061  35.6855698  28.6804485  61.0279236
  36.9556847  27.4083614  60.0004349  37.2965698  26.9100857  60.9079704
  36.8023605  26.5615139  59.3315201  37.9773636  28.4366322  59.5291595
  38.7644958  27.8597794  59.0436020  37.4915771  28.9864101  58.7230225
  38.4316101  29.3718834  60.6506042  37.5904961  29.9600163  61.0176544
  38.7331924  28.7310925  61.4791794  39.5485802  30.3564739  60.3351860
  39.0849571  31.0714607  59.6555214  39.8107147  30.8148460  61.2887459
  40.6688766  29.5880260  59.7456551  40.2085953  28.9891872  59.0751114
  41.3473129  30.0918293  59.1924706  41.0770340  29.0621586  60.5052452
  34.8900681  28.6796932  59.0693741  35.0122452  29.9326820  59.0584068
  34.2796402  28.0235901  58.0736885  34.4918861  27.0368690  58.1115913
  33.7116508  28.6926003  56.9051514  34.5314407  29.2057343  56.4024162
  33.0968132  27.6250210  55.9367180  32.6518326  26.8188782  56.5200081
  31.9908867  28.1784153  55.0324974  31.1925392  28.7974491  55.4418106
  32.5796623  28.7386093  54.3061256  31.5535526  27.3665218  54.4514084
  34.1592140  26.9197712  55.1022148  34.4990845  27.5032692  54.2465744
  35.0348396  26.7028446  55.7140350  33.7121468  25.5185204  54.6591415
  32.9650497  25.5721550  53.8672638  34.4874191  24.8232269  54.3372498
  33.3124084  24.9939613  55.5269814  32.7247581  29.7723598  57.3126488
  32.7960930  30.9812775  56.9268379  31.7900009  29.4771442  58.2441406
  31.7207489  28.4789066  58.3813438  30.6821213  30.2538662  58.8002510
  30.0988216  30.7657909  58.0348816  29.6246929  29.3922558  59.5929642
  30.1522064  28.7629051  60.3097229  28.5512466  30.2053413  60.3440857
  28.0061646  30.8253288  59.6323280  27.7444859  29.6284389  60.7962151
  28.9472218  30.8228264  61.1503258  28.8322678  28.4986057  58.6168861
  27.9547482  29.0344772  58.2550774  29.4591293  28.1173820  57.8107758
  28.2679634  27.2357864  59.3405190  27.4146194  27.5380096  59.9476128
  27.9299736  26.4190598  58.7026978  28.9949265  26.8138924  60.0345154
  31.2495346  31.3618355  59.6752052  30.8921680  32.5969925  59.5120392
  32.2824211  31.1661663  60.4859848  32.7887955  30.2923050  60.4936447
  32.9345818  32.3251266  61.2097664  32.1865082  32.8772697  61.7786522
  33.9707642  31.8580322  62.2798767  33.4468384  31.1402340  62.9110413
  34.7150459  31.2642555  61.7492409  34.6367378  32.8762131  63.1876221
  35.4295082  32.4025230  63.7666168  35.0343895  33.7035446  62.5998306
  33.7524986  33.5881042  64.1355286  34.2320442  34.6948471  64.5342941
  32.6571083  33.0678139  64.5273438  33.6241188  33.2355042  60.2254868
  33.6817436  34.4634171  60.4281693  34.1811829  32.7900467  59.0617561
  34.1924858  31.7890453  58.9277077  34.8679008  33.7248268  58.1034775
  35.5354729  34.4744072  58.5284195  35.8419342  32.8004303  57.2574730
  35.3035355  31.9064999  56.9426460  36.2166786  33.2395821  56.3329086
  37.0401955  32.2861366  58.0951157  36.7251472  32.1303215  59.1268959
  37.2731209  31.3216648  57.6438522  38.2771301  33.2762260  58.1199989
  38.1524849  34.4031830  57.5937233  39.3638649  32.7779655  58.4772949
  33.9066734  34.4263725  57.1598129  34.1148338  35.5994301  56.8956718
  32.7730675  33.7761459  56.8168068  32.5519676  32.8703423  57.2050552
  31.7434635  34.3170586  55.8911057  32.2996216  35.0601730  55.3196449
  31.3933220  33.2491989  54.8637810  31.1062164  32.3856239  55.4637032
  30.4908314  33.5715561  54.3444557  32.5173492  32.8645287  53.9141922
  32.6692619  33.4967690  52.8483696  33.3829384  31.8349495  54.2472687
  33.9884605  31.5348816  53.4966660  33.2749519  31.3332882  55.1171951
  30.5193043  34.9666824  56.6004105  29.5792542  35.4152412  55.9516983
  30.5291462  34.9997482  57.9177437  31.3351784  34.5738792  58.3525429
  29.4725819  35.5301323  58.8047295  29.6180000  34.8992424  59.6816177
  29.6889000  37.0400200  59.1147995  29.4554996  37.6141930  58.2181664
  28.9523640  37.2614365  59.8871880  31.1506729  37.4150772  59.4280052
  31.8732033  36.9170876  60.4728355  31.5977573  36.2396965  61.1695213
  33.1114349  37.4073563  60.3779755  33.9625473  36.9990387  60.9026489
  33.1350555  38.2801399  59.3455429  33.9833412  38.5484276  58.8674965
  31.9787807  38.2150612  58.6764679  31.6361141  38.6968613  57.7726707
  28.1142578  35.0103951  58.4129906  27.1667995  35.8819847  58.3276100
  27.9716549  33.7537994  58.0311699  28.7905998  33.1628418  58.0170441
  26.7398529  33.2246437  57.3954773  26.3827934  34.0395622  56.7657814
  27.1046028  31.9421444  56.5736771  27.4182644  31.1995411  57.3073349
  25.9533768  31.4041290  55.7293663  26.0751133  30.3744659  55.3930931
  25.0080109  31.3923264  56.2718086  25.8160667  32.1052551  54.9061584
  28.2409325  32.2036743  55.6470757  28.0426350  32.8010330  54.9222031
  25.6478634  32.9644356  58.4399414  25.9460545  32.2172279  59.3959503
  24.3883514  33.2991142  58.1356850  24.3059082  33.9590034  57.3755226
  23.1993103  33.0315590  58.8864708  23.4399471  32.7675858  59.9162827
  22.4729652  34.3410301  59.1476440  23.1500473  35.1069260  59.5258827
  22.2094460  34.7369499  58.1668701  21.1169338  34.3142548  59.9106827
  20.6564522  33.3351288  59.7788887  21.4443798  34.4181747  60.9451256
  20.0961323  35.4482231  59.5396347  19.8171234  35.3943062  58.4873276
  19.1560726  35.2112770  60.0378761  20.7276344  36.7983971  59.9799271
  20.8416195  36.9208565  61.0570107  21.7504768  36.8640213  59.6089935
  19.9626961  37.9524574  59.4059906  18.9695873  37.7726135  59.4445839
  20.1477299  38.7918396  59.9363747  19.9824142  38.0401344  58.3999939
  22.4445095  31.9828930  58.0314102  22.3427982  32.1833572  56.8393402
  21.8045769  30.9774837  58.6139526  21.8228226  30.6211166  60.0652428
  21.4863262  31.4803963  60.6453438  22.7484169  30.1938763  60.4510422
  20.5918465  29.6886768  60.1555786  19.7165241  30.3019257  60.3696785
  20.7948990  29.0259762  60.9968262  20.5922756  28.8987255  58.8442955
  19.5704212  28.5889454  58.6253242  21.2827568  28.0571213  58.8993912
  21.1843739  29.9344349  57.8411713  21.9461765  29.4637508  57.2197113
  20.0866337  30.4803581  56.9443474  19.9124470  29.8632050  55.9303589
  19.4801388  31.6696892  57.1177521  19.5040169  31.9952793  58.0735359
  18.5386143  32.2374992  56.2023392  17.7128391  31.5436077  56.0451279
  18.0312614  33.5876579  56.8502426  17.6943436  33.4474182  57.8773346
  18.9096012  34.2247391  56.9539223  16.9600887  34.4449501  56.1228638
  16.6837368  35.1467133  56.9097939  17.5267525  34.8878288  55.3038063
  15.7184124  33.7193031  55.6566772  15.2307653  32.8200150  56.3475609
  15.2151232  33.9861832  54.5786438  19.0872688  32.5366707  54.8039932
  18.4060001  32.3675537  53.8205528  20.2867737  32.9969902  54.6825714
  20.8859596  33.0179558  55.4953651  20.8846664  33.3433189  53.3633690
  20.0547924  33.7804794  52.8081207  22.0671616  34.3149147  53.5056915
  22.8276005  33.9024887  54.1688194  22.5225048  34.5069084  52.5341454
  21.6683044  35.7104492  54.1040268  22.6237869  36.3590889  54.6064720
  20.5244446  36.1866455  54.0699692  21.3814964  32.1330872  52.5957832
  21.7908535  32.2298737  51.4129372  21.3659191  30.9174576  53.1715889
  21.0213661  30.8098507  54.1148834  21.7883263  29.7062988  52.4645615
  22.6664333  29.9261017  51.8573380  22.3347893  28.6915970  53.4787750
  21.5731525  28.4083996  54.2052803  22.7851505  27.5158291  52.6767616
  23.3667927  26.7834110  53.2365456  21.8293972  27.0730782  52.3964119
  23.4356365  27.8340054  51.8620644  23.5339680  29.4023323  54.2603035
  24.3836536  29.6509209  53.6244316  23.3593979  30.3693295  54.7320480
  24.0417290  28.6886311  54.9090805  20.7291794  29.1287479  51.4508476
  19.6081753  28.8609371  51.8690948  21.1346741  28.7988262  50.2093964
  22.1144218  29.0013008  50.0708466  20.2589703  28.1729469  49.1979713
  19.3052216  28.7004547  49.1837883  20.7859898  28.4552460  47.8087234
  21.8069973  28.0781250  47.7502060  19.8870430  27.7909622  46.6819534
  20.1982956  28.1655712  45.7068138  20.0132465  26.7101402  46.7451859
  18.8364849  28.0789661  46.6434860  20.9180355  29.9416695  47.5120583
  19.9777050  30.3784752  47.8483429  21.6483479  30.4798145  48.1163292
  21.0177956  30.3104801  46.4912148  20.1338501  26.6888180  49.4971771
  19.0376644  26.2678967  49.6270714  21.2527733  25.9660072  49.6436844
  22.1071053  26.5044365  49.6612320  21.4285927  24.4807320  49.7881737
  20.8873997  24.1772175  50.6843262  21.0111408  23.7441750  48.5105972
  20.8012486  22.6881752  48.6806335  20.0376358  24.1557140  48.2440987
  21.9288387  23.8753033  47.2822075  22.5515652  24.7689266  47.3240356
  22.6757870  23.0851822  47.3588905  21.2249279  23.8277683  45.9845695
  20.0445690  24.2243977  45.8179817  21.9056797  23.3997860  44.9622116
  22.8521824  23.0646305  45.0713120  21.3965092  23.2719707  44.0993614
  22.9095497  24.0898819  50.1163406  23.7599010  25.0111427  50.1364937
  23.2378826  22.8221321  50.3863373  22.5357990  22.0963707  50.3651009
  24.6985703  22.4392891  50.5956535  25.3266125  23.2221832  50.1705170
  24.8718548  22.5269051  52.1210899  24.5782394  23.5018940  52.5100517
  24.3345642  21.6563206  52.4972572  26.3130360  22.1812057  52.4621620
  26.4819050  21.1529636  52.1423149  27.0473766  22.8332748  51.9892502
  26.7095566  22.1250114  54.2660904  26.5504208  23.8453445  54.7536812
  27.4949856  24.3092136  55.0378189  26.3279533  24.4144192  53.8510399
  25.7125587  23.8839092  55.4498138  25.0365257  21.0526257  50.0076447
  24.0881233  20.2602100  49.8687820  26.3170128  20.7469063  49.6288261
  27.0582962  21.4306202  49.6848221  26.7648792  19.6065845  48.9204292
  26.0471821  18.8008633  49.0747719  26.8166733  20.0133305  47.3883476
  25.7732983  20.1293602  47.0950813  27.3280487  20.9681702  47.2663498
  27.3713017  18.9047241  46.4955673  27.0533676  17.9525127  46.9202003
  26.8452644  19.0476246  45.0593185  25.7768612  18.8403721  45.1198425
  26.9215584  20.0618572  44.6673851  27.2707043  18.3731461  44.3162308
  28.9141121  18.8703976  46.4357147  29.3104763  19.8577042  46.1985893
  29.3259010  18.4663296  47.3605194  29.2919464  18.2458038  45.6262550
  28.1369953  19.1911087  49.4707222  28.9661922  20.0965710  49.5585976
  28.2326660  17.9396152  49.9498749  27.4195385  17.3466148  50.0351601
  29.4803429  17.2430992  50.1652832  30.2811947  17.9821911  50.1432266
  29.4900913  16.7436390  51.6193504  28.6171894  16.1208630  51.8150406
  30.3916416  16.1338844  51.6785393  29.5928154  17.9259892  52.6744423
  30.1340008  18.7126713  52.1487503  28.3070869  18.5208492  53.1112900
  28.4824543  19.4566650  53.6419487  27.6459236  18.6207657  52.2504883
  27.7810917  17.9249325  53.8571510  30.3249149  17.4383564  53.9183960
  31.2088776  16.8674183  53.6342468  30.4815311  18.3667812  54.4675827
  29.6878738  16.6928196  54.3942642  29.9179211  16.1662750  49.1580582
  29.1278038  15.5383978  48.5013962  31.1824741  15.8954935  49.2391891
  31.8167706  16.4283562  49.8169670  31.7549343  14.6442060  48.5701485
  30.9841976  13.8816223  48.4581985  32.1526413  15.0275526  47.1560249
  32.3960609  14.0632486  46.7099686  31.2685661  15.4341354  46.6649055
  33.1899338  15.9641762  47.1290855  33.6430435  15.9734678  46.2827911
  32.8373680  14.0193281  49.3796768  33.5271034  14.7173529  50.1139374
  33.0606537  12.7296019  49.1140976  32.4796791  12.4068460  48.3535728
  34.1090012  11.9630775  49.7530746  34.9211121  12.6697149  49.9240685
  33.6270523  11.4417458  51.1245880  34.4936333  11.3435993  51.7784271
  32.8899612  12.1150293  51.5621834  33.3269081  10.3975401  51.0371437
  34.8726311  10.9019470  48.9885674  34.2878456  10.2313032  48.1990738
  36.1564560  10.7417727  49.1953506  36.5824852  11.3178463  49.9072075
  37.0450211   9.7169218  48.5885277  36.8361397   9.8133078  47.5230789
  38.4864311  10.0296726  49.0947037  39.1225128   9.2523861  48.6712341
  38.8560181  11.3280573  48.3767967  38.4384422  12.2295341  48.8252068
  39.9251518  11.5401268  48.3854828  38.5446548  11.2710505  47.3337708
  38.7683792   9.9905376  50.4974518  39.1025963   9.1046667  50.6559868
  36.6589279   8.2262697  48.9252968  36.3401451   7.9796319  50.1112061
  36.8745232   7.2431064  48.0615616  37.5481758   7.4497552  46.7765388
  38.4538536   8.0557032  46.8025970  36.9069672   8.0389471  46.1209450
  37.8429375   6.0717540  46.1993065  38.7418175   5.5828490  46.5749207
  37.8133354   6.0562506  45.1098175  36.6994553   5.2950225  46.8030930
  36.7983551   4.2113066  46.7408142  35.8330460   5.5808434  46.2066536
  36.4104347   5.8869128  48.2140770  35.3255577   5.8718400  48.3185768
  37.1309814   5.0746446  49.2575684  36.8528404   3.8629513  49.3337135
  38.0809174   5.6882601  50.0576591  38.0686111   6.6963749  50.1180954
  38.5981255   4.8814483  51.2517776  38.4294281   3.8615425  50.9061852
  40.1482582   5.1482124  51.4542427  40.4957237   4.8287668  52.4367485
  40.6788368   4.6361499  50.6515121  40.6257782   6.6556435  51.3207130
  41.8480034   6.9042902  51.2766418  39.8037643   7.5626965  51.0853653
  37.8899384   5.0848331  52.5479660  38.1819191   4.3203387  53.4338341
  36.9553986   6.0397882  52.7376518  36.7687111   6.5867558  51.9093552
  36.1575508   6.3377872  53.9212799  36.7276840   6.0197849  54.7941589
  36.0704079   7.9294744  54.1246033  35.6017303   8.3437681  53.2319641
  35.4805145   8.1031904  55.0245743  37.4893723   8.6156940  54.3363037
  38.1294708   8.3352957  53.4997902  37.2569618  10.1369257  54.3196793
  36.4562798  10.3267355  55.0345116  38.2111244  10.6340342  54.4944839
  36.9685173  10.3893967  53.2993050  38.1141396   8.2839546  55.6651001
  38.4914970   7.2729406  55.5116425  38.8683052   8.9850168  56.0226517
  37.3681183   8.1343117  56.4455872  34.7670975   5.6279125  53.8766022
  34.1195717   5.4586129  52.8050461  34.2485657   5.2243071  55.0329475
  34.7113266   5.4884596  55.8909531  33.1663818   4.2840118  55.1439171
  32.5499687   4.4302931  54.2569351  33.6590767   2.7807074  55.0491982
  34.1663742   2.4364591  55.9504433  32.7756119   2.1433883  55.0867691
  34.5948448   2.3918948  53.9218216  34.2444725   2.3710406  52.5324516
  33.3590279   2.7506211  52.2291298  35.3155403   2.0854764  51.7694206
  35.3929062   2.2024109  50.6985588  36.3558578   1.8859982  52.5556450
  37.2759132   1.5377920  52.3268433  35.9141579   2.0538189  53.9460487
  36.5863342   2.0359614  54.7911835  32.3150826   4.4186091  56.3391609
  31.2610397   3.7811415  56.5219460  32.6087685   5.2991500  57.2876129
  33.5412674   5.6831317  57.2318611  32.1139870   5.1601319  58.6105118
  31.9205704   4.1026082  58.7903290  33.2020302   5.5233588  59.5709686
  33.3820114   6.5971947  59.5201035  32.8342743   5.3087549  60.5743637
  34.1467514   4.9878578  59.4769402  30.7838573   5.9688792  58.9916954
  30.1924915   5.6774044  60.0529747  30.5826588   6.9860096  58.2224922
  31.3532906   7.2015657  57.6062393  29.4357605   7.8843079  58.3119812
  28.5482464   7.2666683  58.4496078  29.5022964   8.9564400  59.5367279
  29.8025131   8.3573494  60.3964157  30.5214024  10.0643120  59.2246895
  31.4581718   9.6187792  58.8899307  29.9759636  10.7271690  58.5529633
  30.6355228  10.5824194  60.1768684  28.1786804   9.6265154  59.8853989
  27.7553959  10.3499174  59.1885376  27.4791107   8.7995434  60.0071373
  28.3835106  10.2644978  60.7451210  29.3283539   8.6912355  57.0153503
  30.3568363   8.9427176  56.3958054  28.1883984   9.0980587  56.5226517
  27.3123932   8.6968613  56.8255692  28.1089535  10.1009140  55.4718056
  28.7992096   9.8963003  54.6534004  26.6820164  10.1072731  54.7874451
  25.9431171  10.1371641  55.5882149  26.5940571  11.0654421  54.2753143
  26.2458057   8.9861336  53.9202156  25.4798889   7.9260974  54.4337769
  25.2664738   7.7699223  55.4808960  25.2682171   6.8287125  53.5173302
  24.6899719   5.9589911  53.7923203  25.5038586   6.9319715  52.1536217
  25.2321053   6.1655378  51.4428978  26.1818142   8.0342722  51.6474342
  26.4211712   7.9590387  50.5969849  26.5651894   9.0090332  52.5560303
  27.2422791   9.8046513  52.2822762  28.4912834  11.4742279  56.1585693
  27.8225231  11.8215218  57.1089592  29.4306087  12.3453875  55.6507263
  30.2480793  12.1116848  54.4491348  29.5983829  11.8722343  53.6073112
  30.8602314  11.2336063  54.6549263  31.1195431  13.3064642  54.2150421
  30.6556759  13.9067345  53.4323502  32.1078873  13.0556116  53.8298874
  31.1963978  13.9242811  55.6753044  31.1736946  15.0116320  55.7477837
  32.0273972  13.4651403  56.2107773  29.9179573  13.4465780  56.3494492
  30.2130299  13.1525021  57.3566971  28.8864727  14.6808920  56.4741745
  28.8806992  15.3514347  57.4787445  27.9293976  14.7783585  55.5265160
  27.8978615  14.0027895  54.8802986  26.8499050  15.7498837  55.6061478
  27.2897205  16.7334805  55.4412270  25.9265633  15.4636469  54.4230766
  26.2411041  15.8476276  53.4526520  25.7430096  14.3933773  54.3285751
  24.9822044  15.9448338  54.6775398  26.0287590  15.7263899  56.9638062
  25.4147892  16.6749840  57.2634659  26.1275845  14.6408920  57.8019714
  26.8098660  13.9500160  57.5239754  25.4675312  14.5072556  59.1107979
  24.3941612  14.4309225  58.9371452  25.9000473  13.1615067  59.7733002
  25.7249813  12.4055910  59.0077629  26.9657593  13.2367496  59.9893913
  25.1463280  12.8391895  61.0609169  25.3901844  13.5685139  61.8333969
  24.0734978  12.8111076  60.8702660  25.5936356  11.3899746  61.5849609
  25.3226814  10.7617455  60.7364273  26.6496048  11.2600946  61.8219490
  24.9178505  11.0134106  62.8744431  25.2840405  11.6247206  63.6992493
  23.8310852  11.0932560  62.8486481  25.1830025   9.6364613  63.1648140
  24.5864735   9.3838387  63.9396896  25.0343609   8.9996691  62.3950729
  26.1196899   9.4213686  63.4753799  25.7872448  15.6251440  60.0528679
  25.0595970  15.8909016  61.0470161  26.9482021  16.3193016  59.8497314
  27.4282951  16.0705185  58.9966660  27.4964256  17.3128052  60.7940521
  27.5539589  16.8949070  61.7991180  28.8873806  17.6721687  60.2419548
  29.4813881  18.1902924  60.9948196  29.4719372  16.7618332  60.1089821
  28.7931271  18.1934052  59.2893105  26.6876450  18.5871601  60.9317856
  26.6889496  19.2382851  61.9762421  25.9763069  19.0777435  59.9394455
  25.9881935  18.5404339  59.0843048  25.2289600  20.3409252  59.8977776
  25.8705273  21.1761894  60.1785316  24.7670193  20.6362476  58.4465714
  24.5303268  19.6974144  57.9459038  23.6081543  21.6850700  58.2944489
  23.9307308  22.6582642  58.6644974  23.2557945  21.7894993  57.2682724
  22.7419930  21.4011631  58.8921661  25.9835606  21.1925468  57.7034683
  26.3362808  22.0689716  58.2471275  26.7872181  20.4563847  57.7208748
  25.7662868  21.4427891  56.6650658  24.1297054  20.3686867  60.8713570
  23.7891903  21.4454823  61.4152222  23.5994625  19.1891003  61.2671585
  23.9096165  18.3809471  60.7467804  22.5945511  19.0951843  62.3166733
  21.8650169  19.8802872  62.1179504  21.8665199  17.7029438  62.2117691
  21.6323872  17.4504948  61.1775742  22.5394936  16.9578228  62.6360321
  20.6074295  17.6374874  63.1331978  20.9258022  17.3440742  64.1335220
  20.1081505  18.6062489  63.1152954  19.6047516  16.5970974  62.6730118
  19.9965992  15.5956554  62.4950562  18.8219814  16.4420300  63.4155235
  19.0384750  17.0987587  61.3861084  19.4803963  16.8393993  60.5157394
  17.9261150  17.7357464  61.2688332  17.2443619  18.1189404  62.2556114
  17.5530071  17.9246159  63.1974602  16.3611507  18.5456829  62.0149231
  17.4990654  17.9440937  60.0897942  16.6132183  18.3874569  59.8927803
  17.9926815  17.6487885  59.2595901  22.9923382  19.4957104  63.6896248
  22.1290493  19.6733227  64.5608215  24.2866440  19.6667290  63.8703041
  24.8886261  19.5172939  63.0731926  24.8719349  19.9886208  65.2360077
  24.1338177  19.7000103  65.9843292  26.2965393  19.3761196  65.4715881
  26.8701420  19.8405209  64.6694565  26.7614784  19.6927986  66.4052048
  26.4622383  17.8910694  65.2854996  25.8281384  17.6078339  64.4453812
  27.5021229  17.6646347  65.0499878  25.9724865  17.0037136  66.4541397
  25.4455090  17.5649090  67.4998550  26.1676273  15.7674608  66.3817062
  25.1367168  21.4600334  65.4123077  25.5352898  21.7831402  66.5239182
  25.0309715  22.3119068  64.3624191  24.7504196  21.9719982  63.4536514
  25.3937550  23.7576027  64.3538666  26.2753372  23.9409943  64.9680939
  25.7035580  24.1003704  62.9174576  25.1691723  23.4384804  62.2359657
  25.4254608  25.1366940  62.7256317  27.2037086  24.0635910  62.5534401
  27.8005829  24.7340870  63.1717224  27.8405952  22.6977730  62.7490692
  27.8792953  22.4811878  63.8166389  27.2595119  21.8962460  62.2930031
  28.8556862  22.8548164  62.3843384  27.3089485  24.3581219  61.0856781
  28.3214989  24.3018494  60.6860886  26.7398090  23.6065254  60.5386124
  26.9126968  25.3380375  60.8194962  24.1787586  24.5197659  65.0210342
  23.0846176  24.0123901  65.2182693  24.3842030  25.7920761  65.2230453
  25.2991867  26.1811848  65.0455551  23.4268055  26.6194763  65.9018021
  23.1609173  26.0343838  66.7821808  24.2176781  27.7876053  66.4861450
  24.8731880  28.2769260  65.7657471  23.5849133  28.5412025  66.9549713
  25.0277405  27.2734680  67.5523605  25.8710861  27.0046368  67.1807404
  22.2479172  27.1307163  64.9919662  22.3429222  28.1833019  64.4129105
  21.1165714  26.4002895  64.9146729  21.0251713  25.5207920  65.4027557
  19.9258251  26.8036480  64.0950623  18.9824448  26.4985981  64.5479202
  19.7879848  27.8831558  64.0336838  19.9206905  26.2490730  62.6693993
  19.0530243  26.6023598  61.8935928  20.8532906  25.3115578  62.2768707
  21.3883495  24.7741413  62.9439507  21.0268764  24.9055195  60.8615150
  20.6788445  25.7341690  60.2448196  22.5492916  24.7461510  60.6953735
  23.0104103  24.2067432  61.5227242  22.6647053  24.1213322  59.8097191
  23.3590221  25.9378910  60.4169960  23.5623341  26.9536972  61.3169289
  23.1963348  26.9382267  62.3329048  24.3256645  27.8842964  60.6663094
  24.7901821  28.7184830  60.9956398  24.4469528  27.5911255  59.3019180
  24.9719181  28.3557339  58.2251091  25.3082867  29.3738060  58.3546791
  25.0763664  27.6840858  57.0340691  25.6468945  28.1524849  56.2457161
  24.5978642  26.3797989  56.8274384  24.6480064  25.9281731  55.8476830
  24.0088234  25.6317177  57.8461380  23.6185760  24.6343174  57.7072067
  23.9436150  26.2965584  59.1239586  20.1961746  23.6734200  60.4561996
  20.4244576  23.0413284  59.4376526  19.1910019  23.3744030  61.2723122
  19.0242252  23.9614258  62.0771027  18.2612534  22.2232704  61.2141838
  18.8273220  21.3533192  60.8812408  17.5493507  21.9989452  62.6122055
  16.7860870  22.7392178  62.8520508  16.9072914  21.1322670  62.4549522
  18.3908920  21.6310921  63.8797646  17.8287640  21.4678955  64.7992630
  18.8859749  20.6838131  63.6660843  19.4090271  22.6833744  64.2040634
  19.1327572  23.8612518  64.2045975  20.6330013  22.3979683  64.5044785
  20.9433575  21.4368324  64.5038071  21.2829876  23.1340179  64.7407990
  17.2807579  22.2579651  59.9713249  16.7463017  21.1200294  59.6844521
  17.2078266  23.3819904  59.2127457  17.8096561  24.1505623  59.4719734
  16.2755566  23.5264835  58.0458374  15.8107748  22.5479164  57.9254913
  15.0831356  24.4872761  58.3513451  15.4321976  25.5039062  58.1704597
  14.2420540  24.2422714  57.7027664  14.5662365  24.2897282  59.7650795
  13.8846741  23.0728683  60.1271286  13.7692699  22.3322048  59.3496361
  13.3255482  22.8936214  61.4240189  12.6447067  22.0673103  61.5656700
  13.4435825  23.9441071  62.3356247  12.7158680  23.9198341  63.4767990
  12.3370466  23.0555344  63.6530914  14.1224241  25.1414776  61.9934769
  14.1100073  26.0059204  62.6407700  14.6416597  25.3221188  60.6980705
  15.0602226  26.2856922  60.4476051  16.9539223  23.7801533  56.6680565
  16.3490906  23.7770367  55.6295166  18.2793617  23.9653130  56.7296333
  18.5772190  23.9506016  57.6946030  19.2632904  24.0290623  55.6298294
  18.9342556  24.7774525  54.9088898  20.6437759  24.4599018  56.2779007
  21.0340462  23.8221397  57.0710258  21.6235657  24.4847355  55.0700874
  22.5723457  24.3730373  55.5949135  21.5171185  23.6006870  54.4414139
  21.3984623  25.3721561  54.4785500  20.6070576  25.8593178  57.0057068
  20.0497799  25.8173447  57.9415436  21.5927277  26.0565948  57.4271774
  20.2873783  26.6283016  56.3024521  19.3165874  22.6395531  54.9638023
  19.8872929  21.7721500  55.6072655  18.9735832  22.5099621  53.7225037
  18.2864647  23.5108414  52.8169022  18.9678478  24.2140160  52.3379784
  17.4822388  24.0305252  53.3377151  17.8026867  22.5799084  51.6555214
  18.3870583  22.8996639  50.7927551  16.7614136  22.8240051  51.4451256
  18.1409664  21.0859642  51.9875946  18.6029854  20.5492039  51.1590271
  17.2393780  20.5871639  52.3431854  19.1107864  21.1543617  53.0708427
  18.8767433  20.4333954  53.8541260  20.5064144  20.8671093  52.5471687
  21.2288723  21.7396355  52.1226120  20.9233856  19.5725307  52.6088486
  20.2655697  18.9328365  53.0309486  22.3121071  19.1043739  52.4203949
  22.8363476  19.9254456  51.9314041  23.0402851  18.8915062  53.7658653
  22.6011200  18.0595055  54.3163261  24.4743366  18.4668331  53.5175629
  24.4630642  17.6092472  52.8448601  25.0174026  19.2312260  52.9617920
  24.9480553  18.2730751  54.4799309  23.0153732  20.0645714  54.7574997
  23.7515984  20.0028973  55.5589142  23.1751766  21.0105801  54.2401695
  22.0416012  20.1141052  55.2447548  22.4497547  17.7404766  51.6428795
  21.8289948  16.7574158  52.1031837  23.1205254  17.7552242  50.4907227
  23.4249668  18.6764450  50.2100639  23.3855782  16.4976559  49.7387314
  22.6792221  15.7178116  50.0233421  23.1102657  16.7375107  48.2554550
  23.2997589  15.7786102  47.7730637  21.6712074  17.1562195  48.0444489
  21.4307556  17.2196827  46.9831963  21.0009441  16.3844032  48.4227982
  21.5196896  18.1817265  48.3813171  24.0305119  17.6625671  47.6549721
  24.6303158  17.1405430  47.1170845  24.7852688  15.9309053  49.8696556
  25.6181145  16.6790752  50.3840981  25.0438690  14.6876831  49.5364761
  24.1999855  14.2030973  49.2660370  26.3705349  14.0595846  49.5472069
  27.1612186  14.8015566  49.4358253  26.5737495  13.3204918  50.8995399
  26.1364193  13.8645525  51.7367058  26.1152649  12.3397894  50.7725906
  28.4048195  12.9580936  50.9908943  28.4390640  11.6356745  50.8039932
  26.4962425  13.1345520  48.3374748  25.5961304  12.4153872  47.9324036
  27.7639370  13.0861921  47.8280869  28.4239864  13.7741528  48.1614685
  28.1327229  12.3186750  46.6315804  27.3234158  11.6408606  46.3601189
  28.2035942  13.2968187  45.4107132  28.2133255  12.6079788  44.5660210
  27.2755604  13.8547440  45.2859230  29.3991203  14.2652788  45.3815918
  29.4998932  14.7129498  46.3702965  30.3184738  13.8147745  45.0075150
  29.0012131  15.6683607  44.3992348  30.7248592  16.1715984  43.9429512
  31.3099632  15.3498888  43.5299759  30.7110558  17.0029259  43.2381096
  31.2057858  16.5256977  44.8547745  29.3938847  11.5143328  46.9397125
  30.1283894  11.8343935  47.8444099  29.7767658  10.6162701  46.0449753
  29.1206055  10.4064913  45.3063660  31.1282845  10.0659590  45.9614525
  31.5549774   9.8721371  46.9455605  31.0905838   8.7075596  45.3092346
  30.3055210   8.0213547  45.6268806  30.8593349   8.9029570  44.2621231
  32.4083786   8.0022774  45.3973427  32.4724045   7.2648034  44.5972557
  33.2297478   8.7045698  45.2550774  32.5312004   7.2604671  46.7364349
  32.2263412   6.0486369  46.9004097  33.0426369   7.9167671  47.8339272
  33.3942413   8.8529634  47.6924362  33.3707123   7.4071517  48.6418610
  31.9081631  11.1958170  45.1570282  31.4766998  11.5480404  44.0488358
  33.0661278  11.6516342  45.6523743  33.2851944  11.4842110  46.6240158
  34.0782051  12.3802481  44.8372002  33.4899025  13.0611687  44.2220993
  35.1130638  13.1594896  45.6352844  34.5781670  13.7207079  46.4014587
  35.7307358  12.4638853  46.2033653  36.0473824  14.0776272  44.8284760
  36.8471451  14.2852936  45.5393600  36.4775352  13.6492596  43.9231720
  35.4975243  15.4801989  44.4390450  36.0401878  16.1562061  43.4911919
  34.5107994  15.9021282  45.0510254  34.8297386  11.4557915  43.8270454
  35.0683517  10.3190680  44.1609268  35.1552696  12.0114508  42.6468925
  34.8631516  12.9632111  42.4768372  35.7227135  11.2398510  41.5528145
  35.1122894  10.4048862  41.2088394  35.8299446  12.1048307  40.3148956
  34.8261642  12.5162153  40.2086449  36.4544411  12.9973497  40.3538895
  36.1217880  11.3731880  39.0004425  37.1550331  11.0273523  39.0304337
  35.4812164  10.4913177  38.9918900  35.7805824  12.3574314  37.4692764
  37.2337341  13.4155588  37.4160995  38.0640907  12.7824316  37.7287674
  37.3978806  13.8118629  36.4140549  37.2789955  14.2460833  38.1205750
  37.0197029  10.5213652  41.9839249  37.8363953  11.1583853  42.6634140
  37.2716331   9.2897663  41.5293159  36.6220741   8.9354200  40.8418465
  38.5860748   8.6806936  41.7624054  38.9766846   8.9442482  42.7452927
  38.3557663   7.2385025  42.0007248  37.5842857   7.1029229  42.7587051
  38.0522041   6.7334499  41.0837364  39.5869026   6.3999786  42.4089546
  40.5495987   7.0135069  42.9432259  39.4157715   5.1406903  42.3644714
  39.6156235   9.0258121  40.6610718  39.3443947   8.8403931  39.4644470
  40.8675842   9.3433714  41.0810432  41.1206551   9.1353426  42.0364380
  41.8523140   9.9489565  40.2182312  41.6487541   9.5560818  39.2220840
  41.7510376  11.5228548  40.2520905  41.4644089  11.8776827  41.2420616
  42.9541435  12.2228584  39.7416229  43.4111748  11.7727385  38.8603706
  42.7738037  13.2919674  39.6294441  43.7339401  12.2790728  40.5011368
  40.6439514  11.8750572  39.3575592  39.6729126  11.6462564  39.7966843
  40.5065155  12.9179916  39.0720673  40.8279953  11.3385248  38.4267731
  43.2800179   9.5924416  40.7591209  43.4861488   9.6668730  41.9955025
  44.1387749   9.2865438  39.8312683  43.8248215   9.2094107  38.8744087
  45.5817490   8.9966164  40.1384354  45.4826050   8.1092405  40.7636032
  46.4103432   8.7013865  38.8520966  46.4969177   9.5237217  38.1419067
  47.8396263   8.1555471  39.1500931  47.8819618   7.1121716  39.4626312
  48.5253143   8.3178434  38.3184700  48.2290764   8.7780590  39.9556389
  45.7970848   7.6610312  38.0894203  44.9727097   7.9897790  37.7234459
  46.1397514  10.1572285  40.9814453  46.1601372  11.3262558  40.5333824
  46.6170387   9.8776131  42.2288475  46.5832901   8.9351015  42.5902786
  47.3143730  10.8893480  43.0475311  47.7488823  10.2608919  43.8249283
  48.0800438  11.3748188  42.4424095  46.4085464  11.8600626  43.7983284
  46.8581161  12.8934336  44.3498383  45.1111221  11.5436897  43.7815781
  44.7431297  10.7216969  43.3244019  44.1309776  12.1063290  44.6746140
  43.9089890  13.1460457  44.4341736  43.2433281  11.4920998  44.5232773
  44.4829750  12.0291700  46.1263771  45.1447906  11.0644674  46.5652466
  44.2787361  13.1268988  46.8691750  43.9161110  13.9135857  46.3498230
  44.5756378  13.2607946  48.2958260  45.6192665  12.9905319  48.4567757
  44.3918762  14.7120047  48.6548767  45.0951881  15.3990965  48.1843872
  43.3917961  14.9578619  48.2978210  44.4634018  15.1117096  50.1860924
  44.1404343  14.2954140  50.8321991  45.9709129  15.4411144  50.4088097
  46.4768410  14.4899521  50.2431793  46.4268875  16.2141323  49.7902374
  46.0953941  15.7344332  51.4511986  43.7143250  16.4126720  50.3855858
  42.7380791  16.3163834  49.9104347  43.8158379  16.7138214  51.4282265
  44.2294655  17.2224865  49.8689308  43.6385117  12.3087416  49.1407776
  42.4551544  12.3130093  48.9804955  44.3281746  11.3701849  49.8669853
  45.3131752  11.2279139  49.6948395  43.6794167  10.2295189  50.5565186
  43.0002441   9.8260212  49.8055115  44.5956306   9.0466471  50.9093132
  45.3882370   9.3689108  51.5846100  44.0669746   8.3768911  51.5875854
  45.0786781   8.2962761  49.6515999  44.2577133   7.8216519  49.1141548
  45.5258408   9.0248356  48.9753227  46.1112137   7.1846704  49.9369469
  46.9837418   7.6135001  50.4297943  45.6535988   6.4403801  50.5886536
  46.4465141   6.5698910  48.5947609  46.7233734   7.3697014  47.9079170
  47.4112358   6.0667667  48.6601639  45.3504906   5.6996717  47.9657860
  45.5624199   5.4193287  47.0188980  45.3685913   4.8879938  48.5665817
  44.4523010   6.1433973  48.0940742  42.8062439  10.6640177  51.7620659
  43.0103111  11.7617474  52.3429527  41.9724960   9.8084459  52.2883224
  42.0217209   8.9286852  51.7946663  40.9601974  10.0242910  53.2880821
  40.1224785   9.4074688  52.9627342  41.4972954   9.5297937  54.6032410
  42.3180542  10.1988792  54.8616600  40.7127075   9.7166834  55.3364487
  41.9832954   8.0803528  54.6501923  41.2580185   7.3851075  54.2274551
  42.8386917   7.9925566  53.9803467  42.2862778   7.6083765  56.0382118
  42.7809563   8.4507875  56.5216751  41.3968735   7.2542281  56.5594101
  43.3569145   6.5497675  55.9791336  42.9033623   5.6936817  55.4796295
  44.0997009   6.9637723  55.2972450  44.0370674   6.3068652  57.2741661
  43.4537468   6.3086238  58.0986862  44.4441223   5.3874602  57.3695984
  44.7211876   7.0261450  57.4604988  40.4133530  11.4451141  53.3710365
  40.6176109  12.0970201  54.4497948  39.7528687  12.0451193  52.3115730
  39.4374619  11.4396849  51.5672150  39.4508438  13.4658375  52.2702713
  39.6934090  13.9289112  53.2267380  40.3810844  14.1352329  51.2855568
  41.4083519  13.9831715  51.6167641  40.3344955  13.6953354  50.2893562
  40.1143913  15.9375000  50.9636803  40.0512695  16.4606361  52.1913795
  38.0039787  13.6850796  51.9775009  37.3870354  12.7806053  51.4328842
  37.4878235  14.7498026  52.5935478  38.1272202  15.3970165  53.0321693
  36.0545006  15.1776838  52.7282448  35.3603935  14.5840740  52.1333160
  35.6374359  14.9802284  54.2508278  36.3369751  15.5017290  54.9041138
  34.2300949  15.4846802  54.5124130  33.5853081  14.9569149  53.8096924
  33.8460693  15.3648052  55.5254517  34.2253799  16.5639744  54.3600655
  35.5582924  13.4166727  54.5433197  34.5278511  13.0622549  54.5692482
  36.0195312  12.8424215  53.7398300  36.1704903  13.1547451  55.9540405
  36.0231743  12.1219454  56.2698517  37.2208481  13.4303455  55.8597107
  35.6769104  13.7976246  56.6828651  35.9275246  16.6325531  52.3288422
  36.7327843  17.4389286  52.7218475  35.0264244  16.9804420  51.4169121
  34.3574982  16.2711010  51.1533318  34.8627052  18.2413368  50.5906601
  35.6284103  18.9567661  50.8905869  34.9715881  17.8178768  49.0640488
  34.5563622  16.8145981  48.9685478  34.4719543  18.5110416  48.3873024
  36.4654388  17.7936459  48.7627602  36.9095078  18.7831841  48.6544991
  37.0418625  17.2999134  49.5451088  36.6328354  17.1670399  47.3685913
  36.2771759  16.1371059  47.3976555  36.2291336  17.6825695  46.4971848
  38.0739479  17.1351681  47.0535736  38.4685707  18.0104923  46.7402382
  38.8956909  16.1154366  47.2276726  38.6373558  15.0006170  47.7712593
  37.7386932  14.8033924  48.1879196  39.4399605  14.3965187  47.8760948
  40.1312485  16.1885700  46.8822937  40.4101372  16.9459572  46.2750969
  40.6168251  15.3036070  46.9163055  33.4610405  18.7374897  50.7755966
  32.5858078  17.9297543  51.0924072  33.3269043  20.0053883  50.5111885
  34.1775208  20.5367813  50.3921242  32.0929337  20.7778435  50.7559128
  31.2690411  20.0724087  50.6479073  31.8948669  21.2630100  52.2039185
  31.9980717  20.4409122  52.9121590  32.9243813  22.3477764  52.5859451
  33.9561996  22.0093803  52.4913940  32.9230652  23.2639370  51.9953957
  32.7735901  22.6334934  53.6269684  30.5668087  21.8481941  52.5305748
  30.2451744  22.7337627  51.9824715  29.7775784  21.1120129  52.3780861
  30.5309868  22.2111549  53.5577469  31.9290752  21.8667107  49.6674232
  32.9365959  22.5609150  49.3719292  30.6702137  22.1302490  49.4237061
  30.0076714  21.6198864  49.9899826  30.2817764  23.3782940  48.6642685
  30.9773788  24.2021313  48.8240471  30.0819569  22.9496670  47.2519913
  31.0693378  22.6415367  46.9081383  29.4973602  22.0327301  47.1773415
  29.4786987  24.1087799  46.3888474  28.4320908  23.8202877  46.2914581
  29.6356621  25.0744362  46.8694382  30.2240467  24.4653950  44.7373428
  29.6849537  22.9027443  43.9002075  30.0778751  22.8143978  42.8873367
  30.0539913  22.1231689  44.5666695  28.5951557  22.9163361  43.8841743
  29.0072231  23.8418789  49.3252335  27.9814548  23.0981007  49.3426781
  28.8879452  25.0874977  49.7518539  29.7056370  25.6665611  49.6246986
  27.6309452  25.7564564  50.1236763  26.7693272  25.1079388  49.9651184
  27.7291412  26.2658005  51.5860214  28.1424217  25.5595284  52.3060760
  28.4457417  27.0849953  51.6452293  26.5422897  26.9410782  52.2263603
  26.2936115  27.6554317  51.4415283  25.7216015  26.2354107  52.0975113
  26.7504272  27.5677299  53.9007912  28.1060848  28.7235374  53.7121696
  28.2893429  29.3257771  54.6020126  29.0028629  28.1211109  53.8569870
  28.1164894  29.2694340  52.7687759  27.2944183  26.8591347  49.1865807
  28.1315441  27.7034645  48.9140015  26.0756207  26.8431416  48.6174965
  25.4689560  26.0561695  48.7984276  25.6130409  27.9104595  47.6729355
  26.4817772  28.3527679  47.1853180  24.7462387  27.3955078  46.5123100
  23.8165588  26.9803448  46.9014702  24.3761311  28.5038261  45.5879364
  25.3388271  28.7242088  45.1266975  23.7192421  28.1924915  44.7757378
  23.9755039  29.3646545  46.1232605  25.4957542  26.5448818  45.6974564
  25.7148209  25.7359333  46.1656570  24.7833099  28.9484291  48.5310364
  23.7343445  28.6529369  49.0911636  25.1594429  30.2565098  48.5521698
  25.8847065  30.5966721  47.9370384  24.4840603  31.2475986  49.4452248
  23.5209103  30.9444714  49.8557816  25.3135052  31.4657917  50.6957130
  24.7395344  31.9794521  51.4669495  25.8529148  30.1307411  51.2473145
  26.2128334  30.2614346  52.2678375  25.0800838  29.3668537  51.3328209
  26.5715313  29.6854916  50.5592422  26.5169716  32.4634361  50.4307556
  27.1056747  32.6011543  51.3377113  27.0992298  32.2481422  49.5348053
  26.0017834  33.4056053  50.2436752  24.1846199  32.5313644  48.7210426
  24.8280048  32.8598289  47.7555580  23.2639523  33.3330307  49.2365646
  22.7105236  32.8640823  49.9393463  22.9367943  34.6365089  48.7528801
  23.1124287  34.6796036  47.6779861  21.4878483  34.8383141  49.1857872
  20.9240494  33.9864693  48.8055344  21.3660469  34.8460350  50.2689362
  20.9423847  36.0489159  48.4920959  21.3992729  36.9874191  48.8060570
  21.0912971  36.0524826  47.4123230  19.4064388  36.1785545  48.6462746
  18.5794964  36.2669907  47.7364273  19.0070744  36.3529625  49.8936195
  19.6509933  36.5711365  50.6405258  18.0093002  36.4043121  50.0416298
  23.8519745  35.7722168  49.3464165  24.0435810  35.8620377  50.5704269
  24.4289894  36.5808792  48.4740448  24.1829758  36.4607887  47.5018539
  25.5501919  37.5047340  48.8402863  25.1344280  37.9976006  49.7191086
  26.7630634  36.7613144  49.2401123  26.4500446  36.2041855  50.1231346
  27.3576908  35.8088760  48.1672401  27.4101677  36.3294640  47.2110329
  28.2482662  35.4299316  48.6686172  26.7067127  34.9354172  48.1298485
  27.7723427  37.6354828  49.6572876  27.4222336  37.7936211  50.5370674
  25.8775711  38.5951538  47.8521729  25.9138355  38.3736916  46.6471214
  26.2070408  39.8234329  48.3132172  26.1215744  39.7929192  49.3191338
  26.7696705  41.0036469  47.5990677  26.2489166  41.1037445  46.6467552
  26.6799431  42.2132301  48.5542870  25.7890015  42.0730400  49.1663895
  27.4943638  42.2406044  49.2782173  26.4922771  43.4952126  47.7343636
  26.6835022  44.5874596  48.3098907  26.0159855  43.5427933  46.6289253
  28.2142296  40.8425941  47.2041779  28.7484875  41.6874008  46.5057526
  28.9208145  39.8041840  47.6872330  28.4539413  39.2478371  48.3890991
  30.3824825  39.7311478  47.6200790  30.8884811  40.6792564  47.8021660
  30.8747101  38.7696838  48.7411194  30.3709278  37.8057823  48.8131714
  32.3987770  38.5389214  48.7634697  32.8377762  39.5177116  48.5701942
  32.8355598  38.0580978  49.6387558  32.5451813  37.8760033  47.9107056
  30.6644745  39.6388779  50.0886993  31.2051468  40.5850945  50.0674324
  29.6216316  39.9190178  50.2373543  31.1042080  39.1601410  50.9636536
  30.8220654  39.2443733  46.1972961  30.1291828  38.3516273  45.7464600
  31.9162941  39.7446289  45.5868835  32.5324478  41.0911369  45.8425827
  33.2362862  40.9238472  46.6578903  31.8089008  41.8625832  46.1061058
  33.1889954  41.4653511  44.5225067  34.0839043  42.0849762  44.5799942
  32.3388824  41.9236336  44.0171471  33.4144592  40.1522102  43.7592316
  34.4205742  39.8786697  44.0770493  33.3248863  40.2638359  42.6786690
  32.3552628  39.2090225  44.3204460  31.4736137  39.2604675  43.6815796
  32.9433517  37.7968178  44.3540916  33.2605171  37.1857719  45.3885307
  33.1307030  37.2591629  43.2033577  32.7787247  37.7198677  42.3763351
  33.4094543  35.7311516  43.1471977  32.6320877  35.2482719  43.7393341
  33.2672920  35.3386536  41.6927414  32.2605362  35.5794792  41.3513527
  33.9972649  35.8758087  41.0871849  33.2869339  33.8472748  41.5010223
  34.3218536  33.5502701  41.6708031  32.5585060  33.3411026  42.1344910
  33.0626068  33.4789238  40.0107841  33.8277168  33.7813606  39.0668869
  32.0429192  32.7372704  39.7075119  31.2311935  32.5836296  40.2885399
  31.9294357  32.5823860  38.7159309  34.8155785  35.3676796  43.6103477
  34.9518433  34.2930222  44.2164497  35.8261909  36.1231575  43.1885147
  35.5844841  36.9786339  42.7090988  37.2110596  36.0493889  43.6586075
  37.5125732  35.0290604  43.4217110  38.1064835  36.9627419  42.8102875
  39.1021233  36.9312401  43.2527962  38.0363884  36.6224670  41.7771378
  37.7682533  38.4462433  42.7435760  38.6739960  39.3095703  42.7771225
  36.6159363  38.6962624  42.4569626  37.3986702  36.5268860  45.1594391
  38.5170631  36.3432693  45.6656075  36.3214493  37.1511650  45.7007523
  35.4275932  37.1415977  45.2306137  36.4230347  37.7536774  47.0260162
  37.4743538  37.7966118  47.3105927  35.9066277  39.1938896  47.0388222
  34.8759804  39.0785751  46.7033043  35.9055061  39.5729599  48.0607834
  36.7705193  40.1971169  46.1378555  37.7887268  40.0949364  46.5132408
  36.7055130  39.9916382  45.0693741  36.5848999  41.6622925  46.3671913
  35.7055855  42.1385002  47.0901299  37.3647079  42.5167007  45.6556664
  38.0307236  42.2032204  44.9641075  37.2693176  43.5098953  45.8124046
  35.7085228  36.9516716  48.1508179  35.6754875  37.3086395  49.3288918
  35.1578941  35.7352676  47.8471642  35.0574799  35.5668640  46.8563805
  34.6694221  34.6488495  48.6570892  33.9567986  35.0922050  49.3525848
  34.0491638  33.5220642  47.7766304  34.7778931  33.2401543  47.0166397
  33.6101875  32.2230377  48.5999641  32.9860954  31.6264496  47.9346085
  34.5181351  31.7056065  48.9097862  33.1475906  32.5765495  49.5214500
  32.8578339  33.9886780  46.8851852  33.0675278  34.8216019  46.2140923
  32.4664001  33.1851540  46.2612991  31.7355576  34.5073318  47.7491684
  30.8480625  34.5763588  47.1201363  31.4235401  33.8195648  48.5351257
  31.9950180  35.4631424  48.2043648  35.7759857  33.9899406  49.5118904
  36.8177452  33.7371025  48.9419441  35.5736504  33.7332573  50.7890320
  34.7000961  34.0350876  51.1963425  36.5724640  33.0766525  51.6985092
  37.5789070  33.2828140  51.3342743  36.5370140  33.7099609  53.0865211
  35.4700699  33.8016052  53.2898293  36.9544678  33.0364037  53.8349533
  37.2450638  35.0556946  53.2333298  38.3200607  34.9930115  53.0643463
  36.9752693  35.6347389  52.3501434  36.8784714  35.6946106  54.5059776
  35.8078957  35.8952942  54.5471420  36.9915657  35.0823936  55.4006844
  37.5816765  37.0232620  54.6997604  37.5844307  37.7282028  53.9764709
  37.9311066  37.6449623  55.8524971  37.7743797  37.1665115  57.0417328
  38.2189026  37.6400299  57.8152161  37.6178093  36.1803474  57.1936073
  38.4835777  38.7920380  55.7420883  38.5994034  39.3110466  56.6007576
  38.8513565  39.1133080  54.8579903  36.3959961  31.5834789  51.6569786
  35.5290031  31.0071659  52.3633804  37.1639709  30.8689518  50.8403969
  37.9280014  31.4108772  50.4626732  37.2738342  29.3963661  50.7600288
  36.3141022  28.9929237  51.0829124  37.5894966  28.9229126  49.3127251
  38.6308289  29.1663952  49.1019135  37.3709717  27.8583069  49.2292252
  36.7923241  29.6513081  48.3106079  35.4781418  29.3921680  47.9376106
  35.2888489  30.0613079  46.8018837  34.3152237  30.0956650  46.3357620
  36.4119186  30.6260147  46.4106445  36.5480652  31.1430759  45.5537834
  37.3548050  30.3852901  47.3318748  38.4052658  30.6167488  47.2351379
  38.3130913  28.8505001  51.7711105  39.4036255  29.3889198  51.9256210
  38.0695763  27.6359749  52.2942390  37.1623230  27.2226925  52.1324043
  38.7589493  27.1473217  53.4991798  39.6248627  27.7728519  53.7160225
  37.8618202  27.3657131  54.7551956  36.9371262  26.8843708  54.4368439
  38.2724190  26.5186081  55.9597855  38.4936104  25.4772568  55.7257576
  39.1341515  27.0276413  56.3915291  37.4698601  26.5325241  56.6972198
  37.6697540  28.8990688  54.9946518  37.0521736  29.5070267  54.3335228
  37.2134514  28.9657345  55.9822960  38.5279312  29.5549564  55.1410599
  39.2360115  25.6382656  53.3378067  38.4397240  24.7398300  53.1091499
  40.5516815  25.4602070  53.5926857  41.1559296  26.2548103  53.7462845
  41.2812042  24.2473412  53.3022308  40.5647507  23.4311886  53.2089958
  42.0356445  24.4576283  51.9835625  42.5705757  25.4027901  52.0763817
  42.8096237  23.6927967  51.9196510  41.2131195  24.3756256  50.7613411
  40.4055519  25.4375648  50.3009834  40.2993851  26.3994637  50.7804451
  39.5324249  25.2735596  49.2036858  38.8620911  26.0636597  48.8990517
  39.6358681  24.1191902  48.4129868  38.7132988  23.9480381  47.4599876
  38.7536163  23.0343990  47.1680260  40.4810982  23.0889568  48.8468933
  40.5621834  22.1910648  48.2522392  41.2781601  23.2029953  50.0024414
  41.9221954  22.3835278  50.2854500  42.2313309  23.7818928  54.4762726
  43.2717361  24.4199982  54.6207771  41.6601601  22.8553009  55.2162819
  40.7372818  22.5247116  54.9731598  42.2219276  22.5011082  56.4871788
  42.9419823  23.1792183  56.9452019  40.9747849  22.3575745  57.3801041
  40.2945557  21.6743946  56.8715248  41.2683296  21.8969994  58.3234024
  40.1524963  23.6175175  57.6810799  39.6380119  23.9770412  56.7899284
  38.9574776  23.3594398  58.5841217  38.3414764  24.2552071  58.6631775
  38.3402023  22.5952816  58.1117516  39.4151306  23.1667767  59.5544510
  41.0349960  24.7072754  58.2575035  41.6388969  25.0923672  57.4358559
  40.3948669  25.5333729  58.5671844  41.5902443  24.2267036  59.0630112
  42.8861885  21.1465702  56.4816284  42.5992699  20.3708935  55.5959587
  43.5613785  20.8097935  57.5507660  43.5457649  21.4329948  58.3454208
  44.3726196  19.5821915  57.7142143  44.8720360  19.6325283  58.6817627
  43.3262138  18.4067440  57.9399796  42.6850967  18.4114857  57.0584755
  43.7879601  17.4292965  58.0795670  42.4631081  18.6212521  59.2328949
  41.7353401  19.4229794  59.1076736  41.9741325  17.6506176  59.3157883
  43.2798119  18.8552265  60.5195656  42.8135529  19.8297443  61.1359253
  44.3534737  18.2742519  60.6651077  45.4635735  19.5058689  56.6907158
  46.0978775  20.4860229  56.4644241  45.5291748  18.3935356  56.0381508
  45.0287094  17.5681953  56.3355522  46.4485397  18.1162987  54.9163437
  47.3604622  18.7028618  55.0278969  46.6621437  16.5517864  54.6946678
  45.7599678  15.9456711  54.7771568  47.1005821  16.4710178  53.7000046
  47.5524712  15.9058542  55.7908897  48.5244217  16.3920765  55.7072182
  47.1477165  16.0341034  56.7947960  47.7818108  14.4331980  55.5982285
  46.8346710  13.8996449  55.6778755  48.1813431  14.2267008  54.6053391
  48.7649879  13.9728403  56.6250801  49.1503029  12.9823961  56.3828888
  49.6809120  14.5515432  56.5055504  48.2337494  13.9760866  58.0433807
  48.8970451  13.7453241  58.7692490  47.9634438  14.9348612  58.2100792
  47.4673882  13.3184481  58.0608940  45.9922714  18.7137508  53.5897064
  46.8114243  18.9197845  52.7144051  44.6575966  19.0429630  53.4646683
  44.0586128  18.7078400  54.2056198  44.0149994  19.6712532  52.3177071
  44.0193596  19.1872597  51.3410645  42.5606346  19.9849644  52.5531349
  42.4842720  20.7944965  53.2790337  42.1502762  20.3619576  51.6163406
  42.0198402  19.1269779  52.9525108  44.6857071  21.0570049  51.9856873
  44.3883781  21.5620174  50.8763084  45.4800301  21.6644325  52.8952026
  45.6452522  21.1507111  53.7489548  46.2898903  22.9344978  52.6489868
  45.5915298  23.7696934  52.5956573  47.1901054  23.2833652  53.8426971
  46.5393181  23.3011951  54.7169151  48.3262787  22.2611561  54.0575066
  49.0692444  22.1621952  53.2661133  48.8834000  22.5327892  54.9541321
  47.9983788  21.2491474  54.2950363  47.7609329  24.6626549  53.6535568
  48.2769585  24.9812851  54.5592575  48.5549431  24.7050381  52.9079971
  47.0410576  25.4101925  53.3202896  47.0976562  22.8250484  51.3312721
  47.1484871  23.7445984  50.5309258  47.7104149  21.6306343  51.0698166
  47.5314178  20.7961369  51.6098862  48.4303856  21.3623734  49.7999649
  49.2666206  22.0584431  49.7343674  49.1717987  20.0248718  49.9097366
  49.7914505  19.8566971  50.7905617  48.2517586  18.8761082  49.8388138
  48.7303429  17.9486275  50.1531868  47.3473358  19.1662006  50.3735733
  47.9274292  18.6450214  48.8241653  50.1461487  19.7804985  48.7346840
  49.6992645  19.4702015  47.7901688  50.6414642  20.7415333  48.5962067
  50.8599815  19.0218773  49.0556755  47.6692123  21.5578613  48.5427971
  48.3159103  21.9242535  47.5199394  46.3578415  21.5604134  48.5102043
  45.8645630  21.2508564  49.3353996  45.6147346  21.8059120  47.2946053
  46.1808777  21.4148712  46.4492226  44.2638779  21.1268978  47.3950500
  43.7730141  21.6404648  48.2217331  43.6679001  21.3936062  46.5222511
  44.2393570  19.6135616  47.7323151  44.6393738  19.5280781  48.7426491
  42.7335510  19.0948563  47.7789497  42.2226448  19.8580990  48.3659172
  42.3358574  19.0012379  46.7684174  42.7502823  18.1301155  48.2859955
  45.0041466  18.6181030  46.8042564  44.5303078  18.5934772  45.8229446
  46.0151482  18.9952812  46.6502800  45.0711441  17.6611919  47.3218880
  45.5430412  23.3607635  47.0398712  45.3641319  23.7356377  45.8975334
  45.5548172  24.2924747  48.0205498  45.7161484  24.0200253  48.9796333
  45.4447365  25.6752205  47.9437752  45.5860062  25.9552746  46.8998756
  43.9989243  26.2048111  48.3521423  43.8565636  25.8567886  49.3752327
  44.0087585  27.2877560  48.4755478  42.8500977  25.8353710  47.3960266
  42.7694969  24.7492657  47.4405174  41.9245377  26.2748566  47.7679062
  43.1242294  26.1974869  45.9943352  43.8894157  25.5496788  45.5666275
  42.3171005  25.8855839  45.3314857  43.3534813  27.6489773  45.8453674
  44.2826881  27.9357014  46.1182404  42.5898209  28.6111240  45.4222107
  41.2844887  28.4359169  45.1926956  40.8002281  29.1541328  44.6733093
  40.8191071  27.6008568  45.5185661  43.0585060  29.8292999  45.3792763
  42.5155716  30.6787624  45.4404144  44.0631905  29.9218998  45.3330383
  46.5287018  26.3506908  48.9323730  46.0882874  27.1014881  49.8005943
  47.8658028  26.2446499  48.8278427  48.5802460  25.4296379  47.7762947
  48.7928505  26.0276604  46.8901405  48.0768509  24.4844437  47.5730591
  49.8764687  24.9370403  48.4440079  50.5985985  24.8055706  47.6381874
  49.7040329  24.0765190  49.0904312  50.1683655  26.1089783  49.3412933
  50.6687241  26.8836555  48.7602463  50.7758865  25.8300800  50.2022476
  48.8512497  26.8446903  49.6827621  48.5276337  26.5796356  50.6893005
  48.9376106  28.3344269  49.5173378  49.2934761  29.0978680  50.4699936
  48.4662666  28.8264847  48.4008560  48.1820488  28.1871738  47.6724281
  48.0881233  30.2577896  48.2200928  48.9210815  30.9469070  48.3593712
  47.6027832  30.4570694  46.7772102  47.5196991  31.5436058  46.7519302
  48.4560661  30.0653324  46.2235413  46.3781052  29.6970730  46.3628502
  45.9230347  28.6970787  46.9849167  45.8999672  30.0529690  45.2638512
  47.1403084  30.9049015  49.2685356  47.4640121  32.0253868  49.7397919
  46.0455589  30.2676582  49.5976295  45.9334755  29.3497391  49.1914749
  45.0604057  30.7265739  50.6862297  44.9043121  31.7965050  50.5484505
  43.7066841  29.9929466  50.4671707  43.9605904  28.9612064  50.7103691
  43.0589676  30.2187920  51.3142586  43.1427269  30.1029224  49.0315475
  43.8046684  29.5445251  48.3696365  41.6846924  29.6280384  48.8800316
  41.7213135  28.5813389  49.1819992  40.9664230  30.2119141  49.4556007
  41.2695427  29.6867847  47.8739014  43.0792580  31.5854340  48.5697975
  42.6833229  31.7105293  47.5619926  42.5414543  32.2427177  49.2530632
  44.0883904  31.9667854  48.4138412  45.5487938  30.5893860  52.1316833
  45.1070328  31.2832699  53.0618362  46.6537857  29.8543816  52.2503319
  47.2033844  29.6522598  51.4274178  47.2720337  29.5450649  53.5512924
  46.5084114  29.2064209  54.2515068  48.1733017  28.3542728  53.3652802
  47.5619888  27.5901432  52.8851738  48.9652824  28.6861382  52.6939163
  48.7257156  27.8875141  54.5812798  49.4080887  27.2415447  54.3845749
  48.1097145  30.7432632  54.2267914  49.0978050  31.3021488  53.6537056
  47.6729355  31.0445461  55.4664040  46.8293076  30.5448341  55.7086449
  48.0237045  32.1974831  56.2657623  47.1865578  32.3195076  56.9530792
  49.3504410  31.9776039  57.0730171  49.1837578  30.9730339  57.4618073
  50.1924057  31.8962593  56.3855743  49.5337334  32.9412422  58.3002586
  49.4011116  33.9785767  57.9929314  48.4493141  32.7754593  59.3648796
  47.4568863  33.0820007  59.0344048  48.4575119  31.7174568  59.6269226
  48.6165886  33.3619537  60.2682877  50.8869095  32.6592751  58.9939194
  51.7468033  32.6296234  58.3247261  51.1364136  33.5677223  59.5421677
  50.8679314  31.7097816  59.5288925  48.0993309  33.4815178  55.4265137
  49.0184174  34.2901115  55.4938049  47.0815964  33.6598282  54.5462227
  46.2397079  33.1137886  54.6609917  47.1452904  34.7128220  53.4850998
  48.1396255  34.6413155  53.0443230  46.1132050  34.4211273  52.3791313
  46.3421783  33.4760818  51.8866158  44.6192589  34.2947998  52.8008575
  44.4836540  33.6613808  53.6774940  44.2494583  35.2943039  53.0296440
  44.0666161  33.8539352  51.9712067  46.1266060  35.4226837  51.4400291
  46.8903809  35.2154617  50.8966026  46.9732895  36.1000786  54.0660477
  46.2937775  36.3198776  55.0689163  47.6471558  37.0727348  53.5228195
  48.1776314  36.9750366  52.6689186  47.6279068  38.4416313  54.2066498
  47.2151756  38.5657883  55.2078171  49.1183739  38.9135628  54.1241760
  49.1087227  39.9507332  54.4592781  49.6881371  38.2543335  54.7790680
  49.6399040  38.9484329  52.6880188  49.6710739  37.9137383  52.3466530
  48.8896370  39.4121361  52.0475616  51.0852890  39.4959984  52.4801979
  51.5376053  39.1213112  51.5619812  51.1902657  40.5794868  52.4242325
  52.0439453  38.9836769  53.6907158  51.6595116  39.3384132  54.6469955
  51.8367691  37.9164391  53.7694244  53.4691086  39.1905327  53.4325371
  53.8670197  38.6415215  52.6839638  53.6635361  40.1580963  53.2177811
  53.9612579  38.9774513  54.2883911  46.6942329  39.4062500  53.4001312
  46.5529099  40.5763474  53.8150253  46.1408501  38.9259758  52.2600822
  46.4793777  37.9891434  52.0932198  45.2521820  39.6392441  51.3327370
  45.9162216  40.3724556  50.8749695  44.8432503  38.6773415  50.2532501
  45.7644920  38.2201805  49.8921204  44.4094887  37.7596359  50.6504555
  44.0559616  39.1211891  49.0278778  43.6580582  40.3370628  48.9054680
  44.3037682  38.4278259  47.9216576  44.5406456  37.4460602  47.9332771
  43.9365425  38.7589226  47.0409660  44.0766373  40.4559174  51.9285545
  43.2530174  39.8797188  52.6928139  44.0006523  41.7529564  51.5597610
  44.7510071  42.0837593  50.9701538  43.0399742  42.6939583  52.1755714
  42.6858101  42.3224030  53.1371460  43.7128410  44.1289177  52.4102631
  42.9340515  44.7688789  52.8250313  44.8965378  44.0420227  53.3703690
  44.7822189  43.2314949  54.0901489  45.8173180  43.8005867  52.8393555
  45.1651039  44.9532852  53.9047585  44.1520309  44.7649651  51.1723747
  45.0226021  44.4710236  50.8943405  41.8086929  42.8352890  51.3556709
  40.9637451  43.6771851  51.6424942  41.6608810  42.1256294  50.2139168
  42.3543701  41.5014534  49.8271675  40.4073334  42.1553192  49.4123993
  39.8793297  43.1036530  49.5122490  40.8554497  42.0828552  48.0137901
  41.4852791  41.2383575  47.7340736  39.9391823  41.9965820  47.4297371
  41.5797844  43.3860741  47.6658936  41.0446434  44.2490349  48.0621643
  42.5547714  43.3602486  48.1525421  41.6749268  43.6386719  46.1691475
  41.6724091  44.7762604  45.7210770  41.6256409  42.6508217  45.4168777
  39.4113159  41.0418091  49.7245750  38.2215195  41.1860275  49.4146194
  39.8573723  39.9687614  50.3932877  40.8352051  39.9368782  50.6441498
  39.0189934  38.9547920  51.0513344  38.1463661  38.8643036  50.4044724
  39.6287155  37.5853920  51.0612411  40.5986481  37.5355415  51.5560608
  38.9758987  36.9132729  51.6181946  39.7704620  36.9536819  49.6472626
  38.9683533  37.3007240  48.9958954  41.0467682  37.4555969  49.0157356
  40.8626099  38.4622269  48.6403770  41.8895226  37.5351295  49.7024231
  41.3723717  36.7803040  48.2244949  39.7496223  35.4994736  49.6574249
  39.9493675  35.0389900  48.6898727  40.5484085  35.1333618  50.3024101
  38.8019676  35.2567520  50.1382027  38.7049065  39.4047699  52.5154762
  39.6832047  39.3801422  53.3504028  37.5014381  39.4169044  52.9090843
  11.1103992  35.9891167  49.2431145  11.1656923  35.1801262  49.8452644
  11.6226320  36.8048630  49.5468826  10.1390133  36.2657127  49.2451897
  11.4456615  35.8239670  47.8895988  10.8082685  35.1174126  47.3579865
  11.2307434  37.1106720  47.1715546  10.1726513  37.3573608  47.2592239
  11.7142363  37.9616241  47.6513672  11.7678432  37.1665802  45.7486725
  11.6228476  38.1346741  45.2692261  12.8412819  36.9774780  45.7573280
  11.1048288  35.8529625  44.7101860   9.4498911  36.6110649  44.3623238
   8.7574806  35.9157410  43.8877640   8.9795990  37.0013046  45.2648964
   9.5464773  37.5314636  43.7864418  12.8540850  35.4259033  47.7651825
  13.7534304  36.2361679  47.7898140  13.1477127  34.1104279  47.7147484
  12.3564177  33.4911652  47.6124268  14.5174103  33.5706024  47.6843491
  15.1241865  34.2898979  47.1343155  15.0624571  33.4670525  49.0836792
  14.8878927  34.3966904  49.6253395  14.5236797  32.7355118  49.6858978
  16.6356926  33.2915649  49.0523643  16.8973541  32.4361229  48.4295845
  17.0404472  34.1729546  48.5549469  17.4360275  33.1769257  50.5982742
  18.6775227  31.8684692  50.2578392  18.2458096  31.1686554  49.5423088
  19.5001717  32.3926201  49.7714119  19.0658779  31.3559189  51.1379395
  14.6039486  32.2369041  46.8761673  13.6782579  31.4106083  46.9321251
  15.6874657  32.0634575  46.1014557  16.2925510  32.8715019  46.1336594
  16.0118465  30.7251453  45.5193558  15.1215487  30.3180466  45.0400391
  17.0614471  30.7728214  44.4323921  17.8387814  31.3718472  44.9067535
  17.5440063  29.3784142  43.9476395  17.8284607  28.6613750  44.7177353
  17.0087547  28.8809090  43.1388779  18.4595985  29.6944466  43.4477234
  16.6167126  31.5828209  43.2030106  15.6607704  31.2662182  42.7858315
  16.4886837  32.6254425  43.4939537  17.5542240  31.6082706  42.0349083
  17.3404369  32.4617653  41.3915253  18.5772114  31.8005428  42.3583755
  17.5144749  30.6978893  41.4368134  16.4081383  29.7145386  46.6656036
  17.2091198  30.0551147  47.5401764  15.8093033  28.4923382  46.6182480
  15.2508802  28.2797375  45.8039589  16.0082130  27.4716644  47.6538544
  16.9646454  27.7599583  48.0900078  14.8278809  27.5002327  48.6544228
  13.9173927  27.2875061  48.0941887  15.0032501  26.7617722  49.4367409
  14.6350136  28.7937508  49.3374901  14.7660637  29.6438389  48.6679573
  13.6211615  28.8412685  49.7349205  15.5466766  28.8980312  50.5451508
  15.5078201  28.0143585  51.1821060  16.4948692  29.0097809  50.0192757
  15.1754293  30.1316605  51.3207283  14.2491789  30.4924526  51.1418686
  15.8989773  30.7325726  52.2541885  17.0429935  30.2564640  52.6524773
  17.5481243  30.9382782  53.2002640  17.6231575  29.6738472  52.0658989
  15.3170443  31.7131500  52.8338509  14.3488731  31.9097176  52.6238251
  15.8124800  32.3583221  53.4325142  16.2554836  26.0416718  47.2664337
  15.9040852  25.7361012  46.1508293  16.8679905  25.2340393  48.0892410
  17.4693890  25.5912247  48.8178253  16.8631077  23.7614784  47.8261223
  16.8118839  23.6421680  46.7438850  17.7715912  23.3068981  48.2212448
  15.6907473  23.0026913  48.4762497  15.1539831  23.2672462  49.5621109
  15.2520790  21.8753605  47.7655869  15.7403822  21.6782684  46.9037209
  14.1796293  20.9916725  48.2199440  13.9717350  21.2441502  49.2597198
  12.7995644  21.1781292  47.4815521  12.9878426  20.7806206  46.4842377
  11.7015610  20.2322025  48.0506439  10.9206104  20.2077751  47.2906265
  12.1000061  19.2243328  48.1670036  11.3095989  20.5606308  49.0132446
  12.5321188  22.6952705  47.3750267  12.7689743  23.2128181  48.3046188
  13.2015905  23.0142879  46.5761909  11.0484581  22.8752289  47.0634003
  10.7909279  22.2754288  46.1904602  10.5594215  22.5675755  47.9876785
  10.8508224  23.9042282  46.7630730  14.6568937  19.5758209  47.9577522
  15.1575050  19.2876530  46.9228668  14.5084944  18.6304474  48.9054604
  14.0008659  18.8839302  49.7410202  15.0965090  17.3060894  48.8552246
  15.6945963  17.2131500  47.9487152  16.0203190  17.1475182  50.0424843
  15.5600443  17.5181656  50.9583817  16.2408123  16.0972424  50.2332878
  17.4012413  17.8796101  49.9311562  17.8005733  17.6977749  48.9333763
  17.2430363  18.9533157  50.0322914  18.4521790  17.3431892  50.8392868
  19.2971039  18.0262012  50.7515488  18.0777569  17.4124069  51.8606186
  18.7432938  15.9068394  50.4728355  18.5279675  15.5487051  49.5533371
  19.0861225  14.8649092  51.2300987  19.3474216  15.1253653  52.4544907
  19.5646172  16.0804653  52.7008934  19.5263901  14.3870630  53.1200562
  19.1675510  13.7370710  50.7101097  19.1041698  13.6302414  49.7077789
  19.2814217  12.8996544  51.2631607  14.0701799  16.1487274  48.9232368
  12.9584188  16.3336773  49.4067574  14.4398003  14.9254856  48.5252762
  15.2491302  14.8457537  47.9263344  13.7652426  13.7900105  48.9981537
  13.7787924  13.8217230  50.0876083  12.7640924  13.8935995  48.5797348
  14.4382620  12.4507399  48.6180229  15.2356892  12.3312435  47.6587448
  14.0823898  11.3542585  49.1982079  13.4017124  11.4131775  49.9420547
  14.5795527  10.0341320  48.8509598  15.0573664   9.9551144  47.8744621
  15.6788092   9.5985308  49.8910027  16.4883347  10.3240499  49.8110390
  15.2941294   9.6499529  50.9095688  15.9797735   8.5691032  49.6965599
  13.4768801   8.9381123  48.7045517  12.3443842   9.0948973  49.1344833
  13.9425230   7.8585258  48.0559464  14.7736454   7.9606500  47.4912300
  13.1611910   6.5999422  47.8129349  12.5898895   6.4033370  48.7201653
  12.2038317   6.7905231  46.6003876  11.6766739   7.7418604  46.6722336
  12.8429575   6.8878360  45.1965942  13.5304260   7.7291298  45.1087418
  13.3264141   5.9478650  44.9304619  12.0117035   7.0231524  44.5046349
  11.3565063   5.6672812  46.6065941  10.6694221   5.7895222  45.9473724
  13.9960995   5.3745279  47.5251350  15.2086296   5.5277348  47.3162003
  13.4396133   4.1038251  47.5693665  12.4305468   4.0622025  47.5570450
  14.1984482   2.8661563  47.1925812  15.1560278   3.1268783  46.7418442
  14.5968943   1.9270736  48.4184990  14.9871531   1.0059289  47.9857254
  15.5994024   2.6919577  49.2857895  16.5626030   2.8391864  48.7972527
  15.2635212   3.6897852  49.5679665  15.8120155   2.2103071  50.2402077
  13.5253735   1.6938154  49.3438873  13.0385389   0.9557145  48.9699898
  13.5300941   2.1201615  46.1123772  12.3181257   2.3523140  45.7375488
  14.2228851   1.1634854  45.4746552  15.2199068   1.2045132  45.6307449
  13.8132524   0.2658239  44.3582993  12.7580786   0.4613251  44.1672821
  14.6017094   0.6762799  43.0868187  14.1845846   0.0826017  42.2733917
  14.4116335   2.2004204  42.7454643  14.7384462   2.4373362  41.7329559
  13.3488178   2.3791463  42.5824280  14.8229599   2.9328837  43.4400215
  16.0718250   0.4700855  42.9360390  16.4529133   0.8978689  42.0087471
  16.5976334   1.0124354  43.7218361  16.1699810  -0.6153196  42.9549789
  13.9638309  -1.2012357  44.7939034  15.0391626  -1.6340648  45.2362823
  13.0014467  -2.0777159  44.6266594  12.1752539  -1.7890284  44.1225128
  13.1409025  -3.4799111  44.7980804  13.4295874  -3.5615246  45.8459816
  11.7640657  -4.1574659  44.5815277  11.3788481  -3.9356189  43.5862961
  11.8802929  -5.2352681  44.4677658  10.6836329  -3.9216063  45.6581726
  10.2389956  -2.9521222  45.4334488   9.9476843  -4.7249961  45.6258469
  11.2479563  -3.7627895  47.0825768  11.2419882  -2.6678305  47.6189117
  11.8178492  -4.7314978  47.6187859  14.1165991  -4.1432786  43.8048706
  14.7052298  -5.1705279  44.1327858  14.2272320  -3.5872152  42.5878830
  13.8520632  -2.6761274  42.3659210  14.7762117  -4.3176503  41.4326057
  15.5681696  -4.9904976  41.7615128  13.6219540  -5.0948873  40.7292824
  13.1083221  -5.6197171  41.5347862  12.9704275  -4.4168911  40.1779785
  14.1801128  -6.1017461  39.7093163  14.5365000  -5.7053828  38.7585373
  14.9841251  -6.6877227  40.1546211  12.9900436  -7.0785418  39.4717331
  12.5991478  -7.5256262  40.3857460  12.1940012  -6.5903454  38.9095230
  13.4740448  -8.1880713  38.5291748  13.6475067  -7.8901367  37.5798340
  13.5191460  -9.4458981  38.7734642  13.3507700  -9.9873810  39.9009705
  13.4620609  -9.3498440  40.6763802  13.6986532 -10.9227800  40.0562286
  13.7621193 -10.3275423  37.7976227  13.8427296  -9.8542471  36.9090271
  13.4643059 -11.2912083  37.8501015  15.4203959  -3.3383682  40.4388771
  14.8524504  -2.2975938  40.1292992  16.5966167  -3.6469371  39.9699478
  17.1382389  -4.4489293  40.2590065  17.2310677  -2.8065143  38.9147568
  17.1518822  -1.7484994  39.1646271  18.7364540  -3.2063861  38.8812714
  19.1554203  -3.3236098  39.8806839  18.8248119  -4.1538682  38.3496971
  19.6363697  -2.3345842  38.0468750  19.4454269  -1.1242309  38.0121880
  20.6395950  -2.8556695  37.5192909  16.4594803  -2.9496205  37.5066566
  16.7015133  -3.9060881  36.7624779  15.4591923  -2.1421387  37.2305832
  15.1471510  -1.4776549  37.9242668  14.6292143  -2.1268470  36.0543060
  15.3503408  -2.1168170  35.2370071  13.7325001  -3.3271730  35.9667168
  14.3557262  -4.2008133  35.7758026  12.8302479  -3.6241665  37.2715111
  12.1064758  -2.8207653  37.4086266  12.4281378  -4.6309476  37.1583786
  13.4398460  -3.5142627  38.1684036  12.8054209  -3.1543043  34.9293633
  12.7155542  -3.9893079  34.4642868  13.8081093  -0.9106063  35.9882774
  13.4916821  -0.3150645  36.9938316  13.3474674  -0.4413278  34.8190231
  13.7062311  -0.8998056  33.9936829  12.5352573   0.7815968  34.7460632
  13.1179380   1.6417763  35.0757217  12.1486664   1.0696052  33.3044052
  11.4569635   0.2950293  32.9732285  11.5528126   1.9784409  33.3885193
  13.3770409   1.3672186  32.3682823  13.1231127   2.1967142  31.7083111
  14.2509718   1.5650084  32.9889450  13.6406488   0.0745398  31.4860859
  13.2599316  -1.0975819  31.7466030  14.3956385   0.2482790  30.4943428
  11.1864929   0.7224924  35.5242424  10.7360048   1.7952783  35.9791374
  10.5719843  -0.4365169  35.6381721  11.0734749  -1.2105261  35.2264481
   9.2530251  -0.5658383  36.1952095   8.5535631   0.1168625  35.7127419
   8.7096272  -1.9724383  35.8415375   8.8616905  -2.0796914  34.7675400
   9.1195860  -2.7531238  36.4822922   7.2024088  -2.0496390  35.9648209
   6.8232026  -3.0683424  36.0456810   6.9014235  -1.5496304  36.8854218
   6.4151220  -1.3668450  34.7519264   6.4257150  -0.1573690  34.6623993
   5.7230096  -2.0809762  33.9670448   9.2751541  -0.3432439  37.7494278
   8.2289543  -0.1058359  38.3513565  10.4864340  -0.3743832  38.3265762
  11.2671204  -0.5526307  37.7110634  10.8404636   0.2478832  39.6479378
   9.8783102   0.3058656  40.1568680  11.7753134  -0.6804975  40.3444405
  12.5981026  -1.0202851  39.7154236  12.2566652  -0.0971946  41.1294022
  11.1046505  -1.8817509  41.0158501  10.6182489  -2.5037796  40.2644577
  11.8738537  -2.4569132  41.5312309  10.1573505  -1.4624311  42.0909386
  10.7211552  -0.9094754  43.0953560   8.9425840  -1.6686456  42.0702629
  11.4478788   1.6656102  39.4303627  10.8132772   2.6441603  39.7805557
  12.6223898   1.8803205  38.8160477  13.0480003   1.0127420  38.5223427
  13.5282030   3.0572646  39.0169525  13.6639118   3.2680168  40.0777397
  14.8731861   2.8068485  38.3804207  14.7093496   2.2908497  37.4343758
  15.6774406   4.1214647  38.0765839  15.1834030   4.8448539  37.4279404
  15.8588734   4.6202645  39.0286255  16.6196060   4.0122681  37.5394516
  15.6734056   1.7147795  39.2058372  16.0269260   2.1741030  40.1289520
  14.8974056   0.9840646  39.4338379  16.8564816   1.0666093  38.5324020
  16.6152611   0.4497800  37.6666985  17.4823284   1.8822492  38.1702576
  17.4391727   0.5709218  39.3088455  12.8656378   4.3124323  38.4651337
  12.6436605   5.2548323  39.2539940  12.4246035   4.2832828  37.2224960
  12.5771513   3.4012599  36.7546654  11.6079636   5.2672839  36.6207466
  12.0582952   6.2351990  36.8408394  11.6363745   4.9287500  35.1238174
  11.0386267   4.0481052  34.8887367  11.0837202   5.7727356  34.7110672
  12.9513512   4.7616034  34.3274002  13.4240513   3.7962048  34.5081215
  12.7716122   4.8692360  32.8058357  11.9277477   4.2517152  32.4981766
  12.5192661   5.9036283  32.5724831  13.6924887   4.5821567  32.2982216
  13.9601765   5.7841358  34.6655159  13.6190538   6.7323174  34.2499619
  14.0182705   5.9339886  35.7436028  14.9730577   5.5753107  34.3211899
  10.1853724   5.4779000  37.1937256   9.7491035   6.6193848  37.2688828
   9.5135679   4.4835687  37.7533264   9.9589653   3.5799153  37.6816711
   8.1916647   4.5862465  38.3826904   7.5535336   5.2432532  37.7917290
   7.4707470   3.2890866  38.4878120   7.4907784   2.6632788  37.5955887
   7.8383684   2.7059858  39.3321762   5.9719791   3.5601144  38.7974243
   5.7541089   4.2288818  39.6301270   5.5279155   4.2223811  38.0542488
   5.0922103   2.3079884  38.7965431   3.8944855   2.4461772  38.9935341
   5.5431490   1.0920932  38.6388702   6.5313644   0.8913492  38.5820122
   4.9548883   0.3000803  38.8551216   8.3943691   5.2452226  39.7807426
   7.8581133   6.3728466  40.0426712   9.3064308   4.7411270  40.6158409
   9.6416159   3.8217609  40.3658066   9.7518206   5.3578305  41.9372177
   8.9178152   5.4265590  42.6356544  10.8851871   4.5111065  42.5641708
  11.6931286   4.3011689  41.8632736  11.2451067   4.9222240  43.5073280
  10.3376322   3.1599710  43.0186501   9.8755589   2.7044039  42.1428375
  11.1576853   2.5592477  43.4120369   9.4059658   3.2454545  44.2732582
   9.9493122   3.7797976  45.0525856   8.5427580   3.8907406  44.1102333
   8.8791952   1.8424129  44.6208763   7.9683032   1.9001367  45.2167320
   8.4238882   1.4293709  43.7207680   9.9403896   0.9016101  45.1259499
   9.6851339   0.2700379  45.8716431  10.3610582   0.4039874  44.3542519
  10.6201038   1.4633490  45.6184311  10.2269344   6.7385526  41.8068390
   9.7531786   7.5560632  42.5681496  11.0500231   7.1060543  40.7656822
  11.3560677   6.3420539  40.1802406  11.4712505   8.5334787  40.5734024
  11.9337902   8.8532887  41.5071449  12.6346779   8.7064991  39.5598106
  12.1972542   8.3322449  38.6342316  13.3040934  10.0642672  39.5684624
  14.1275644  10.0980844  38.8551254  12.6517859  10.8285370  39.1459846
  13.6161289  10.3140202  40.5825386  13.6076317   7.7465110  39.8675995
  13.3294134   6.8502693  39.6652489  10.2922401   9.4449158  40.2323494
  10.1325102  10.4730101  40.9322586   9.3688679   9.0738993  39.3075600
   9.4426079   8.1207399  38.9817543   8.0944471   9.7506456  39.0911446
   8.2713394  10.7782516  38.7736015   7.3869400   9.1155386  37.9551620
   8.0336103   9.2263050  37.0847321   7.2340994   8.0689774  38.2187157
   6.0270109   9.7013092  37.4779015   5.2267776   9.3406763  38.1241760
   6.1603007  10.7830038  37.4943466   5.7163849   9.2335711  36.1029930
   6.4963622   9.6100445  35.4411736   5.8546848   8.1647320  35.9400330
   4.3520541   9.6273127  35.5677872   3.6548200   8.8894892  35.9647522
   4.2093558  10.6231995  35.9872475   4.2098384   9.7252388  34.0966072
   3.3351846  10.1527901  33.8277550   4.8483629  10.3675585  33.6495972
   4.4010563   8.8250866  33.6803589   7.2658434   9.9157267  40.3361549
   6.7475362  10.9579649  40.6638489   6.9574404   8.8114119  41.0626030
   7.2649698   7.9296708  40.6778183   6.0374160   8.6066570  42.2313118
   5.0068765   8.9161959  42.0573082   5.9631395   7.0309019  42.6232376
   6.9592190   6.6305847  42.4343605   5.7267189   6.9972749  43.6867561
   4.8432627   6.2535920  41.8346977   3.9753387   6.9102025  41.7741089
   5.1882114   6.1158566  40.8099327   4.5139327   4.8644619  42.3049202
   4.8827882   4.3623934  43.3479767   3.9066243   4.0687294  41.4260406
   3.6577513   4.4974566  40.5460625   3.7978632   3.0692313  41.5223427
   6.6055245   9.4131994  43.3993835   5.8706436   9.8808250  44.2922401
   7.9389472   9.5793762  43.5201035   8.5583448   8.9678030  43.0078316
   8.5994940  10.5110588  44.4872322   8.0617867  10.4042168  45.4293365
  10.0511169  10.0975389  44.6715927  10.0246096   9.0403442  44.9356728
  10.5642586  10.0091429  43.7140083  10.9050884  10.9334049  45.6521187
  10.7686672  11.9190607  45.2071800  10.4813023  10.9261045  47.1225739
  10.4310865   9.8653955  47.3685112  11.2654533  11.4190073  47.6972504
   9.4964180  11.3761492  47.2473297  12.3712149  10.5116444  45.5180779
  12.9525709  10.9492321  46.3296509  12.2540655   9.4336023  45.4076233
  12.7423105  10.8908834  44.5659409   8.3806849  11.9805574  44.0861244
   7.6984506  12.6923256  44.7868500   8.8364801  12.3591518  42.9093475
   9.1597042  11.7103901  42.2059708   8.6157379  13.7315884  42.5550117
   9.0919704  14.4536915  43.2182388   9.2377663  13.9990559  41.1908722
   8.7440519  13.3957710  40.4290352   9.1535997  15.0399132  40.8784103
  10.7605352  13.8505182  41.2568092  11.0477638  12.9575806  41.8120232
  11.3871479  13.6975470  39.8141861  11.1050186  14.5456028  39.1902390
  12.4734268  13.6076746  39.8188324  11.0362959  12.7882948  39.3260612
  11.5238771  15.0553989  41.8266449  11.3926811  15.8645802  41.1082382
  11.1173382  15.3987131  42.7779388  12.5722799  14.7575483  41.8113823
   7.0932293  14.2162952  42.3909988   6.7318959  15.3862267  42.5411339
   6.2022777  13.2881203  42.0606270   6.5461826  12.3812160  41.7789268
   4.7616301  13.5513582  42.0502815   4.4246573  14.2821608  41.3151093
   4.0187173  12.3047810  41.6233253   4.4214301  12.0709333  40.6378098
   4.3674393  11.5495119  42.3276405   2.4464483  12.4585714  41.7671051
   1.9799227  11.4784584  41.6679420   2.2355921  12.6432419  42.8204498
   1.8414770  13.4476948  40.7747803   1.9932554  13.3936634  39.5519714
   0.9722913  14.2204542  41.2421112   4.2757001  14.0560560  43.4656754
   3.6351335  15.0645361  43.5290184   4.6364603  13.3888979  44.6396637
   5.0337386  12.4786549  44.4560127   4.3605514  13.8931942  46.0157471
   3.2955508  14.1250792  46.0055428   4.8149829  12.7779980  46.9599037
   4.2859664  11.9020195  46.5845222   5.8755479  12.6479111  46.7445450
   4.3726039  13.0182247  48.4304276   5.0907831  12.5109959  49.0746613
   4.3209219  14.0732136  48.6995621   3.0050831  12.3746948  48.6685295
   2.3049235  13.0373487  48.1598396   2.8904526  11.4177294  48.1594391
   2.6401310  12.1689358  50.1786423   3.3044014  11.3854742  50.5433769
   2.9287231  13.0494099  50.7527351   1.1676598  11.8874359  50.3521652
   0.8727706  11.9443884  51.3164787   0.5863231  12.4912539  49.7886467
   0.9370368  10.9702044  49.9977646   5.0764422  15.1842909  46.2873955
   4.4711957  16.1217442  46.8200188   6.3587251  15.2092457  45.9057198
   6.7788811  14.3664255  45.5407219   7.1885176  16.3961639  46.0837326
   7.2315927  16.6188698  47.1498680   8.6412315  16.1442013  45.5896492
   8.5207272  15.7424660  44.5835724   9.4939241  17.4984493  45.4504242
  10.4455204  17.1454659  45.0529633   9.0805082  18.1002254  44.6410713
   9.6077185  17.9753723  46.4239235   9.4639416  15.1144419  46.3831329
   9.7007008  15.5337152  47.3610191   8.8487186  14.2311058  46.5543671
  10.7752151  14.6671829  45.7775040  10.5220833  14.5520144  44.7235756
  11.5395241  15.4131126  45.9954987  11.1033850  13.7466507  46.2602310
   6.5022616  17.6889801  45.4674530   6.4383240  18.7354851  46.1044464
   5.9746418  17.6091976  44.2433243   6.1767936  16.7993526  43.6746521
   5.2921290  18.7454414  43.5008926   5.9314666  19.5992355  43.7253723
   5.3609362  18.5232964  42.0261002   4.9994702  17.5287380  41.7647667
   4.5436921  19.5567150  41.2394600   4.7522111  20.5798721  41.5521545
   4.7541695  19.4603424  40.1743240   3.4693906  19.4861851  41.4097595
   6.8473620  18.7219257  41.6385956   7.1502562  19.7589684  41.4940300
   7.5300446  18.4496651  42.4435310   7.1776652  17.9932060  40.3062096
   8.2309685  18.1229992  40.0575981   6.9419999  16.9351635  40.4207077
   6.6397252  18.3749046  39.4384384   3.8797925  18.9100857  44.0611572
   3.4599364  20.0548401  44.2054520   3.1726532  17.8504333  44.4532967
   3.5459456  16.9174767  44.3516006   1.8840078  17.9595909  45.1588669
   1.3489617  18.5899982  44.4486465   1.3110890  16.5972118  45.3397331
   1.0984929  16.2407818  44.3318367   2.0711126  15.8533649  45.5788040
   0.0966988  16.4467888  46.2583618  -0.2175496  15.4033194  46.2812004
   0.4394937  16.7951279  47.2326546  -1.1056443  17.3410378  45.7727661
  -1.9490643  17.6919174  46.6631927  -1.2333183  17.6849842  44.5343628
   2.0914555  18.7649097  46.5118599   1.2434429  19.5408649  46.9527092
   3.2403138  18.5754051  47.1125984   3.8717570  17.9075794  46.6938057
   3.5747745  19.1616936  48.4327812   2.7000172  19.1984215  49.0820503
   4.5970807  18.1850872  49.0784645   4.2168307  17.1637611  49.0583534
   5.5348172  18.1770039  48.5228691   4.9478178  18.5950432  50.5657082
   5.9706244  18.3709049  50.8685760   4.9728360  19.6783981  50.6832466
   3.9566736  18.1340332  51.6448097   3.3773923  19.0768700  52.2525711
   3.8890765  16.8726635  51.9870300   4.1193781  20.5851879  48.3790779
   3.5402803  21.5204239  49.0292664   5.0591083  20.8861008  47.5006523
   5.3503141  20.1985855  46.8204880   5.7276249  22.1878815  47.3846855
   5.4336662  22.7217026  48.2884178   7.3031607  22.0416088  47.3417320
   7.5025344  21.3366203  46.5346718   7.9095974  22.9084206  47.0791054
   7.9355645  21.3372574  48.5986404   8.4576540  21.9477177  49.5186157
   7.9236865  20.0172176  48.6023788   8.1523752  19.5359840  49.4604111
   7.3792157  19.5844498  47.8700066   5.2847586  23.0281086  46.2223244
   5.6732330  24.2180710  46.2104187   4.3840508  22.5342541  45.3852730
   4.0827661  21.5702839  45.3946953   3.7419991  23.3286018  44.2672348
   3.1788690  22.5659466  43.7293205   2.6662881  24.3103924  44.7660637
   3.0798399  25.0587234  45.4421387   2.1899450  24.8265648  43.9325409
   1.6018624  23.6393642  45.6119843   0.9694955  22.4106026  45.5051994
   1.0992889  21.7786808  44.7280693   0.0620541  22.2881165  46.5066910
  -0.6517720  21.4778767  46.4875755   0.0109426  23.4169807  47.1900253
  -0.6164499  23.6566563  47.9443703   0.9943376  24.2459011  46.7053986
   1.2273750  25.2526779  47.0192451   4.7436848  23.9527092  43.3376846
   4.5058270  24.9799767  42.7370834   5.9591451  23.3945236  43.0653992
   6.1829009  22.5815792  43.6214256   7.0441890  23.9557457  42.1708832
   7.1608477  25.0137577  42.4056244   8.4134741  23.2579536  42.4738426
   9.1823578  23.5004902  41.7402878   8.9440975  23.6253853  43.8442612
   8.2185774  23.2250004  44.5523720   9.8961334  23.1369495  44.0520058
   9.1300125  24.6992073  43.8232117   8.2057133  21.8966408  42.4675751
   7.5702534  21.6842880  41.7800446   6.7057381  23.7786884  40.7076225
   6.2699223  22.7003880  40.2846680   7.0197482  24.8378773  39.8880119
   7.1234021  25.7453747  40.3190613   6.8680105  24.8046951  38.4341469
   6.1901541  23.9678745  38.2657776   6.1599312  26.0179157  37.9769936
   6.6658826  26.9489784  38.2324104   6.0992813  25.9952087  36.8889198
   4.6819921  25.8919449  38.4014854   4.2522645  24.9735527  38.0014954
   4.6819301  25.7998524  39.4875870   3.7621291  26.9958992  37.9727936
   3.6432071  27.0736504  36.8920937   2.8063686  26.8914242  38.4863205
   4.3401871  28.2693806  38.5474205   4.4350448  28.1756725  39.6292343
   5.3927941  28.3785744  38.2862740   3.6141150  29.5242310  38.0791855
   3.8623364  30.3638191  38.5827522   3.8718095  29.7267723  37.1238441
   2.6044886  29.5197144  38.0520935   8.2096033  24.5963612  37.7380028
   9.1281090  25.2340450  38.1677856   8.3060045  23.7342796  36.6861420
   7.1473389  23.1311760  35.9550095   6.3565192  23.8464832  35.7290955
   6.7022061  22.3106804  36.5178108   7.7905550  22.6974392  34.6196442
   7.8411760  23.5013027  33.8852463   7.2446871  21.9148407  34.0926971
   9.1706018  22.2276096  34.9938583   9.8682919  22.2032833  34.1567612
   8.8903732  21.2637768  35.4188385   9.5630989  23.2915993  36.0699768
  10.1075258  22.6952171  36.8021164  10.4875002  24.4255962  35.5758133
  11.7142973  24.4694710  35.7810249   9.8501682  25.4601765  35.0214958
   8.8412161  25.4263115  34.9903831  10.3580647  26.7510605  34.4967041
  10.9467192  26.6774940  33.5822792   9.2208633  27.5833187  33.9843407
   8.5884018  27.7678337  34.8527031   9.5967407  28.5818977  33.7615051
   8.4094515  26.9193802  32.8548965   8.2958860  27.6611767  32.0643654
   8.9255781  26.0746613  32.3986473   7.0427580  26.3903675  33.2141113
   6.0955358  26.2085972  32.4311371   6.9143844  26.1108246  34.4140968
  11.1612864  27.5211353  35.5344238  12.1557865  28.1834106  35.2871017
  10.6525860  27.4580364  36.7945442   9.9991245  26.7383938  37.0687752
  11.2636909  28.1969948  37.9599953  11.6704569  29.1359825  37.5845680
  10.2736654  28.5257244  39.0627670   9.8251991  27.6221066  39.4756279
  10.7880669  28.9692574  39.9152756   9.0740089  29.3920746  38.6355324
   8.0413179  29.2781754  39.3956375   9.1202745  30.2382069  37.7443352
  12.5112209  27.4384518  38.5015526  13.1514177  27.8102264  39.4761009
  12.8296566  26.2413254  37.9794197  12.4134312  25.9276333  37.1142845
  13.8312130  25.3862247  38.5785065  13.9592810  25.6434040  39.6299667
  13.3519468  23.8655739  38.5087204  13.0806398  23.6670818  37.4718552
  14.4118071  22.8395386  38.9550629  15.3235407  22.9773140  38.3738022
  14.5404902  22.8569641  40.0373001  14.1243076  21.8348751  38.6450653
  12.1446161  23.6520061  39.4526596  12.4636488  23.6435432  40.4948921
  11.4449339  24.4784851  39.3282433  11.7079372  22.6938362  39.1710205
  15.1694574  25.5443153  37.8899002  15.2562437  25.3018360  36.6711502
  16.1998863  25.9783134  38.5971909  15.9325304  26.0601025  39.5677223
  17.5758266  26.3186436  38.2207260  17.5559406  27.1053925  37.4665833
  18.3727322  26.9551525  39.3564873  18.4142094  26.2391624  40.1773033
  19.8213558  27.1659565  38.8930702  20.2492638  26.1776581  38.7249680
  19.8188801  27.8413467  38.0375328  20.4951878  27.6563759  39.5955925
  17.7945042  28.2372799  39.9406586  18.4465580  28.5567780  40.7535858
  17.6785984  29.0282211  39.1996613  16.8491344  27.9072037  40.3712578
  18.2468834  24.9467850  37.8711472  18.7543793  24.9212322  36.8156090
  18.2308598  23.9130898  38.7151947  18.0808964  24.0246334  39.7077522
  18.6633835  22.5631657  38.4176369  18.4177151  22.3125439  37.3856812
  20.1867046  22.3399906  38.4723549  20.5217724  21.5158844  37.8425293
  20.6603451  23.2554588  38.1178284  20.7159443  22.0474625  39.8647690
  20.2577782  22.6613426  40.6402245  20.6972923  20.9912663  40.1334724
  22.1816788  22.2588634  40.0904846  22.6926270  22.9286766  40.9930267
  22.9722996  21.6346207  39.3172226  23.9579716  21.6417942  39.5374565
  22.5549488  20.9615002  38.6904678  17.8803711  21.5734215  39.2700958
  17.3391113  21.9185371  40.3330116  17.9957924  20.3054886  38.8098907
  18.3688431  20.1353912  37.8868523  17.7651596  19.0945950  39.7062492
  17.4447918  19.3468685  40.7171021  16.6544323  18.2047596  39.0225906
  15.7698517  18.8410034  38.9941521  16.8883190  18.0115795  37.9756546
  16.2431717  16.9315128  39.7088737  17.0460243  16.1957321  39.6624565
  16.0459995  17.2144051  40.7428932  14.7509661  16.0241928  38.9850502
  13.4231024  17.1421108  39.5192642  13.6177473  18.1278248  39.0966759
  12.4937429  16.8210907  39.0487976  13.4008799  17.2539177  40.6032867
  19.0329094  18.2978687  39.7717743  19.7173481  18.2285309  38.7499123
  19.3599892  17.6557789  40.9281769  18.7371197  17.8258495  41.7048416
  20.5085583  16.6874619  41.0587997  20.9471970  16.5239639  40.0744362
  21.7136822  17.1612682  41.9119530  21.4197083  17.2628098  42.9566383
  22.4869728  16.3941631  41.8710632  22.3567123  18.4498119  41.4060211
  21.6892567  19.3043423  41.2947540  23.4541035  18.8948441  42.3469658
  23.8079033  19.8141460  41.8802567  23.0730495  19.0116539  43.3614845
  24.2561054  18.1627121  42.2527428  22.9735451  18.2614212  40.0285492
  22.2356758  18.3367500  39.2298164  23.8378792  18.9077454  39.8759346
  23.4024220  17.2595215  40.0095444  20.0098877  15.3121920  41.5795593
  19.1330166  15.2553883  42.4476700  20.5612698  14.2250051  41.0588531
  20.9690590  14.3378019  40.1417465  20.1331730  12.8611841  41.4036598
  19.3314552  12.7776852  42.1374054  19.5519199  12.2382278  40.1295547
  20.2580643  12.4724836  39.3329468  19.4142475  11.1687469  40.2887955
  18.1832886  12.8052340  39.5672951  18.2849159  13.8669653  39.3425598
  17.8660278  12.0696735  38.2607651  17.6565819  11.0435591  38.5629730
  16.9894295  12.4895067  37.7673950  18.6358414  12.1255980  37.4911194
  17.0644283  12.5863667  40.6194115  16.0919971  12.9044743  40.2435303
  17.0468884  11.5294552  40.8853836  17.2960911  13.1888084  41.4977608
  21.2223530  11.9087763  41.8756905  22.3914909  12.0306997  41.4807014
  20.8950710  10.8782415  42.6499977  19.9853573  10.7738171  43.0761642
  21.8492031   9.8871202  43.0744400  22.8148232   9.9457207  42.5722008
  22.1096420  10.1055984  44.5552864  22.4594269  11.1331787  44.6544304
  21.1879044  10.0177927  45.1304321  23.0576077   9.1135759  44.9127922
  22.5773354   8.3369608  45.2091217  21.3067436   8.4999886  42.8115997
  20.0659676   8.3317347  42.8217010  22.2098675   7.5134525  42.6996613
  23.1796780   7.7659450  42.5739098  21.8362923   6.1070919  42.6676025
  20.8759842   5.9282804  43.1512718  21.5885067   5.6311898  41.2185211
  21.1132526   4.6644769  41.3849564  20.9801426   6.3245306  40.6377716
  22.5655937   5.4557724  40.7683678  22.9114552   5.3271818  43.4203186
  24.1596184   5.5372095  43.2830734  22.4787693   4.2028813  44.0570374
  21.4990826   3.9587412  44.0303841  23.4682941   3.3798010  44.8389664
  24.0567684   4.1836987  45.2811775  22.8461552   2.5155358  45.9590340
  23.5704041   1.7750622  46.2985420  22.5071182   3.4919956  47.1368332
  23.3991184   3.7724473  47.6969986  22.0573082   4.3900619  46.7134552
  21.7320614   3.0885501  47.7884674  21.6315708   2.0094790  45.6070786
  21.7699833   1.1125587  45.2940636  24.3670292   2.3982704  43.9437180
  23.8588657   1.9630735  42.9243927  25.5997639   1.9915844  44.2843170
  26.2517872   2.6446817  45.4121590  25.8667984   2.2166202  46.3377151
  26.1037369   3.7225657  45.3462257  27.7523346   2.2793489  45.2459068
  28.2117596   2.3248355  46.2333069  28.3182182   2.9419110  44.5910149
  27.6529846   0.8768603  44.6027794  27.2329597   0.1101480  45.2538033
  28.5552158   0.4671797  44.1486359  26.4940357   1.0392619  43.5935516
  26.8671570   1.5377172  42.6988869  25.9275684  -0.3473237  43.1204147
  26.6978436  -1.0912086  42.5704880  24.6489258  -0.6796089  43.3772202
  24.1163292  -0.0161669  43.9215393  23.8232403  -1.9027703  42.9753914
  24.4622307  -2.7682505  42.8000793  23.0311165  -2.4158661  44.1554070
  22.1846256  -3.0369990  43.8625793  23.7780380  -3.0501199  44.6328354
  22.5275154  -1.4540081  45.2723732  21.9608631  -0.4525962  44.7836647
  22.4547901  -1.8562025  46.4533272  23.0359020  -1.6891856  41.6636429
  22.7685223  -2.6660814  40.9778175  22.7540302  -0.4357960  41.2908554
  23.0437946   0.3346651  41.8761139  21.8159733  -0.0776091  40.1915817
  21.2320595  -0.9489822  39.8951721  20.8692474   1.0158197  40.5535393
  21.4567204   1.9156271  40.7360802  20.1435661   1.1558839  39.7523689
  20.1097088   0.8123667  41.8529091  20.8129902   0.9433328  42.6753120
  19.1106319   1.9200935  42.0342102  18.4976540   1.8268718  42.9306831
  19.5175114   2.9306481  41.9977455  18.4634609   1.9056281  41.1572495
  19.3788929  -0.5251712  41.9297142  20.0461273  -1.3623503  42.1347427
  18.6468487  -0.4507439  42.7338753  18.8202686  -0.6918014  41.0086975
  22.6320992   0.3043692  38.9631729  23.4147282   1.2335734  39.0290031
  22.2893791  -0.3629737  37.8070335  21.5742073  -1.0597270  37.9592285
  22.9794655  -0.1587308  36.5324402  23.2911148   0.8856761  36.5185318
  24.1594162  -1.1403334  36.5073471  23.8612518  -2.1805484  36.6383133
  24.7141857  -1.1200862  35.5693054  25.0803146  -0.9512693  37.6991997
  25.8535004   0.2049238  38.0642166  26.0527763   1.0022658  37.4771576
  26.4121666   0.0432732  39.2587051  27.1200180   0.6781710  39.7708092
  26.0016747  -1.1521295  39.7646523  26.2631130  -1.5383369  40.6605301
  25.2331982  -1.7657248  38.7868271  24.7003613  -2.6969211  38.9107552
  22.2013283  -0.2224859  35.1972198  22.7954960   0.0730048  34.1776695
  20.9215565  -0.6210046  35.1947174  20.5362339  -0.8632569  36.0963478
  20.0798779  -0.9275596  34.0555801  20.6893978  -1.5396558  33.3908043
  18.8909016  -1.7756449  34.4586639  18.2572365  -1.7754917  33.5717697
  19.2254257  -2.8072038  34.5685806  18.4153481  -1.3677663  35.3506165
  19.6456985   0.2900297  33.1777611  19.5234814   0.1538547  32.0029068
  19.4150372   1.4667094  33.8235130  19.6647491   1.5474945  34.7988167
  18.8318214   2.6192768  33.1768265  19.1498146   2.6489878  32.1346664
  17.3064766   2.6391127  33.3313637  16.8796120   1.6919904  33.0014420
  16.8228798   2.7247732  34.7997704  16.8450966   3.7399778  35.1959610
  15.7791681   2.4316490  34.9131088  17.3800983   2.1009419  35.4986572
  16.6551895   3.8062558  32.6315727  17.0649719   3.7324440  31.6242390
  15.5790720   3.6414077  32.5777740  16.9440651   4.7883582  33.0058975
  19.4064846   3.8770597  33.8455162  19.6128731   3.8729069  35.0727577
  19.5260830   4.9393282  32.9940529  19.1522923   4.8296466  32.0621986
  19.8090706   6.3511519  33.3456879  20.7908325   6.3583570  33.8191757
  19.9599628   7.1595345  32.0226669  19.2378826   6.8456106  31.2689075
  19.6087723   8.1603127  32.2740936  21.3068104   7.2910180  31.2956581
  22.5223598   7.6271639  31.9333000  22.4696941   7.7353163  33.0065804
  23.7224655   7.8287306  31.2267418  24.6053200   8.1451426  31.7623272
  23.7648525   7.6233044  29.8244762  24.6641121   7.7573686  29.2415886
  22.5765114   7.2416635  29.1792488  22.5283623   7.0217853  28.1229649
  21.3518963   7.0470862  29.9438267  20.4614620   6.8025060  29.3837318
  18.6814671   6.9152250  34.2885742  17.6158695   7.3146286  33.7495804
  18.8355026   7.1348233  35.5907555  19.9885731   6.7190795  36.3953171
  20.6077347   7.6104093  36.4966621  20.4773102   5.8499851  35.9549599
  19.3098907   6.4282198  37.7884026  20.0415325   6.5645638  38.5847740
  18.8966141   5.4197392  37.7720032  18.1138821   7.4172568  37.9125862
  18.5223961   8.3569889  38.2842369  17.3407097   6.8582439  38.4396591
  17.6855049   7.5718269  36.4683418  16.8920593   6.8599248  36.2408829
  17.1646996   9.0365858  36.1134605  15.9529390   9.2519855  36.2136574
  18.0264931   9.8194027  35.4221039  18.9406147   9.4987450  35.1363373
  17.6954212  11.1655407  34.8969727  17.2052460  11.6593046  35.7360420
  18.9975452  11.8381844  34.3429909  19.8465652  11.5491362  34.9624405
  19.1375008  11.5092602  33.3132744  18.9235573  12.9226837  34.2624779
  16.5359745  11.0594091  33.8042221  15.8201141  12.0531292  33.5871239
  16.3330803   9.8936281  33.0991478  16.9286156   9.1090746  33.3225632
  15.2447424   9.6308403  32.1852798  15.4190950  10.2454109  31.3021030
  15.1648102   8.1838503  31.6119614  15.2614298   7.4462714  32.4086685
  14.2269478   8.1247559  31.0596733  16.3058052   7.7888780  30.5783672
  16.2294254   8.4829979  29.7414303  17.2252808   8.0176210  31.1172047
  16.3227386   6.3312316  30.0127964  17.3124790   6.1574817  29.5905094
  16.1366100   5.5938225  30.7936172  15.1988106   6.1219244  29.0027866
  14.2853413   5.9620662  29.5756035  14.9842463   6.9878359  28.3764801
  15.4382086   4.8916245  28.2594643  15.6968145   4.1943231  28.9428329
  14.5948792   4.5126138  27.8529568  16.1133995   4.9652972  27.5119419
  13.9154854  10.0111361  32.7483406  13.2130146  10.7262325  32.0596352
  13.5494881   9.6329203  33.9793472  14.1293821   8.9748955  34.4801712
  12.2754908   9.9095201  34.6552200  11.4317274   9.3613052  34.2361488
  12.2536125   9.2014647  35.9541893  12.3363295   8.1297712  35.7732620
  13.0271711   9.5264750  36.6499443  11.3327475   9.3350363  36.5218811
  11.8551702  11.3745365  34.8612785  10.6837864  11.7435532  35.0575409
  12.8291588  12.2585402  34.7379608  13.6818504  11.9234610  34.3128242
  12.5534782  13.6936760  34.7591324  11.7680397  13.8857450  35.4900932
  13.7021933  14.6034451  35.0558777  14.3783741  14.6456947  34.2020073
  13.3638697  16.0878143  35.2629776  12.9907179  16.4969826  34.3241234
  12.5663614  16.0878086  36.0060005  14.2519951  16.5857525  35.6520691
  14.4717779  14.0478582  36.2427940  15.0877209  13.2446375  35.8383713
  15.1400089  14.8131351  36.6376572  13.7843122  13.7228689  37.0237389
  11.8350239  14.1069231  33.4256020  10.9852409  15.0390005  33.4726906
  12.0423899  13.3916521  32.3105736  12.6590910  12.5923347  32.3401108
  11.2529173  13.5283041  31.1308098  11.1252213  14.5889616  30.9144783
  12.0463734  12.9354181  29.9233360  11.9948931  11.8487921  29.9918613
  11.5933352  13.1448135  28.9543114  13.4717770  13.4740334  29.8907681
  13.3450518  14.5333061  29.6672020  14.0135317  13.2558022  30.8110847
  14.3212214  12.8732328  28.7479782  14.5377598  11.8419409  29.0266304
  13.8844366  12.9432163  27.7517719  15.5777922  13.6164904  28.6530361
  15.5163689  14.4775667  29.1773281  16.6944962  13.2452717  28.1547737
  16.8750954  12.1464567  27.4745350  16.1468430  11.4797363  27.2618580
  17.7831192  11.8467731  27.1492958  17.6698685  14.0929337  28.3363628
  18.4697094  13.9846354  27.7292156  17.4730587  14.9274788  28.8701229
   9.8373089  12.8497458  31.2152367   8.9774914  13.0226383  30.2948093
   9.5227661  12.0893612  32.2642021  10.2010107  11.8403425  32.9699478
   8.2547455  11.4460211  32.5365562   7.6898875  11.2669411  31.6216965
   8.6024704  10.0144625  33.1049080   9.2156372  10.1909103  33.9886475
   7.6684260   9.4953756  33.3198700   9.4953308   9.1887360  32.1770401
  10.3763561   9.7383337  31.8456230   9.7109871   8.3384590  32.8240509
   8.8330841   8.6417370  30.8995190   9.3949070   7.6802163  30.3783913
   7.7485561   9.1072464  30.4884872   7.2675056  12.2877693  33.3691521
   6.1999478  11.7784491  33.6298370   7.6128845  13.5654449  33.7105713
   8.4999352  13.9199705  33.3826180   6.6649714  14.5248108  34.3180771
   5.7122340  14.0161304  34.4651680   6.9825530  15.0103951  35.8071594
   7.9138355  15.5567932  35.6579399   6.1991487  15.7137041  36.0895309
   7.1229467  13.8058300  36.8687286   6.4811749  13.0172386  36.4758453
   8.6240921  13.4008045  36.9754562   9.2408209  14.2637720  37.2265015
   8.8418169  12.4436007  37.4492264   8.9283981  13.2106791  35.9462090
   6.6348543  14.2256832  38.1883469   6.6822567  13.4844933  38.9861488
   7.2800627  15.0270710  38.5483246   5.6212735  14.6183128  38.1070747
   6.4595990  15.7343845  33.3664932   7.3787193  16.0338497  32.5265503
   5.2481976  16.3111610  33.3016472   4.5436454  15.8792486  33.8822975
   4.7644305  17.3592529  32.4132881   4.8957973  16.9534225  31.4102211
   3.3034549  17.5632305  32.6231842   2.7958829  16.6300507  32.8674126
   3.2557528  18.3035431  33.4217834   2.7102923  18.0914993  31.4600124
   2.4137599  18.9856796  31.6447029   5.6663756  18.5980873  32.4064903
   5.7369909  19.3192482  33.3886185   6.4316463  18.8182888  31.3222370
   6.3714871  18.1473789  30.5696640   7.2879839  19.9606247  31.1043053
   7.4354134  20.0830631  30.0312843   6.8700953  20.7870598  31.6791744
   8.6850204  19.8484821  31.6693840   9.5677776  20.5352058  31.3118725
   8.9060230  18.7721081  32.4780540   8.0766153  18.3344917  32.8531189
  10.1622562  18.5139809  33.1573105  10.4700575  19.4870701  33.5400124
   9.9072952  17.5863380  34.3807297   9.3977327  16.6770706  34.0618553
  10.8559484  17.3537693  34.8645363   9.1226902  18.2119198  35.4976616
   7.7898993  18.2967682  35.5968094   7.0855746  17.7876987  34.9555779
   7.5105753  18.9475231  36.7802505   6.6298032  18.8511944  37.2650833
   8.6481390  19.4445820  37.3214684   8.8623800  20.2215462  38.4687080
   8.0321541  20.6688938  38.9950218  10.2097034  20.5024166  38.8929672
  10.4305601  21.0555058  39.7939186  11.2583485  19.8721027  38.2264824
  12.2388239  19.9928493  38.6629333  11.0033665  19.0967407  37.0801125
  11.8424702  18.6485214  36.5688286   9.7347441  18.9131031  36.5533218
  11.3016720  18.0749512  32.2730827  12.4537554  18.2372570  32.6568451
  11.0830879  17.5031414  31.0771255  10.1355801  17.4122124  30.7393951
  12.1439562  17.1959724  30.1064568  12.5878401  16.3377457  30.6109486
  11.6217899  16.8128319  28.7480812  12.5250940  16.5193901  28.2132607
  10.9887571  15.9335270  28.8672237  10.8990850  17.9088535  27.9004116
  10.0118122  18.1723042  28.4761219  11.4792624  18.8243866  27.7851200
  10.3136568  17.5274525  26.4909210  10.0256376  16.3958035  26.1836853
  10.0778923  18.4512901  25.6010761  10.4054365  19.3821869  25.8161297
   9.6186943  18.2787552  24.7182007  13.1290340  18.3739433  29.8230076
  14.2928858  18.1726303  29.4949474  12.6624298  19.6070385  29.9740200
  11.6694050  19.7589951  30.0784740  13.4498596  20.8546352  29.7366428
  14.1409616  20.7233353  28.9040337  12.5267420  22.0124187  29.3534298
  11.8037796  22.2038784  30.1463814  13.0988922  22.9368782  29.2751942
  11.8161306  21.7871342  27.9431686  12.5322933  21.8200684  26.7377586
  13.5905628  22.0303860  26.6904564  11.9406796  21.7137680  25.4658852
  12.5995626  21.7148190  24.6101551  10.5318365  21.7207432  25.4203186
   9.8930349  21.7235298  24.2300568  10.2595367  22.2977753  23.5536556
   9.7837057  21.7049236  26.5920181   8.7114277  21.5975151  26.5206604
  10.4174423  21.7846565  27.7886524   9.7959661  21.7473373  28.6711349
  14.3074274  21.2791996  30.9376316  15.3263607  21.9126854  30.7690506
  13.9787722  20.8215675  32.1558609  13.1847534  20.1976624  32.1364021
  14.6860952  21.1135864  33.3729935  14.7977476  22.1965218  33.4267159
  13.9840193  20.6152382  34.6005096  13.6331282  19.5922318  34.4647408
  14.6850452  20.6553268  35.9472275  14.8653364  21.6950417  36.2203407
  14.0020256  20.1702385  36.6445580  15.5850725  20.0439491  36.0125504
  12.6416368  21.3177967  34.7192879  12.0827198  20.9166203  35.5647278
  12.8384466  22.3707848  34.9207344  12.0875187  21.3124561  33.7806664
  16.0893574  20.3931122  33.3051872  16.1829700  19.1939945  33.0494652
  17.2508240  21.1440601  33.5020943  17.2935638  22.5907574  33.8310165
  16.5771122  22.9264183  34.5807686  16.9999123  23.2139568  32.9863319
  18.8180122  22.8596878  34.1710052  19.0732174  22.6861973  35.2164078
  19.1613770  23.8082428  33.7581520  19.5172634  21.7689247  33.4036446
  20.5386906  21.6491776  33.7648201  19.6728077  22.1774826  32.4051514
  18.5800877  20.5551186  33.4376984  18.7380409  19.9625168  32.5365982
  18.7482433  19.6340160  34.6322441  18.4925213  20.0110874  35.7732048
  19.1914501  18.3740768  34.3813171  19.3910007  18.1118507  33.4265823
  19.4801407  17.3001862  35.4192619  19.7165031  17.7909069  36.3634224
  18.1313152  16.5795002  35.7531586  17.4160614  17.3743763  35.9645691
  17.6044903  15.8549213  34.5346031  16.7948704  15.1935682  34.8431892
  17.2272129  16.6126671  33.8478851  18.3183498  15.2742357  33.9503899
  18.1977692  15.6557016  36.9683228  18.5449600  16.2624397  37.8046417
  17.1957054  15.2818117  37.1785011  18.8893871  14.8183994  36.8751221
  20.6061611  16.2859020  34.9710922  20.9081287  16.3175488  33.8466034
  21.1625023  15.5903912  35.9513741  21.0682335  15.9690266  36.8829651
  22.0469666  14.4548950  35.7282791  21.7353916  13.8602657  34.8695374
  23.5019073  14.9127693  35.4000092  23.4346352  15.4353304  34.4458046
  24.1700459  15.8545427  36.3311043  23.5863152  16.7721920  36.4038086
  24.1618328  15.4364748  37.3377113  25.1678333  16.1331024  35.9920959
  24.3305397  13.7647314  35.2344742  25.2306271  14.0982933  35.2211494
  22.0764408  13.6325397  37.0091324  21.6836262  14.2345400  38.0333900
  22.5636883  12.3799095  36.9578934  22.8777180  12.0248842  36.0660172
  22.6706638  11.4927387  38.1019478  22.5052032  11.9833212  39.0611420
  21.7116699  10.3480854  37.9055595  20.7106724  10.7505369  37.7501945
  22.1214275   9.7571583  37.0864105  21.5432110   9.2960463  39.3918686
  22.6563358   8.6197586  39.0944099  24.1098194  10.8874893  38.3592682
  24.8618069  10.5698919  37.3827705  24.6247845  10.8555393  39.5831451
  23.9682655  11.0923357  40.3132210  25.9186363  10.4880886  40.0754890
  26.5750065  10.2889862  39.2283554  26.5912724  11.6850948  40.7095680
  27.6409016  11.4380140  40.8687286  26.5989113  12.4070072  39.8929367
  25.9661083  12.2363214  41.9775429  24.9344578  11.9121103  42.1142349
  26.5018044  11.8728151  42.8544655  25.9342232  13.9529285  42.2091522
  24.9048977  14.2826633  40.7339172  24.2521400  13.4363413  40.5200195
  24.2565098  15.1557732  40.8072166  25.5945854  14.4452009  39.9056587
  25.9349327   9.3477783  41.1171951  24.9101830   9.0445967  41.7264175
  27.0895367   8.7216444  41.2736282  27.8943748   8.9237623  40.6978798
  27.3672523   7.6674385  42.1948776  26.5469837   6.9582047  42.0841980
  28.6209965   6.9238024  41.6493683  28.5178299   6.6670766  40.5950699
  29.4508018   7.6211672  41.7642860  28.9593449   5.6541109  42.5425415
  28.9483719   5.9704013  43.5855865  28.1393127   4.9736218  42.3132324
  30.2153149   4.9772224  42.1132889  30.3903103   4.4618864  40.9874725
  31.2278728   4.8816824  42.9171982  32.0237236   4.4482279  42.4712830
  31.0440197   5.0508318  43.8958130  27.3075237   8.0159521  43.7097092
  27.6730862   9.1001368  44.0489426  26.8640938   7.0580697  44.5195389
  26.3233376   6.2977095  44.1328430  26.7566338   7.1685815  46.0272560
  26.6596870   8.2188950  46.3021088  25.5026855   6.3966866  46.5468826
  24.6360588   6.5514536  45.9041481  25.6826077   5.3278284  46.4316864
  24.9994888   6.5118885  47.9582825  24.6381226   5.5890088  48.4119415
  25.8414059   6.8219357  48.5772743  23.8183002   7.4715366  48.2416153
  24.1394138   8.6630726  48.3838310  22.7035313   6.9356222  48.2175446
  27.9550972   6.6890635  46.8405647  28.6369648   5.7356143  46.5376434
  28.3164177   7.4493189  47.8795700  27.6786137   8.1894894  48.1354103
  29.5232601   7.2768068  48.7989082  30.4635715   7.2844424  48.2476730
  29.5188332   8.4802752  49.7542610  29.4956970   9.4490032  49.2551308
  28.5689583   8.3860722  50.2805367  30.6996994   8.4942770  50.6812248
  30.7712994   7.4794235  51.0724335  31.5616093   8.7943163  50.0852470
  30.5947590   9.6332121  52.1221733  31.9164219   8.8479824  53.1709137
  31.5745087   7.8647704  53.4941673  32.9081917   8.7501287  52.7294159
  31.9024315   9.4538498  54.0769081  29.4807568   5.9122005  49.4733276
  28.4644737   5.3527608  49.8698845  30.6378403   5.2995849  49.5822372
  31.4893475   5.8040004  49.3807449  30.8442307   3.8502281  49.9680939
  30.1131821   3.2313499  49.4478455  32.1841011   3.2396669  49.3684044
  32.0557442   3.3343203  48.2901344  32.9364815   3.9464169  49.7184563
  32.5189476   1.7727766  49.7343407  33.5836678   1.3254839  49.2478752
  31.8250923   1.0521101  50.4837761  30.7537651   3.6825652  51.5194817
  31.6015625   3.1315618  52.2043571  29.6468678   4.0970569  52.1654510
  28.9185028   4.5496478  51.6318359  29.4326725   3.9873946  53.6054268
  30.4317322   4.0120234  54.0405998  28.5869484   5.1701889  53.9924812
  27.6322823   5.2140880  53.4682770  28.2248173   5.3025284  55.4451294
  27.4666862   4.5494795  55.6602211  29.0893650   5.0295477  56.0502243
  27.8036633   6.2744160  55.7023506  29.3368530   6.5080786  53.6243286
  29.6439075   6.5560217  52.5795708  28.7255707   7.3887396  53.8214836
  30.1429634   6.6077189  54.3512115  28.7403450   2.6674190  54.0071411
  27.7401981   2.3400767  53.4108620  29.3399353   1.8354765  54.8321114
  30.1855488   2.1440482  55.2901764  28.8817997   0.4266787  55.0714149
  28.8964424  -0.1162879  54.1263885  29.8907661  -0.3564839  56.0083122
  29.6937695  -0.1953932  57.0681953  29.8254738  -1.8356683  55.7044373
  30.5156059  -2.4281602  56.3050804  28.8424320  -2.2177448  55.9796600
  30.1089859  -1.9219122  54.6554947  31.2170219   0.0846461  55.8438721
  31.5038204  -0.3362387  55.0301132  27.4867764   0.3308473  55.6738510
  26.6169796  -0.3143580  55.0931473  27.2328873   1.0756433  56.7142906
  27.7934551   1.8914618  56.9150467  25.8474388   1.2619497  57.1724663
  25.3031025   0.3613583  57.4566078  25.8865776   1.8554775  58.0858650
  24.8796635   2.0813055  56.2786026  23.9076691   2.4781504  56.9241982
  25.1024284   2.1795146  54.9898911  25.9241695   1.7915633  54.5490570
  24.1333771   2.6918190  53.9933167  23.6906395   3.6112657  54.3763390
  24.7479820   2.9081397  53.1194954  22.9453297   1.7260164  53.5823479
  23.0198116   0.5220553  53.5657578  21.8350830   2.3517072  53.1520348
  21.8555393   3.3505583  53.3002892  20.8536148   1.7294337  52.2441788
  20.4077454   0.9007875  52.7943115  19.7479858   2.7645855  51.9254417
  20.0432053   3.4611263  51.1407280  18.8905125   2.2986648  51.4398956
  19.2507782   3.7342820  53.0525322  20.1048317   4.3369570  53.3615227
  18.2335300   4.6762562  52.4073334  18.6825943   5.3927441  51.7195282
  17.5331211   4.0711122  51.8317223  17.6969147   5.2335029  53.1752014
  18.7753525   3.0601180  54.3064384  18.4807186   3.7872379  55.0631332
  17.9481220   2.3924251  54.0656586  19.5606766   2.5040596  54.8184586
  21.4012794   1.1840112  50.9137993  22.1678638   1.8057328  50.2394371
  20.8581772   0.0790733  50.4621048  20.1447392  -0.3021605  51.0668907
  20.9686794  -0.5243961  49.1218262  21.9105320  -0.2962715  48.6228523
  20.7503147  -2.0240963  49.2570572  19.7952938  -2.2902930  49.7100220
  20.7942333  -2.4354746  48.2486229  21.8760204  -2.7374210  49.9784203
  22.7786770  -2.7272761  49.3675079  22.1282997  -2.2296524  50.9093475
  21.2960014  -4.1791339  50.3359184  20.6326733  -4.1914577  51.2007561
  20.6903896  -4.4343529  49.4663200  22.3385601  -5.2379122  50.6151390
  21.8088284  -6.1700196  50.8117638  22.8877239  -5.3552413  49.6809273
  23.3614807  -4.9521327  51.6570778  23.7528267  -5.8715482  51.8041306
  24.1325836  -4.4056826  51.3008499  22.8935680  -4.5759363  52.4692574
  19.9124126   0.0975566  48.2036552  18.9624920   0.5457106  48.8238716
  20.0222797  -0.0278189  46.8785934  20.8765202  -0.4636745  46.5617294
  18.9551964   0.2848143  45.8596802  19.5242119   0.3806223  44.9349403
  17.9835262  -0.9201475  45.7494316  17.4369221  -1.0610826  46.6818848
  17.2708092  -0.6541211  44.9688148  18.6085663  -2.2633879  45.4154358
  19.4078789  -2.2330070  44.6749763  19.0127411  -2.5904875  46.3734245
  17.6080608  -3.3269298  44.9423065  16.9176884  -3.5298870  45.7610207
  17.1468353  -3.0116646  44.0063667  18.4319229  -4.6016598  44.7954254
  19.0989838  -4.6046152  43.9333801  19.0868282  -4.7029557  45.6608391
  17.5329247  -5.7761979  44.5919380  18.0476875  -6.6018791  44.3210678
  17.2691212  -6.0539823  45.5264664  16.7317085  -5.6809764  43.9844131
  18.2087345   1.5998919  46.2002106  16.9839859   1.6966902  46.1379623
  18.9882011   2.6903563  46.4290428  19.9848900   2.5719225  46.3164215
  18.4663239   4.0548029  46.8828773  17.3795204   3.9719982  46.8728104
  18.9519024   4.4392323  48.2915421  18.8280334   3.6615868  49.0452156
  19.9899921   4.7420940  48.1546326  18.0526009   5.9141407  48.8046074
  16.8393154   5.3563938  48.8464317  18.8166428   5.1252341  45.8222580
  19.9092579   5.1680093  45.2827415  17.8195724   6.0318818  45.6800346
  16.9434681   5.8788862  46.1587143  17.8677177   7.1761627  44.7739143
  18.9008732   7.3073969  44.4522476  16.8472958   6.9484291  43.6552200
  15.9004154   6.7174087  44.1432228  16.5586109   8.1515589  42.8341675
  15.7530909   7.9879746  42.1182938  16.1233234   8.9949646  43.3701668
  17.3940697   8.4158421  42.1858902  17.4618626   5.7764134  42.7562027
  18.4723110   6.0439086  42.4471054  17.6276989   4.8441768  43.2961426
  16.6027756   5.3851399  41.5466194  16.6484413   6.1741009  40.7959137
  16.9073238   4.4303546  41.1179733  15.5811710   5.1408296  41.8377113
  17.3703899   8.3622522  45.5887680  16.3234425   8.3114929  46.2814331
  18.0585423   9.4788418  45.4226418  18.8714771   9.3279390  44.8425865
  17.8434048  10.6615095  46.1939621  16.8519592  10.5736599  46.6382790
  18.8040733  10.9247608  47.3732796  19.7154903  11.4525089  47.0923843
  18.2162666  11.5367985  48.0573807  19.1781635   9.6362267  48.0772095
  18.2879658   9.0433016  48.2871819  19.7751160   9.1654148  47.2961273
  20.1090622   9.8557863  49.2466049  20.9642677  10.4557467  48.9355278
  19.5989132  10.2848625  50.1090126  20.6094437   8.5486040  49.6949463
  21.1493034   8.0400887  49.0093346  20.8825970   8.1538620  50.8840523
  20.6231880   8.8288689  51.9286766  20.6345978   8.4827862  52.8774643
  20.2456703   9.7560387  51.7947502  21.4758949   6.9962959  50.9908752
  21.6440144   6.6127300  51.9099579  21.7263603   6.5292168  50.1311035
  17.8426399  11.8018341  45.1817856  18.7160740  11.8730192  44.3217278
  16.8672371  12.6801367  45.3292198  16.3276768  12.6078625  46.1799545
  16.6698856  13.9266376  44.5035667  17.2999668  13.8741503  43.6156807
  15.2383022  13.9639778  43.9089966  15.0593052  13.0727034  43.3075905
  14.0210066  14.0945816  44.7654266  14.1944208  13.5955963  45.7188683
  13.7460327  15.1200628  45.0121651  13.1785765  13.5047312  44.4041977
  15.2617941  15.1111937  42.9009094  14.8793535  15.9903603  43.4194679
  16.3310471  15.2210903  42.7200127  14.7223730  14.9304781  41.9711456
  16.8376808  15.1725988  45.3859940  16.3754444  15.2522011  46.5055847
  17.4516640  16.2189102  44.8192139  17.8852444  16.0108509  43.9310570
  17.3440914  17.6346817  45.2865791  16.6139603  17.7838249  46.0820465
  18.6589451  18.0342903  45.9408646  18.8905506  17.2546520  46.6665535
  19.3764381  17.8364124  45.1445312  18.7214222  19.3864670  46.6212807
  17.8157158  19.9483509  46.3930626  18.7353649  19.1831245  47.6920547
  20.0252380  20.4234447  46.1103210  19.6009274  20.5295296  44.3840294
  18.6745052  21.0611897  44.1668015  20.4198265  21.0390301  43.8761787
  19.6441040  19.5510826  43.9056206  16.9262714  18.4914360  44.0792732
  17.4049358  18.3138161  42.9440727  16.0715027  19.5047112  44.2335854
  15.6842089  19.6083374  45.1606026  15.8731537  20.5902958  43.2219048
  16.6459103  20.4486160  42.4663429  14.4857330  20.6304359  42.5856323
  14.5191040  21.3051147  41.7301826  14.3027821  19.6862850  42.0725822
  13.2504921  20.9872608  43.4545250  13.1859455  20.2305508  44.2364006
  13.4539337  21.9644222  43.8925552  11.7179556  21.1118126  42.4705162
  11.0971136  19.3960743  42.3414841  11.5840034  18.7127018  41.6457481
  11.0999937  18.9199734  43.3220062  10.0865927  19.4387970  41.9351349
  16.1993809  21.8740082  43.8533325  16.0172577  22.0318050  45.0625572
  16.6860657  22.8519115  43.0211220  16.6275692  22.5957775  42.0458908
  16.8820667  24.1755524  43.3039360  16.8058033  24.4116325  44.3653259
  18.2892208  24.6437931  42.8739433  18.4337368  24.8167439  41.8075027
  18.5173607  26.0680695  43.4162827  18.3454437  26.1097546  44.4918365
  19.5684395  26.3355637  43.3077278  17.9260597  26.8132038  42.8840828
  19.3243694  23.8269501  43.2253113  19.3367100  23.9979019  44.1698875
  15.9658213  25.0744209  42.5667648  15.8632059  24.9480076  41.3282547
  15.2251511  25.9540882  43.2679214  15.1991367  25.9416313  44.2775116
  14.0090885  26.5529270  42.7038422  14.1587372  26.7607422  41.6443520
  12.7750769  25.6818333  42.9155235  12.9665213  24.7599106  42.3664246
  12.7741051  25.3283234  44.4615173  13.6845751  24.8564148  44.8308983
  12.5737162  26.1221294  45.1811104  12.0678797  24.5398712  44.7217026
  11.6086130  26.3283405  42.2043991  10.7435865  25.6809406  42.3483162
  11.2574549  27.2875061  42.5849152  11.8717613  26.3147564  41.1467285
  13.6809988  27.9326096  43.3353310  13.8575611  28.1504097  44.5214958
  13.2887936  28.9175587  42.5071602  13.1222553  28.6373043  41.5512199
  12.7723017  30.1986732  42.9672661  13.5401707  30.5403042  43.6613655
  12.6955462  31.2437973  41.7588882  13.6127625  31.3217869  41.1751633
  11.9079828  30.9120884  41.0822716  12.4198017  32.6444855  42.2127991
  11.3991518  32.7076645  42.5901375  13.1955261  32.8240433  42.9571915
  12.4937735  33.7787895  41.2344131  11.6946526  33.7929420  40.2553825
  13.3202448  34.7718582  41.4621086  13.2741699  35.5785217  40.8560791
  13.8400593  34.9362907  42.3123169  11.4347143  30.0655136  43.6780319
  10.4109774  29.7573395  43.0775871  11.4726839  30.4247932  44.9792824
  12.3235292  30.7746983  45.3960915  10.3557720  30.3379517  45.8562088
   9.4308023  30.2318821  45.2893906  10.4116554  29.0199966  46.6963120
  10.5499630  28.1531067  46.0501862  11.5635138  29.0056896  47.6612358
  11.4745502  29.7975788  48.4049377  11.5840492  28.0118656  48.1084404
  12.5038509  29.0621414  47.1128998   9.2142973  28.7857990  47.4583893
   8.8071928  28.0490189  46.9968491  10.1974812  31.5907917  46.7722511
  11.1087313  32.4306602  46.8558121   9.0167017  31.6572437  47.4084854
   8.3758440  30.8958511  47.2361870   8.7232466  32.6925735  48.3624344
   9.6282568  33.2327461  48.6404076   7.6953688  33.6269913  47.6957741
   7.9796085  33.7986221  46.6575775   6.7716708  33.0762863  47.5179901
   7.5468178  35.0101967  48.2318420   8.5219641  35.5403900  48.8260803
   6.5329423  35.6305504  47.9679337   8.2289839  32.0957832  49.7213211
   7.8663940  32.8152657  50.6122055   8.1810541  30.7394180  49.6898041
   8.5316086  30.1409912  48.9555740   7.9479475  29.9122562  50.9623985
   7.0324459  30.3570251  51.3524437   7.6966743  28.3784161  50.6984596
   8.5900822  27.9152298  50.2796707   7.3866515  27.6414795  52.0139160
   6.9909220  26.6297436  51.9251404   8.2727222  27.6074123  52.6478081
   6.6923623  28.0530796  52.7464828   6.5872588  28.1071053  49.7378120
   6.7128181  28.6664562  48.8107414   6.5788212  27.0555515  49.4509964
   5.6370382  28.4787312  50.1213226   9.1217108  30.0223522  51.9504967
  10.3098621  29.9551105  51.4867935   8.9258528  30.1722393  53.2929993
   7.6713934  30.5498295  53.8927155   7.0021172  29.6896057  53.8791008
   7.3190727  31.3048687  53.1899414   7.9389081  31.0986862  55.2878494
   7.1857491  30.8117733  56.0216980   8.1124382  32.1745377  55.3110352
   9.2582083  30.4548092  55.6504478   8.9921494  29.4377747  55.9384727
   9.7835426  31.1285686  56.3273315  10.0098009  30.2301903  54.3329124
  10.6771860  31.0541439  54.0803223  10.8610210  28.9942036  54.4822807
  10.3924923  27.9246979  54.1098061  12.0397797  29.0445118  55.1110764
  12.3776903  29.9032726  55.5214996  13.1121216  28.0162888  55.0704765
  13.3806915  27.7806759  54.0406914  14.5188570  28.5811596  55.5808258
  14.9081039  29.4112091  54.9912491  14.3389263  28.8112125  56.6309738
  15.5721540  27.5313911  55.6377983  15.1853733  26.7698441  56.3149567
  15.6962090  27.2286491  54.5980606  16.9074612  28.0163727  56.0909233
  17.1448708  28.4609108  57.2675858  17.9205914  27.8918915  55.3179169
  18.8012981  28.1501179  55.7395554  17.8142548  27.5200768  54.3848877
  12.6755400  26.7415752  55.7933769  13.0127153  25.6869164  55.2743835
  12.0734949  26.8403931  56.9705620  11.9781990  27.7863159  57.3115158
  11.4669075  25.6914577  57.7397232  12.2292318  24.9194527  57.6349869
  11.4625397  26.1272182  59.2908745  11.7082348  25.2673378  59.9140396
  12.2862806  26.7848701  59.5684433  10.0985613  26.6490383  59.7543907
   9.7510719  26.1616440  60.8507042   9.5423470  27.5962086  59.1334457
  10.1083355  25.2124653  57.1909218   9.6693029  24.1203632  57.4086685
   9.3291941  26.0908318  56.5049095   9.6395445  27.0416412  56.3643913
   8.0072680  25.7532520  55.9090233   7.4435334  25.0891476  56.5642090
   7.1123943  27.0049019  55.6735191   7.6506667  27.6046295  54.9395638
   6.1645799  26.7289486  55.2113495   6.8678274  27.7693138  56.9226494
   7.7578459  28.2308598  57.3503685   6.1010232  28.5160503  56.7164879
   6.2833958  26.9043846  57.9667702   5.0664043  26.5542660  57.8847046
   7.0070949  26.7380962  59.0775070   8.0098114  26.8348999  59.1502419
   6.5611382  26.2889633  59.8645897   8.1414604  24.9009972  54.6498566
   7.1056695  24.2133121  54.2923012   9.3185177  24.8925209  53.9413528
  10.0041447  25.6101532  54.1284904   9.6740055  23.9004040  52.9212914
   8.7968597  23.8990288  52.2742119  10.9922810  24.3460960  52.1768532
  11.7183361  24.5060368  52.9739494  11.5971413  23.1809940  51.3419495
  11.7475786  22.2386436  51.8686752  10.8619766  23.0657215  50.5454941
  12.5504875  23.3896427  50.8564644  10.7204714  25.6027966  51.3039131
  10.2233229  25.2777958  50.3899574  10.1592493  26.4175873  51.7613449
  11.9789677  26.3257465  50.8049202  12.6246595  25.7096119  50.1791725
  11.6298561  27.1089134  50.1319542  12.3930197  26.8521080  51.6649246
   9.6944199  22.4063396  53.4643593  10.3124685  21.9647102  54.3919029
   9.0055866  21.5326157  52.7110863   8.4504967  21.8553410  51.9314575
   8.8041840  20.0812130  53.0223427   9.1989021  19.8208275  54.0044365
   7.3083763  19.6841869  52.9521141   6.9916291  19.9665260  51.9480934
   7.1794119  18.6018448  52.9504776   6.4169650  20.4108353  53.8849869
   6.5638347  21.4682388  53.6649284   5.4007792  20.0810204  53.6689034
   6.7890687  20.2017384  55.4174118   7.8635798  20.3847656  55.4118576
   6.3025165  20.9449234  56.0491104   6.5422039  18.8366013  55.9213905
   5.8786740  18.2490330  55.4370461   7.1176867  18.1667042  56.9462700
   7.8605151  18.6657467  57.8789711   8.1441908  18.2345123  58.7471123
   8.1094112  19.6443634  57.8574600   6.8375826  16.9810410  57.3006592
   7.3997345  16.6304874  58.0630226   6.1329451  16.4224510  56.8406944
   9.5855970  19.1026993  52.1060181   9.1482096  18.9676571  50.9786758
  10.6295891  18.4369793  52.6883698  10.8964090  18.6952591  53.6276245
  11.3592930  17.2669182  52.0730515  11.4418650  17.4708805  51.0054893
  12.7915239  17.2417107  52.6650505  12.6355209  16.8694725  53.6775742
  13.4315004  16.5003128  52.1866455  13.4508266  18.5772400  52.6386795
  13.3169203  19.4492226  51.5415039  13.6601801  20.6570263  52.0300865
  13.9347143  21.5375328  51.4681816  14.1909103  20.5470276  53.2920799
  14.4979115  21.3388252  53.8388062  13.9746561  19.2608852  53.7150459
  13.9685793  18.9582329  54.7517548  10.6700344  15.9245615  52.2108917
   9.8599510  15.8246984  53.1878586  10.8918819  14.9323292  51.3068733
  11.5323868  15.0385952  50.5332069  10.0062723  13.7296009  51.3431168
   9.4266949  13.7508478  52.2660141   9.1476421  13.8087988  50.0949287
   9.7823181  14.0002670  49.2296982   8.4146233  12.5012302  49.8051147
   7.6978111  12.4574585  48.9851341   9.1461248  11.7092495  49.6446075
   7.9105964  12.0963793  50.6826935   8.0478039  14.8265438  50.0880127
   7.5395184  14.7397308  49.1276932   7.3591723  14.5648012  50.8913651
   8.4040632  15.8091526  50.3973007  10.8282022  12.4195652  51.3385582
  11.7101030  12.2942486  50.4798698  10.4249086  11.3999672  52.1460724
   9.7310934  11.5364094  52.8672562  11.2432184  10.1446867  52.1612816
  11.8284597  10.0862417  51.2435799  12.1174641  10.2155762  53.4337578
  11.4971189  10.5085640  54.2807693  12.4764767   9.1971588  53.5822258
  13.3510752  11.1772099  53.3576012  13.2489176  12.5797501  53.4267616
  12.3609009  13.1392851  53.6812325  14.3765192  13.4090481  53.3959236
  14.3057690  14.4839458  53.4733467  15.6342306  12.7842302  53.1844635
  16.7223759  13.5611982  52.9519386  17.5156174  13.1057100  53.2433128
  15.7748280  11.4135532  53.0766830  16.7500172  10.9939508  52.8783379
  14.6464148  10.6221209  53.2030487  14.7051992   9.5444260  53.2420006
  10.2821493   8.9259024  52.1130943   9.3762617   8.8541832  52.9977646
  10.4594507   8.0280609  51.1288452  11.2291012   8.0962715  50.4783936
   9.6578932   6.8598943  50.8661308   8.7836952   6.8242092  51.5162086
   9.1202879   6.8985772  49.4305534  10.0317068   6.8929296  48.8327370
   8.5818577   6.0087137  49.1044579   8.4008236   8.2032709  49.0041847
   9.1076374   9.0161495  49.1707458   7.9948578   8.1808605  47.6054077
   8.8559933   8.2835875  46.9451141   7.6613860   7.2572737  47.1322441
   7.3281245   9.0257053  47.4327621   7.2924089   8.6670666  49.9475670
   7.8428292   8.9300261  50.8508911   6.6961703   9.5371885  49.6728172
   6.7156377   7.7758660  50.1949463  10.4692001   5.6452365  51.2508545
  11.6884308   5.6482325  51.2571907   9.7404919   4.5067277  51.2614098
   8.7454967   4.6782656  51.2356644  10.1966505   3.1033349  51.1361732
   9.3299894   2.4498920  51.2362671  10.7613802   2.7541816  49.7073555
  11.6910763   3.2932224  49.5251503  11.0483646   1.7029586  49.6814499
   9.7415314   2.9828203  48.5710106   9.0368052   3.7633705  48.8577194
  10.2076283   3.3775144  47.6681938   9.0728464   1.6490802  48.2129021
   7.8655143   1.3768781  48.2987671   9.7614355   0.6894008  47.8120499
  11.0750589   2.7318127  52.3590698  10.6269741   3.0611765  53.4373894
  12.2177153   2.0831680  52.0808449  12.4366312   1.9053450  51.1110229
  13.2154207   1.8335214  53.0557747  12.6965704   1.5197525  53.9615555
  14.1291761   0.7077546  52.5244293  14.3754406   0.9623063  51.4935837
  15.1303072   0.6438819  52.9507599  13.4003744  -0.6491014  52.6457024
  13.3505135  -0.8902783  53.7075157  12.3592892  -0.5361837  52.3432159
  14.1297417  -1.7846887  51.8456650  15.1968393  -1.5748292  51.7724380
  14.0242910  -2.6979659  52.4312477  13.5971889  -1.8213265  50.4067497
  13.6371927  -0.7892193  50.0585327  14.2791481  -2.4779687  49.8665161
  12.2493935  -2.3082247  50.2744751  11.5213938  -1.8490222  50.8029137
  12.0232725  -2.4056804  49.2949486  12.1887779  -3.2230442  50.6981850
  14.0066423   3.1150718  53.5422897  14.5479212   3.1866021  54.6365662
  13.9509659   4.1887293  52.7343903  13.6585407   4.0680833  51.7752037
  14.4469910   5.5231733  53.0721016  15.2685862   5.3532424  53.7679520
  14.8551960   6.2869382  51.8044586  14.0404530   6.7556477  51.2525444
  15.3795347   7.1742678  52.1591644  15.4617071   5.6705608  51.1408920
  13.5645657   6.4605389  54.0255966  14.0621977   7.4430046  54.5557823
  12.3008347   6.0811539  54.2783623  11.9244385   5.3132734  53.7409744
  11.3679056   6.7427149  55.2393341  11.0132179   7.6877341  54.8279381
  10.0620680   5.8991985  55.4852448   9.7689524   5.4162645  54.5530663
  10.2983713   4.8113976  56.5568390   9.4571600   4.1390333  56.7253456
  11.1053734   4.0915627  56.4201431  10.4390268   5.2469711  57.5460777
   8.8727798   6.6602206  56.0175896   8.9193258   6.7838588  57.0995560
   8.6560526   7.5589614  55.4401855   7.9956794   6.0570555  55.7831078
  12.0427542   7.1461020  56.5134163  11.6228485   8.1350756  57.1353455
  13.0146790   6.3498468  56.9714890  13.2482939   5.5390239  56.4164314
  13.7054119   6.6277304  58.2819290  12.9050875   6.8763061  58.9789162
  14.2687693   5.3311510  58.7855759  14.7945127   5.6927729  59.6692734
  13.2147017   4.3589897  59.2347145  13.6099186   3.3436892  59.2673683
  12.6919394   4.7922139  60.0874367  12.4647150   4.3644304  58.4437790
  15.1943350   4.5664005  57.7334251  15.6625452   3.6936312  58.1885605
  14.5506191   4.3390594  56.8836899  16.0593605   5.1557112  57.4292107
  14.6877317   7.7411342  58.2412834  15.0172291   8.2285337  59.3286896
  15.0878639   8.3117399  57.1386032  14.7412243   7.9495230  56.2618217
  16.0688457   9.3807144  56.9887695  16.7682076   9.3678942  57.8247261
  16.7294388   9.0885506  55.6512108  16.0391254   9.1174040  54.8081589
  17.5323658   9.8191862  55.5533218  17.3454494   7.6650991  55.5832024
  16.5793819   6.8914957  55.5304756  18.1421967   7.5746932  54.2367439
  17.4356899   7.3416014  53.4401169  18.6252728   8.5336218  54.0491409
  18.8837986   6.7758694  54.2342567  18.3857994   7.3608484  56.7327309
  19.0152321   6.4869289  56.5648689  19.2056656   8.0713444  56.8381500
  17.8805294   7.1838870  57.6822014  15.3632288  10.7711601  56.9177437
  15.9551783  11.8127871  56.6807861  14.0650110  10.7943974  57.0664024
  13.5792999   9.9371367  57.2884254  13.2926722  12.0500269  57.0735207
  13.5702190  12.5091286  56.1246834  11.7656517  11.6717491  57.1036797
  11.2563343  12.5135984  56.6346512  11.5787115  10.8521223  56.4098740
  11.1521816  11.2392588  58.4561234  11.7919855  10.4860563  58.9159508
  11.2069664  12.0725470  59.1566467   9.7413464  10.6971111  58.2126961
   9.1324749  11.5200777  57.8383942   9.6181593   9.9381847  57.4400597
   9.2024374  10.1872492  59.5490189   8.7279482  10.8874960  60.1009369
   9.1296501   8.8751049  59.8214073   9.8604717   7.9866753  59.2157974
  10.5032787   8.2512960  58.4830780  10.0391312   7.0625939  59.5822067
   8.4752254   8.5129013  60.8607521   8.3142023   7.5301003  61.0289268
   8.1510649   9.2285643  61.4954529  13.6733971  13.0941725  58.1955566
  13.7518587  12.7707453  59.3562317  13.7199240  14.3856401  57.8390465
  13.4095316  14.9293022  56.5413055  12.5051603  14.4627390  56.1507492
  14.2455349  14.7241669  55.8726349  13.1742067  16.4243698  56.6771011
  12.1991558  16.7242928  57.0610542  13.4477940  16.9490662  55.7617073
  14.2656689  16.6626472  57.8204308  14.1747160  17.6294193  58.3155861
  15.2233076  16.5885372  57.3051224  14.2504129  15.4175653  58.7345428
  15.3020210  15.2089434  58.9312553  13.5243244  15.7179098  60.0415077
  14.1832600  16.0655804  61.0575371  12.2546759  15.5549126  60.0786552
  11.8756065  15.0350857  59.3000755  11.5333509  15.7696962  61.3233986
  11.8059807  16.7468719  61.7220230  10.0104094  15.8018217  61.1934891
   9.7288857  14.7973566  60.8774261   9.5599546  16.0065155  62.1647224
   9.4487791  16.8372021  60.2106133   8.3490381  16.5696430  59.6100197
   9.8853340  17.9835968  60.1607666  11.8750191  14.6749582  62.3676033
  12.0032425  14.9158754  63.5582237  11.9732122  13.4292908  61.8949089
  11.9708967  13.3625717  60.8871155  12.4451714  12.2496786  62.6808739
  11.9399624  12.1955719  63.6452103  12.1063738  10.9596424  61.9820366
  11.0267134  10.8815928  61.8541946  12.6033068  10.9285707  61.0124016
  12.5128298   9.7303915  62.8122864  13.5589628   9.8095798  63.1079826
  11.6272478   9.3812456  64.0204849  11.5434752  10.1925287  64.7435989
  10.6463261   9.1432076  63.6091042  12.0104342   8.5618935  64.6287003
  12.5407572   8.5578957  61.8378410  12.6384840   7.6238647  62.3911324
  11.5133924   8.5790377  61.4742813  13.3438482   8.7203979  61.1189957
  13.8971090  12.3671045  63.0974274  14.2348833  12.0258770  64.2309494
  14.7101030  13.0561094  62.3015022  14.2823830  13.3789959  61.4454079
  16.0535603  13.5488949  62.6426811  16.5423756  12.7651930  63.2214470
  16.9596462  13.7006073  61.4098854  16.6354103  14.3907070  60.6309547
  17.9761410  13.9840851  61.6827927  17.0672340  12.4637356  60.7870369
  17.6583939  11.9518414  61.3438988  16.1212921  14.7449961  63.5642967
  16.9845905  14.8100510  64.4557495  15.0822992  15.5858517  63.5629845
  14.4848804  15.7158422  62.7590599  14.9821968  16.6642838  64.6038132
  15.9678297  17.0959072  64.7779694  14.0487356  17.8165016  64.1757584
  14.5930300  18.3156242  63.3740616  13.1337442  17.4858685  63.6842613
  13.7179699  18.9848518  65.1748123  13.2391987  18.5625916  66.0583115
  14.9915562  19.7375488  65.5580063  14.6223764  20.6534176  66.0195236
  15.5253105  19.1722298  66.3219528  15.6498785  19.9916630  64.7272568
  12.9887285  20.0619907  64.2606735  12.1318226  19.5673008  63.8034096
  12.5944328  20.9163303  64.8108978  13.5557232  20.2713661  63.3536034
  14.4671545  16.0389977  65.9788284  14.9426994  16.4839973  67.0842133
  13.6273470  14.9853783  65.9403687  13.2376328  14.7990408  65.0274048
  13.2074871  14.1866770  67.0999680  12.8091497  14.8877754  67.8333740
  12.0768719  13.2124643  66.7954788  12.4312811  12.4993658  66.0511780
  11.4192457  12.4811659  68.0178070  10.4382944  12.0887804  67.7497253
  12.0059929  11.6234512  68.3466721  11.1901913  13.1766081  68.8252640
  11.0457058  13.9249125  66.1002274  11.2595282  14.4794903  65.3463593
  14.3782673  13.3884935  67.7575607  14.7016211  13.6603527  68.8866882
  14.9526501  12.3774033  67.0752106  14.6763849  12.2637186  66.1104050
  16.1270943  11.7006159  67.5213547  15.7418776  11.0149870  68.2760849
  16.7880383  10.8894053  66.3019485  16.8040981  11.5892506  65.4664459
  17.8157864  10.6174603  66.5425339  15.8011961   9.7499561  65.7598038
  15.5690660   9.0177422  66.5331650  14.7917614  10.1215515  65.5835724
  16.5596333   9.1135798  64.6259842  16.5410137   9.8520098  63.8244400
  17.5626888   8.7448416  64.8404922  15.7877302   7.8926983  64.0777435
  14.7355337   8.1149807  64.2554398  15.8348274   7.8174386  62.9913673
  16.2231274   6.5614114  64.7122650  16.0986919   6.5783839  65.7144241
  15.6724024   5.8277149  64.2897873  17.2004929   6.3284874  64.6092834
  17.2553272  12.5178518  68.1610107  17.9056931  12.0030642  69.0453491
  17.5679493  13.7265100  67.7039871  17.2083969  14.1094799  66.8413467
  18.7095127  14.4896593  68.2935028  19.5348339  13.7913313  68.1546478
  18.9122448  15.7738314  67.4555817  19.0519047  15.4794998  66.4154129
  18.0286255  16.4118404  67.4393921  20.0521221  16.5442142  68.0287628
  19.8170776  17.2754250  68.9717712  21.2298012  16.3098888  67.5759888
  21.4146385  15.7541914  66.7530975  22.0342026  16.7752132  67.9716034
  18.4810123  14.7568331  69.8006058  19.4541721  14.7822037  70.5349731
  17.2684879  14.8598452  70.3132324  16.4579678  14.9718103  69.7210999
  16.8936977  15.1355267  71.7162628  17.8435822  15.1676598  72.2499237
  16.1940975  16.5449638  71.7964859  16.1110992  16.8643265  72.8353348
  16.9056873  17.6512794  71.0004501  16.5032043  18.5361118  71.4935837
  17.9805565  17.6424503  71.1812286  16.6277866  17.5831680  69.9486771
  14.9261484  16.3564777  71.1822433  14.2730494  16.1380596  71.8510895
  15.9720507  14.0856619  72.4210052  16.0400009  14.0031071  73.6445999
  15.1643629  13.2601604  71.7274857  15.1187267  13.3328981  70.7211456
  14.3835907  12.2004662  72.3660355  13.6633396  12.6102800  73.0741272
  13.6091890  11.5315657  71.2442245  12.9762306  12.3128777  70.8234863
  14.3308220  11.1983356  70.4983673  12.7669973  10.2685471  71.6021729
  12.2243690   9.9081783  70.7282181  13.4951067   9.5403442  71.9594879
  11.7662058  10.5515490  72.6811981  11.2725029   9.5645866  73.3318176
  11.3090353  11.6982222  72.8526230  15.2761288  11.1475458  73.0665741
  14.9853926  10.7181892  74.1734085  16.3075676  10.7177973  72.3110352
  16.4721260  11.1893988  71.4331894  17.3837738   9.7344837  72.6876907
  16.8991032   8.8325071  73.0613708  18.1365128   9.3040628  71.3887100
  18.9159737  10.0317545  71.1628723  18.6730938   8.4268913  71.7503204
  17.2989807   8.9771633  70.0893936  16.8246460   9.8659897  69.6733475
  18.2540340   8.5574417  68.9981842  18.9417286   7.7414308  69.2202377
  17.6184158   8.3209114  68.1448746  18.8581676   9.3978510  68.6563721
  16.2939205   7.8509970  70.4156570  15.7112703   8.1786900  71.2766113
  15.5592318   7.6986933  69.6250000  16.8224354   6.9056787  70.5387192
  18.3290577  10.2506084  73.7991028  18.8585682  11.3977251  73.7286453
  18.2815037   9.5399628  74.8560486  24.3889961  11.1710978  29.3179626
  24.4361877  10.1251221  29.0226097  25.0969677  11.6538229  29.9882431
  23.3404560  11.9570198  28.9263496  23.1954937  13.3303270  29.5549374
  22.2354488  14.0303745  29.2402763  24.1087666  13.9249773  30.1938229
  22.3462658  11.5938568  28.0355015  21.4868698  10.4718122  28.2806015
  22.0956688   9.6048965  28.5652237  20.7741852  10.2339840  26.9841499
  21.4048557  10.4571104  26.1262493  19.4882679   9.6788387  26.9109421
  18.6791439   9.4278202  28.0900631  17.6851978   8.9860401  28.0540352
  19.1450901   9.9793348  29.2574768  18.5546989   9.8655376  30.1641273
  20.4183350  10.7283783  29.4212799  20.1664658  11.7943869  29.3631592
  21.0926609  10.3326311  30.6187229  21.2830372   9.3868179  30.4925308
  18.9726429   9.4106150  25.5372677  19.6482506   9.7392101  24.5699654
  17.8771133   8.9127197  25.3988762  41.4388695  20.3451176  45.0826569
  42.3257675  19.9087582  44.6281967  41.5753059  21.3635616  45.4399872
  40.2464027  19.7259102  45.3720665  39.1360435  20.5001087  46.1096077
  39.0884628  21.7264957  46.2224388  38.2130432  19.8540916  46.5702133
  39.9367180  18.3980293  45.0485306  39.7775230  17.9363117  43.6434441
  39.5910950  16.8675594  43.4815636  40.9372635  18.3606949  42.7809715
  41.8221474  17.7922649  43.0591698  40.9231110  19.3971043  41.9137688
  39.7053490  20.2438889  41.8672218  39.7585106  21.2270603  41.4035988
  38.5094490  19.8790913  42.4163895  37.6591988  20.5448685  42.5480957
  38.3834648  18.4886513  43.1640434  37.7846107  18.5929909  44.0771027
  37.8276939  17.5520287  42.2921562  37.2033539  16.9565601  42.7419891
  42.1225395  19.8411102  41.1756363  43.1740570  19.2679214  41.2864761
  42.1120605  20.8639755  40.5098763  19.8267536  11.0496874  55.7577438
  19.0222912  11.7349606  56.0161362  20.3048267  10.4161463  56.5017853
  20.3903980  11.0145063  54.5390549  19.7671700  11.8648958  53.4659920
  18.9689808  12.7318859  53.6982727  20.0781784  11.6061792  52.3137054
  21.4351902  10.2061272  54.2001915  22.7037678  10.1199007  54.8273125
  23.4466095   9.7533827  54.1082573  22.5359154   9.0498819  55.9560661
  21.9210033   8.1871986  55.7087059  23.1629925   9.1183281  57.1534042
  24.1237602  10.2792025  57.3377075  24.8552399  10.1259851  58.1288223
  24.0407181  11.4026241  56.5394592  24.6941662  12.2607002  56.6817322
  23.0271263  11.4814234  55.3982239  22.1779861  12.0981016  55.7173729
  23.6482906  12.2610741  54.3162498  24.1670036  11.6358652  53.7807350
  23.1963329   7.9261484  58.0667953  23.9960136   7.8718066  58.9705658
  22.5475712   6.8812256  57.8660736   4.1745386  59.2513275  15.3696575
  36.4221001  42.5844765  49.3781052  37.4801292  37.8386459  68.7824249
   3.1668084  54.0340042  21.9005547  22.7587872  42.5359383  27.5266266
  66.8332367  47.2753677  83.6728668  33.5803833  16.3894215  79.9361801
  80.1391525  37.7679672  57.2639313  61.2204895  50.9296112  88.6272125
  81.9816055  20.5674820  19.5710850  82.8627014  20.2506332  19.7698441
  82.0291138  21.5127716  19.7139206  45.6757851  60.5983276  87.6110992
  45.2667198  59.7375603  87.5217896  45.9282951  60.6490173  88.5329971
  58.7587929  63.1520805  23.9406548  59.1311913  62.4590187  24.4858303
  57.8363113  62.9141159  23.8477459  54.0070343  17.8528233  18.0177517
  54.3421249  16.9766636  17.8272591  53.8507118  18.2417946  17.1572304
  28.7516918  48.4547768  38.6517792  29.0281105  49.2495270  39.1080627
  28.6213875  48.7322311  37.7449875  39.1091270   7.3020239  82.1409760
  38.9267883   6.6923923  81.4259033  38.2886391   7.7794652  82.2637634
  42.0066986  23.1935825  42.3649330  41.9128571  22.4362698  41.7870903
  42.8993950  23.1270542  42.7039032  48.6519547  18.9890022  72.6981735
  48.7691307  19.7990665  73.1944580  48.6895256  19.2621269  71.7815323
  53.3427887  27.9169159  49.0658226  54.0273628  27.2498951  49.1175117
  53.0716476  27.9112072  48.1478424   3.4938996  54.3135490  76.4292908
   2.9187715  55.0465088  76.2096710   3.4405825  54.2445412  77.3825073
  10.1437140  51.2008743  58.9506721   9.7522306  50.4648590  59.4210434
   9.7838936  51.9775429  59.3790932  62.0424767  21.9634113  27.8953953
  61.6838799  22.7159824  28.3657951  62.9852562  22.0084400  28.0546799
  20.5412331  34.0855103  64.5782471  20.3359108  33.4363976  65.2510986
  20.2714424  33.6733208  63.7575455  52.9053268  19.0881271   4.9224215
  53.1053009  20.0218220   4.9891949  53.4045029  18.7900562   4.1620207
  60.6304665  33.7307549   6.7260222  61.5145149  33.3706932   6.7970543
  60.4634056  33.7715378   5.7843966  74.6218109  51.1216469  67.7126007
  74.7841263  51.6946869  68.4619370  73.7788162  51.4137993  67.3658371
   2.6836245  39.6171646  59.9648972   2.1699858  40.2535095  60.4623604
   3.2904799  39.2460251  60.6053734  68.3949280  52.7725067  72.2566528
  68.2075119  52.3434715  73.0915375  68.5829468  52.0527000  71.6543579
  49.6653175  42.2867546  25.0985069  48.8209457  42.6760979  24.8711739
  49.4470863  41.4113159  25.4182129  59.3422775   6.5475411  72.2305908
  58.6279030   6.9440031  72.7293015  59.6187134   5.8002043  72.7609711
  79.6556702  61.6101685   6.8008704  79.0435257  60.9718170   6.4347954
  80.3899155  61.0838089   7.1171894   4.8592362  61.1212654   9.2385769
   4.1248527  61.7050896   9.0486813   4.4896522  60.2410431   9.1689653
  79.0284348  47.3311615  61.7768478  79.5528030  47.2240562  62.5704460
  78.1953735  47.6867294  62.0863914  59.7416039  34.1269150  31.2219200
  59.2798805  33.6898956  30.5063381  60.0872536  33.4117432  31.7560444
  60.2726707  20.4343224  83.5480270  60.8911743  19.7119408  83.4391785
  60.6043930  20.9221249  84.3018417   7.2137542  38.0061264  20.9748669
   6.3749547  38.4132652  21.1913986   7.8411551  38.7289276  20.9874420
  68.9552460  42.2435913  89.2926941  68.9529266  41.2868309  89.3216705
  68.3363495  42.4636230  88.5964279  16.0204315  39.5482750  51.0267525
  16.0028191  39.1236916  50.1690521  16.0951138  38.8257751  51.6501732
   2.6047659  37.5103188  76.0760651   2.3708012  38.4061050  75.8330307
   1.7747818  37.0337143  76.0617142  62.4373856   5.0706091  84.8080063
  61.9470825   5.4170785  85.5535202  62.7768669   4.2297583  85.1145248
  32.0252838   8.0887375   0.5613191  32.3178825   8.4955082   1.3768885
  31.9672432   7.1555796   0.7664554  45.8963814  32.4346313  66.4865036
  45.9547234  32.9093704  65.6573792  46.1181679  33.0862122  67.1517029
  28.0064850  39.4028206   8.3824081  27.7629833  38.6223450   8.8801975
  28.7117100  39.8016472   8.8921404   1.1864454  49.6781082  41.1390724
   0.9027832  48.8459511  40.7605476   0.4325624  49.9801407  41.6456985
  36.9094429  60.0181580  34.9752235  36.0591278  60.4555206  35.0189743
  37.5471077  60.7317619  34.9947433  53.3128510  57.9413948  45.3551369
  53.0566711  57.6828575  44.4698334  53.9888458  57.3105469  45.6027145
  36.8613281  49.1293983  66.4693527  36.9207382  49.9083939  65.9162979
  36.0291481  48.7247314  66.2245026  72.0292053  20.1815205  29.9326801
  71.1919708  20.4482498  29.5530376  72.6541824  20.8340778  29.6167660
  49.1380615  40.9395638   9.8144579  49.9770889  40.7722321   9.3851938
  49.3629761  41.4614639  10.5846987  50.6481514  16.7142487   3.1517520
  50.6406212  17.3062840   3.9038618  51.5691566  16.6636753   2.8959601
  13.4484777  66.3353500  81.5623627  13.6208162  66.4680634  82.4945221
  13.5005274  67.2121735  81.1819611   7.3078127  64.3735504   2.3531103
   6.6138229  64.7981644   2.8574076   7.5362382  65.0107498   1.6763315
  83.7903595  54.0925407  42.3530884  83.6752014  54.7615280  41.6782379
  84.6801987  54.2305069  42.6777267  58.5071564  58.4225502  41.2083435
  58.4383621  57.5323181  41.5532799  58.8751640  58.9315186  41.9306679
  86.7106094  13.8827677  80.6596527  86.9294052  13.0990734  81.1638184
  86.3703690  13.5468521  79.8304138  30.5435829   4.3373933  15.3663177
  29.7026520   3.8811169  15.3366508  31.1966782   3.6396706  15.3126345
  53.8600464  54.8317490  13.0320387  53.2196236  55.0465851  13.7102270
  54.7074089  55.0260048  13.4326286   6.6592507  37.1564445  38.3444519
   5.9661403  37.5754700  37.8343048   6.7079906  37.6708870  39.1501846
  60.7552872  69.3987732  14.3723478  59.9985542  68.8189621  14.4583683
  60.9395103  69.6864014  15.2665310  65.5842438  44.3722916  33.7840996
  65.7760010  44.2961769  32.8493958  66.4222946  44.2042427  34.2149887
  29.9505978  11.8036432  85.0889206  29.9694996  10.9373817  84.6821518
  29.0359402  12.0784521  85.0247955  33.9008064  51.8339539  66.9741898
  34.7262268  51.8947792  67.4550400  33.9463844  50.9893951  66.5260010
  62.3105812  31.7137928  43.8248901  61.6975288  31.4920540  43.1240120
  63.1687126  31.7156467  43.4008102  68.4459457  38.8624840  40.1917953
  67.5170441  39.0918961  40.1644325  68.7777710  39.3002205  40.9757042
   6.2305984  16.1298714  64.8488388   6.3963838  15.7603636  65.7161407
   5.3068204  15.9431314  64.6815186   4.5022655   6.5429969  71.4942932
   4.9169879   7.4035044  71.5556488   4.6462355   6.2718267  70.5876694
  70.2650070  54.6400986  11.7508841  69.3921204  54.9612160  11.9771261
  70.1779633  53.6868744  11.7546635   3.5784445  24.4235306  48.7470131
   3.2481589  24.8471165  49.5392990   3.4668124  23.4872341  48.9116898
  53.1680183  47.5786171  26.4557610  53.5495796  46.8138695  26.8868141
  53.3824081  47.4635620  25.5300007  75.0957031  20.4082756  43.6030769
  75.5583496  19.5712967  43.5623665  75.1304703  20.7449551  42.7077179
  72.0598373  56.0915947  49.6307793  72.0451584  56.9769478  49.2672348
  71.6007233  55.5585175  48.9817238  68.0832748  19.8527203  72.3103180
  67.6269379  19.3020668  72.9465332  67.7526779  20.7354450  72.4768524
  18.5144577  41.9577789  70.0137329  17.9396477  41.4683189  69.4253082
  18.0994148  42.8165321  70.0944672  33.9228363  35.3827896  26.7030125
  34.6359024  34.7823792  26.9204445  34.3355713  36.2461014  26.6789837
  80.9654312   7.2115817  16.5168629  80.0206909   7.0621095  16.4799805
  81.3441772   6.4666810  16.0500603  69.2797775  44.4961891  13.5218639
  68.8126831  44.2123833  12.7360439  69.4036636  45.4374847  13.4000196
  26.6908951   8.8845291  69.6429977  26.0115547   8.8337851  68.9705734
  27.4891052   9.1011858  69.1611786  71.9265823  11.9124231  41.8576660
  72.5555496  12.2590933  42.4904747  72.3326340  11.1091948  41.5318184
  51.5348740  12.3180208  34.1633415  51.4942284  12.7171459  35.0324097
  50.6244659  12.2921124  33.8688583  58.1613388   3.7822087   2.4697602
  57.9092560   3.5775387   3.3702023  58.4360466   2.9426010   2.1012149
  52.1860504   6.6047316  37.4432602  52.0096359   7.1618533  38.2013664
  51.4571190   6.7744164  36.8465233  63.8205338  59.5129089   6.4543691
  63.7531624  58.7046280   5.9460626  63.0625534  59.4923477   7.0385556
   2.1887231  66.6456757  46.0921364   1.6327752  65.9301834  45.7835503
   3.0799646  66.3034210  46.0229645  70.6545105  33.2493019  73.7208939
  71.2197647  33.9688721  74.0018463  71.0250320  32.9659996  72.8850174
  29.9289951  52.1442070   3.8884904  29.5784836  51.9023552   3.0312386
  29.3849220  51.6651230   4.5135474  81.4913025  35.2364731  63.0676041
  81.4690094  34.9952507  62.1415634  81.7132721  34.4235382  63.5215874
  77.5023727  52.2004738   3.5284796  77.9839706  52.1567726   4.3545475
  78.1652298  52.0428429   2.8561656  34.3276291  38.6100235   6.4900041
  35.2633820  38.8113785   6.4974165  34.2765007  37.7220726   6.1362257
  15.2391911  52.0486984  86.2653275  15.4280081  52.9568100  86.0288773
  15.7476702  51.5285187  85.6431580  71.6919174   4.5414858  89.2382660
  71.5432739   4.8078270  88.3309631  72.4941559   4.0202994  89.2065277
  35.9707069  54.9941177  75.0359802  35.0876389  54.8916092  75.3908157
  36.3503761  55.7123070  75.5422287  48.0191231  42.5464668  40.9749184
  48.1244926  42.2299423  40.0777359  48.6254311  42.0137901  41.4895859
  83.1602707  19.8042679  56.1091614  83.5962753  20.2566204  55.3870087
  82.9035339  20.5038929  56.7098618  25.0201454  41.0774231  27.6776276
  25.5499630  41.0250206  28.4731026  25.0558834  40.1953926  27.3075161
  32.5486259  52.8902245  64.7993698  32.7933693  52.3248978  65.5319901
  31.6299438  53.1059151  64.9597778  29.9175053   1.8402467  62.6566200
  30.8172283   1.7560005  62.3409767  29.9990807   2.2980237  63.4932899
  37.3663101   1.7013727  14.2409286  38.1148300   2.2873287  14.3532248
  36.7706299   1.9345956  14.9529676  84.4422073  10.3825531  49.9165344
  84.3609390  11.2630720  50.2830238  83.8195190   9.8560638  50.4178314
  49.9358559  34.1339798  73.4348221  49.4272156  33.9605446  74.2269363
  50.8311157  34.2622032  73.7483444   6.5778637  30.3960552   3.3754163
   5.7978930  30.5462151   3.9095790   7.2101903  30.0062447   3.9791069
  72.7825928  22.5719795  56.2442322  72.9120407  23.2040100  56.9513474
  73.6137848  22.5701008  55.7695274  17.4805965  63.7724609  65.0238800
  16.7321491  63.3985062  64.5588837  17.8904171  63.0246468  65.4586792
  61.6764870  42.8695221  26.0516415  62.0691719  42.0360832  26.3112888
  60.7999916  42.6363144  25.7456989  49.7057304  19.9885216  89.0416718
  49.5148239  19.1174793  88.6937103  49.2350922  20.5867310  88.4612579
  49.3990479  55.2287331  68.1540070  48.5556374  55.4246025  67.7459335
  49.4734154  55.8633575  68.8667221   6.9036698  38.2917213  18.2564812
   7.0379081  37.9846230  19.1530857   6.0580926  37.9229431  18.0010700
  23.6916294  18.6133556  86.3087463  23.1394348  17.9467564  85.9001465
  24.1845055  18.9944363  85.5820541  75.8426590  69.4485779  23.6914825
  76.0742340  68.5865784  24.0372677  75.5966187  69.9581451  24.4635201
  78.7015076  42.4895172  76.4093857  78.1983566  41.7611580  76.7734756
  78.3966064  42.5628242  75.5050049  82.9339828  16.4468422  48.0817413
  83.0542984  15.6010532  47.6500053  83.5278015  17.0383568  47.6194382
   4.0983195  12.9307327  12.3243265   4.8156638  12.9965010  11.6939907
   3.5283623  13.6711769  12.1166639  56.1903610  43.1504517  54.3261070
  56.5051155  42.7804184  53.5013428  56.6271667  43.9997978  54.3897133
  41.9332924  58.1191559  64.6887283  41.5148468  57.6229134  65.3922043
  41.8031120  59.0357361  64.9319687  53.6208344  35.7706604  65.7020950
  53.5324631  35.8388557  64.7514267  52.8090477  35.3522110  65.9887009
  21.8181686  55.1521568  14.1259632  21.9636269  55.7884903  13.4258547
  22.3849907  54.4144592  13.9006920  17.7521362  58.8594322  74.9583664
  16.9458694  58.6505356  74.4866409  17.4901714  59.5201111  75.5995407
  74.3548584  23.5117092  30.4690704  74.7794189  23.7944927  31.2790203
  74.7917252  22.6903534  30.2437878  26.6810684  54.0037842   0.3168888
  26.5169506  53.1850471  -0.1510497  27.6078510  54.1864548   0.1621677
  62.1458473  56.2274628  20.6722202  62.7287674  55.9905701  19.9508896
  61.5880318  55.4588280  20.7916965   4.7590494   6.8429604   7.8254809
   5.4098291   7.0973225   7.1712508   5.0220814   7.3093748   8.6188936
  57.0247269  56.2078362  76.8729019  57.2187805  56.3799934  77.7942810
  57.0233002  55.2532120  76.8027496  38.5848351  62.0422630   0.5907862
  38.6796074  61.3363419  -0.0486903  39.4818573  62.3218117   0.7736474
  25.3280392   2.8362625  60.4032440  26.1175041   3.3232977  60.6394043
  24.7487354   3.4924231  60.0158234   5.3771110  18.4993343  69.5334244
   4.5619707  18.6515789  69.0552979   6.0668335  18.7140617  68.9054031
   0.4025650  65.9364700  60.8862419  -0.4325821  66.4015732  60.9355736
   1.0607181  66.6052551  61.0754089  51.3968735  61.8425140  31.2551861
  51.8942184  61.0364227  31.1169968  51.6479836  62.1314583  32.1325035
  56.2997780   3.0424020  80.9794617  56.4826126   3.7077389  80.3160400
  55.7760201   2.3850420  80.5214386  73.8196487  24.2811241   1.7269961
  72.9607239  24.1234474   2.1189468  73.6870804  24.1306515   0.7910387
  46.3685913  40.8505898   1.4215584  45.5156326  40.4604607   1.6125948
  46.2723923  41.7700577   1.6696655   3.3698468   6.2664566  85.1531906
   3.9580529   6.2952752  85.9077835   3.9351807   6.0304594  84.4177094
  49.0325394  14.8496857  16.4004154  49.3762283  13.9853716  16.1744213
  48.0860252  14.7693806  16.2825565  60.8051033  18.9659863  59.9165306
  61.7376366  18.9646893  60.1324196  60.3632240  19.0241680  60.7636375
  30.1403084  45.6413002  81.3699341  29.5371761  45.6016922  82.1121597
  30.4814243  44.7504616  81.2907028  52.1664848   9.0083647  47.9366913
  52.8876915   9.1575346  47.3252640  51.4931526   8.5755119  47.4118156
  75.2391129  65.1793213  33.6994438  74.5841827  64.8990707  34.3387871
  74.8861160  65.9910126  33.3350525  40.0804100  36.4635010  10.5998440
  40.0643387  35.9624786   9.7843990  39.5359154  35.9572830  11.2027521
  77.5930328  42.0999756   0.0707696  78.0469666  42.3037186  -0.7469478
  78.1942749  42.3894424   0.7570261  70.2753525  31.3881779  33.3236656
  70.6670303  32.1777802  33.6969643  70.9998856  30.9490242  32.8782120
   9.8888493  17.2410717  82.9270630  10.5684290  16.6410942  82.6197662
  10.1550722  17.4684467  83.8179398  72.6014938   4.1818147  23.9911919
  73.0717621   4.8252764  23.4610596  73.2558670   3.8567109  24.6095238
  66.7608871  48.2538376  78.4466476  66.7994843  47.2988129  78.4983063
  66.2396240  48.5139122  79.2061768   3.2393384  13.3719149  71.9234695
   3.3028874  13.0847120  71.0125885   4.1460614  13.4029751  72.2286301
  37.9540558  61.6642342  53.7455025  38.5751915  62.0017662  54.3908691
  37.3425674  61.1337204  54.2562561  74.2014923  43.1689835  31.3851490
  73.5843353  42.7715569  30.7708244  75.0540543  43.0805588  30.9590549
  52.3667603   2.4358501  82.7211227  53.1308784   2.2301016  83.2596588
  51.7761803   2.9031854  83.3119202  63.2403946  39.6857491  41.3994102
  63.7829628  40.2245483  41.9752159  63.5830574  39.8533821  40.5215073
  10.9014997  57.8015289  38.5673866  11.8172474  57.9568214  38.3360405
  10.4175348  58.4820099  38.0994644  55.2117996  32.8612938  57.4198380
  55.9211311  32.9882240  56.7897835  55.6334953  32.4538002  58.1763802
  74.3188782  18.7545891  28.4864693  74.9490433  18.3470211  27.8923149
  73.4641800  18.4809818  28.1535187  55.7296371  49.8202972  26.0203419
  55.7088852  50.5397339  25.3893013  54.8314629  49.4897499  26.0363312
  65.1932526  30.5830593  11.9343224  65.6054916  31.3731651  12.2836332
  65.6781616  29.8622246  12.3361807  45.1867638  27.0400543  11.0039892
  45.7813034  26.7872467  11.7102757  44.3152161  26.9961147  11.3973179
  46.6965866  47.7917557  83.1906891  45.8425713  48.2226334  83.1554871
  46.5641556  47.0448914  83.7745438  74.9947205  17.9732761  86.0951309
  74.9122009  18.6387119  86.7782211  74.1025925  17.6517048  85.9649963
  79.8665314  58.8793411  46.4272766  79.2830734  58.1682816  46.1623268
  80.7138519  58.4555550  46.5639877  73.8928070  28.5310497  29.9590874
  74.6707611  28.2605095  29.4714108  73.5563049  29.2846985  29.4743080
  79.8838959  12.8818054  14.8849964  79.4436646  12.0805693  15.1686335
  80.7789841  12.6061678  14.6873226  14.2052431  18.2150116  68.9334793
  14.4588957  17.9642162  69.8217392  14.4969234  17.4858646  68.3862152
   0.0480686   3.3822711  32.9841499  -0.0275831   4.2129269  32.5145569
   0.0631829   2.7180803  32.2950554   2.0538542  43.7545395  53.8527222
   2.2479341  42.8178787  53.8175659   2.3472333  44.0918617  53.0063362
  47.6279793  62.2792206  56.4917183  47.5454826  62.8442993  57.2599030
  46.8177147  61.7697182  56.4810486  36.3304863   8.8407040  36.5056648
  35.4368896   9.1836128  36.5169144  36.3138466   8.1505146  35.8426437
  48.8415680  53.9832306  46.0282936  48.3946266  54.1196480  45.1929092
  48.1406174  53.9969711  46.6799927   9.7711849  56.0534630  76.3456192
   9.2564840  56.4891319  75.6662750   9.2264748  55.3170624  76.6235275
  83.8345032   5.4169111  13.4792538  84.0900650   6.0423427  14.1573067
  83.1534500   4.8838954  13.8894796   1.6922007  48.3806076  71.1075897
   1.3617061  49.1722832  71.5321503   2.3415701  48.0339699  71.7194672
  40.5433388  69.7132339  11.5807705  40.8027344  69.3652802  10.7276144
  40.2504845  68.9464188  12.0731850  78.5602875  39.5123024  56.9649734
  79.1243668  40.2130203  57.2921410  77.6829071  39.7522430  57.2630615
  74.5884552  17.3614960  71.1594620  75.4457550  16.9889641  70.9533539
  74.7720261  18.2725372  71.3886795  21.8821163  58.3078308  82.1690826
  21.6603489  59.1395187  81.7503357  22.8251286  58.2153282  82.0334320
  16.7232418  55.6217995  77.2383041  16.3972225  55.0097580  77.8981094
  17.2940407  56.2166634  77.7246780  78.1983337  46.6941528  87.3088226
  78.3257217  46.2859344  88.1651840  79.0139847  47.1677399  87.1455231
  56.3611031  46.1434975  53.6865654  55.7382812  46.3687668  54.3776360
  57.1016808  45.7521400  54.1498337  54.0922012  23.0216866  12.3226871
  54.8320770  22.7090969  12.8433590  53.5859375  22.2329388  12.1282444
  48.7646484  58.0255318  48.6422806  49.5051804  58.1012650  48.0405235
  48.2725449  58.8373642  48.5198479  70.4280167  30.7381001  59.1864052
  71.0842056  30.5149632  59.8466034  70.9380569  31.0305805  58.4310570
  17.3572655  57.7346039  58.0548058  17.4161053  58.1838760  57.2116432
  16.9151630  56.9092102  57.8560562  30.1274910  41.2909966  19.6026230
  30.6359806  41.2631111  20.4131107  29.6129208  42.0952797  19.6702595
  51.9079285  42.4378128  31.1668720  51.8057137  41.6539345  30.6271324
  51.0151863  42.7584801  31.2949848  12.7052212  55.2171173  46.5944672
  12.8185568  54.4078827  47.0929909  11.8192768  55.5088196  46.8095093
  74.7055511  60.1770668   8.5264444  73.8896255  60.5828590   8.2334747
  75.3015137  60.9126091   8.6680050  22.8390083  43.3059998  51.4797096
  23.7327690  43.4787445  51.7756538  22.7827129  43.7338524  50.6253090
  61.4122467  47.5658531  32.9607086  61.8716316  47.8926659  32.1871490
  62.1098862  47.2823181  33.5515862  74.7713776  55.8808289  68.8123550
  75.5453110  55.3177948  68.7964478  75.0853271  56.7284584  68.4974060
  75.7487717  44.3150330  58.0787392  76.0025940  44.9157906  57.3780975
  75.0116119  44.7475357  58.5097466  46.7477608  52.0832977  36.0150223
  47.4776077  51.6118546  36.4166374  46.0345573  51.4453201  35.9913673
  63.8571205  64.3704605  28.3342018  63.7880630  64.2916107  27.3827591
  64.7938995  64.4790115  28.4981747  64.9418488  69.7268219  57.4159927
  64.5942764  70.0684662  56.5921555  64.8938980  68.7756500  57.3200569
  19.5683308  46.5956726  50.4351692  19.5181103  45.7540665  50.8883858
  20.5027943  46.7250328  50.2730789  30.6538582  59.5187759  69.0715790
  29.7076263  59.6467857  69.1385803  30.9642010  60.2791557  68.5799103
  62.3831673  42.9889183  56.0155258  62.7616730  42.4980583  56.7449265
  61.9988365  42.3191376  55.4499130  20.2269382  69.5396729  13.8512659
  21.0893803  69.2718430  13.5339394  20.0364265  68.9337463  14.5673618
  77.0188980   7.0706596  21.7238007  77.5690765   7.8498292  21.6435757
  77.6018524   6.4017787  22.0829620  60.3257866  11.9992971  28.2986603
  59.4324875  11.7721653  28.5568428  60.8417015  11.2216578  28.5115986
  70.7212753  55.5107193  31.2659206  70.4049530  54.9557838  30.5530319
  70.5307388  56.4032516  30.9772854  17.4567966  54.0982094  11.7463608
  17.7161427  54.2002411  12.6620913  16.8364296  53.3692818  11.7529144
  68.2108994   3.7408717  15.2079363  67.3374176   3.6411066  14.8293791
  68.7659302   3.9871082  14.4679775  83.3352661   7.8445740  66.8328934
  83.0817184   8.7576876  66.6981049  82.5279999   7.3490086  66.6951447
  48.4542580  18.8219967  79.1418991  47.9874725  18.7841988  78.3070831
  49.2461777  19.3246269  78.9509583  21.0931931  27.2375870   9.5706816
  20.3861351  27.0880527   8.9430332  21.8946609  27.0971947   9.0665283
  47.5329933  38.2996521  47.3353806  47.5464401  39.1350174  46.8682442
  46.6394119  37.9759445  47.2215652  49.9801903  22.5941906  45.6498871
  50.8754578  22.3617821  45.8962936  49.4740486  22.4843616  46.4548645
  12.1582928  32.8533173   4.3650846  11.8340769  33.7078056   4.6496315
  12.5662994  33.0226021   3.5159054  21.3941879  70.1552963  56.8990097
  21.1825199  70.4224243  56.0045433  20.5497932  70.1361313  57.3494110
  66.3994064  15.8932095   3.7260530  67.3480301  16.0182838   3.7526264
  66.1989517  15.4102077   4.5277758  35.7272682  43.9929886  73.9244232
  35.1052094  44.4024849  73.3230972  35.4515572  44.2884750  74.7921219
  77.4583511  61.2447777  76.3270035  77.7455292  60.4392700  76.7570267
  77.9971085  61.3001328  75.5377579  44.6626854  41.6223640  59.5957909
  44.3581200  40.8882904  59.0623016  44.1038513  41.6019516  60.3726540
  14.4543438   2.4653821   5.7680216  14.0319233   3.1999588   5.3228364
  14.4430542   1.7568232   5.1245551   2.5302424  29.5051117  75.4860077
   3.1675835  28.8145676  75.3038559   2.4231069  29.4873714  76.4370270
  66.3889084  36.8130836  15.8057919  65.7971878  37.5653114  15.7898989
  67.2201538  37.1688232  16.1199780  23.8971004  39.5625877  84.0515900
  23.4251652  39.8997841  84.8130417  24.1552658  40.3448486  83.5641022
  46.3959465  34.1812210  37.6937599  46.7903595  34.9912720  37.3705101
  45.5598068  34.4555931  38.0703468   7.4555326  15.0407104  54.4696922
   6.9173446  15.7921705  54.2209091   8.2360535  15.1127386  53.9202995
  22.1951084   8.0789137   5.9886560  21.7799397   7.5211191   5.3308330
  21.9596767   7.6782632   6.8254852  40.4786453  35.3607178  14.5850153
  40.2254868  34.4807549  14.3060646  40.3305550  35.3640747  15.5306845
  60.5909920  12.3502159  47.4312782  60.3773079  13.1769562  46.9987602
  61.5398598  12.3819609  47.5532379  54.2267303  70.6869659  77.8245087
  53.6617432  71.2942734  77.3467941  55.0978622  70.8283539  77.4538727
  59.7859497  13.6887074  10.1187229  59.8735199  14.1896763   9.3078012
  59.7369576  12.7765703   9.8326511  37.6133881  49.0723991  25.0339127
  38.4081688  49.2313499  24.5247078  37.8801041  49.2088242  25.9430237
  74.9796448   6.2764487  31.3463726  75.8344193   6.5091901  31.7089005
  74.9168625   6.7831326  30.5367050  19.6753101  46.1891937   3.5726297
  20.2682400  46.9396324   3.5338039  20.1186237  45.5630379   4.1450248
  59.5304489  20.5630093  54.0192833  58.8684425  20.8916531  53.4110336
  60.0107994  21.3436375  54.2951813  82.7947998  55.6614227  88.0863342
  83.4162292  55.2940674  88.7149124  82.0354767  55.9061089  88.6152878
  10.6586933  23.5712814  79.4965973  10.6507015  23.0676327  80.3105469
   9.8076887  23.3930340  79.0962830  25.0243301  56.3732224  72.8605881
  25.6353226  55.6633835  72.6629868  25.0759659  56.9523201  72.1001816
  24.3229122  30.1838379  20.1041565  24.7597713  29.3696938  20.3542633
  24.3955574  30.2113323  19.1501141  19.3891754  19.6660252  19.4805069
  18.6284771  20.1029568  19.0975418  19.2972736  18.7503986  19.2170429
  46.6588860  18.7255096  76.8796692  46.2942314  19.5469017  76.5501709
  45.9004440  18.1504841  76.9813690  56.4768372  68.8677750   5.2959571
  56.0235291  68.5860367   4.5013738  57.2908859  69.2605133   4.9808149
  40.3537407  11.2553034  83.1600647  39.4564323  10.9230413  83.1858597
  40.2559509  12.2003660  83.0437622  46.9182091  27.8055458  16.3915825
  47.7653618  28.0222588  16.0022297  46.5013313  28.6533813  16.5452747
   3.9904420  34.6693306  36.4890175   4.7465515  34.4430466  37.0306129
   3.5229466  35.3333054  36.9957848  15.9064007  33.2247925  63.3036690
  15.9367466  32.6800079  64.0901337  16.3672791  34.0267792  63.5499153
  76.4492264  61.3518791  38.9812965  76.0193787  62.0575562  38.4980965
  76.6067505  61.7186623  39.8512878  27.5798054  38.8485909  16.5483608
  28.5058708  39.0789185  16.6230659  27.5227680  38.3461571  15.7356253
  65.4811783  16.2451458  84.2386398  65.1121750  16.9183445  84.8103714
  65.3226395  15.4232960  84.7030334  70.9216843  41.5323677  84.0645218
  70.5520554  40.9771652  83.3779678  70.7296982  41.0666389  84.8784485
  28.6367989  46.4004097  42.1012421  28.2291813  46.9697800  42.7538490
  29.5765285  46.5473785  42.2086716  26.8649826   0.5904779  85.9725189
  27.2255287   0.8070724  85.1126785  27.0187054  -0.3495809  86.0668106
  22.3494892  34.5743599  17.7894230  23.2290192  34.9500198  17.8286285
  22.0756092  34.7001228  16.8809052  44.7563858  16.2521362  74.6271896
  45.3386955  15.5410614  74.8946228  45.2280273  16.6956139  73.9221268
  47.7763443  36.9010048  28.8889027  48.1087837  36.0128860  29.0191574
  47.6991539  37.2599030  29.7729092  41.6902504  25.1847973  22.0317707
  42.1422195  25.1846790  21.1879959  40.7702408  25.3294487  21.8106518
  19.4938698  34.6003036  86.0925293  19.1160316  33.8961639  86.6194687
  20.3876591  34.3100662  85.9104996  49.9134674  70.7892609  44.3354836
  50.2251930  70.6402893  45.2281570  50.4599800  70.2207489  43.7929420
  57.1909103  18.1089592  84.2172394  56.2440872  18.1990471  84.1093445
  57.2917404  17.5056744  84.9535217  20.6012478  38.5063133  75.3805008
  20.1685772  37.7517624  74.9809036  21.4955769  38.2088394  75.5475922
  66.7933578  28.4532299  18.5692959  66.1284180  28.6310596  17.9041119
  66.8064041  27.4991856  18.6458569  54.1911926  23.7235165  78.0195084
  54.8677673  23.4185066  78.6240311  54.0327911  24.6320248  78.2759323
  54.0807381   0.3073124  39.4602394  54.6587601  -0.1161131  40.0949287
  53.5129242   0.8672326  39.9896812  20.1868839   5.3373079   5.6988211
  19.3082066   5.6286044   5.9423437  20.7469044   5.6430120   6.4123716
  40.3532257  41.9366608  87.6336975  40.4844704  41.0989685  87.1895447
  40.4735794  41.7369614  88.5620651  72.8045044  68.3646774  43.5792503
  72.4811249  67.5910950  44.0410080  73.6617050  68.1023788  43.2436447
  55.4920845  58.5132179   5.1962013  56.1002197  58.4587746   5.9333854
  54.6254883  58.4289284   5.5938721  81.5289001  33.7890816  54.5194168
  81.7368774  33.1046371  53.8834000  80.5863419  33.7042274  54.6629868
  63.2554359  14.7861910  18.0190849  63.3227768  15.4525194  17.3351955
  63.7331429  14.0343151  17.6687832  70.0762787  35.2885246  32.8732300
  69.4212875  34.6571198  33.1707993  70.3769455  35.7173233  33.6744576
  75.0387497   8.9299316  17.1796951  75.5616074   8.5271959  17.8729916
  74.9873886   8.2595892  16.4983482  29.9778843   0.8049571  26.3821621
  29.9223537   0.0867808  25.7517891  29.5994549   1.5554572  25.9241543
  23.3805904  71.2826920  19.5124493  23.7379341  71.7937088  20.2386742
  23.0797253  70.4691544  19.9172554  79.4623413  61.2971573  27.8969440
  79.3824081  60.6486015  28.5963840  80.3875198  61.2731400  27.6526184
   4.8617935   8.7899466  60.0405693   5.4840403   8.7520876  59.3142052
   4.1238341   8.2529364  59.7520065  32.2257500  29.9535332  76.8665009
  32.5617485  29.1498165  77.2632065  32.4478149  30.6413670  77.4940414
  80.2374115   8.5271568  87.7243271  80.8353577   8.7364397  87.0067673
  79.4661484   8.1585474  87.2936172  71.3585510   5.6731386  17.0037308
  71.8047943   4.8484473  17.1960545  70.5352020   5.4097629  16.5926914
  42.6825905  61.4928932  18.5798607  42.6527214  60.8857613  17.8404484
  42.9726181  62.3213158  18.1979809  19.2701797  70.0283661  78.1515350
  19.9944000  70.6170349  78.3641434  18.5180435  70.6079254  78.0305710
  71.2624817  12.9197712  81.5950165  70.7190704  12.7339401  82.3607864
  70.6791840  12.7829447  80.8485031  65.8309326  33.6864281  80.4586487
  65.5589371  34.5774727  80.6783981  65.7941284  33.2129402  81.2897263
  54.9999886  32.6599045  14.5819855  54.6370735  33.3664665  15.1161175
  55.2598114  31.9904461  15.2148743   9.5427952   3.3950431  76.0968094
   9.9236298   2.8407505  76.7779541   9.2171822   2.7787535  75.4407654
   4.6979976  70.1604919  41.3217278   4.5394516  69.9863358  40.3939552
   5.4864426  69.6585846  41.5283165  19.7190228  57.0082436   8.5111189
  19.8581924  56.3975449   7.7873025  18.9291515  57.4913673   8.2683687
  27.5316410   7.1036143  74.0965500  27.5952835   7.9959931  74.4369049
  26.8578224   6.6892042  74.6354980  60.5602417  57.3870697  22.7974987
  60.5629997  56.7410774  23.5038395  61.0059624  56.9502754  22.0717068
  61.3508377  22.0102253  10.8109064  61.6166191  22.3758430  11.6546574
  61.9730301  21.3007011  10.6506519   3.0135291  28.6578922  68.3207245
   3.0738742  29.6121769  68.3646469   3.8744366  28.3775024  68.0101547
  45.9517479  62.4306717  48.6420822  46.1449013  62.5075760  47.7077332
  45.1315308  62.9104500  48.7573776  39.4212112  38.4685936  67.2881699
  39.6143761  38.1566696  66.4040756  39.6656570  39.3939552  67.2744064
  64.8253021  62.1034164  71.7677155  65.5684891  62.1672249  72.3675690
  65.0858917  61.4352913  71.1337357  45.7737656  69.7016525  16.6865654
  44.8516273  69.8136444  16.4555893  45.9529762  68.7770920  16.5153923
  38.4070435  42.1791344  20.8739357  37.7631073  42.8413544  21.1250210
  38.2788277  41.4695663  21.5034637  80.3809967  58.0244408  52.7663383
  79.8259506  57.8404579  52.0085030  80.6632004  58.9306259  52.6421661
  11.8976164  33.6307259  50.4100266  11.9621544  32.7245865  50.7116508
  12.2214699  34.1514511  51.1450081  73.5101395  57.4559822   8.5133591
  72.5620728  57.3825150   8.6228924  73.6640701  58.3912544   8.3799257
   9.9984531  29.8194599  25.6289253  10.7289133  29.2169094  25.4889565
   9.3443489  29.2987251  26.0949860  17.4586926   6.3871598  60.0143776
  16.6879368   6.9212065  59.8221245  17.8525982   6.8025436  60.7815323
  45.5578804   2.1029537  16.7366028  45.8689880   1.4898880  16.0705738
  45.8355522   2.9623480  16.4194698  48.5635414  26.3346977   2.8996503
  49.0777397  27.1358910   2.8000474  48.8316498  25.9819641   3.7481375
  81.9061966  20.4237862  68.3982010  81.2585220  20.9991398  68.8052902
  81.4041290  19.9046078  67.7700195  14.9240017  38.7222824  69.1769867
  15.4793348  38.1315575  69.6857910  14.2482224  38.1551819  68.8055725
  39.9841537   0.6535126  11.4230480  40.7553024   1.0481358  11.0158224
  40.1773529  -0.2837614  11.4436178  17.0356522  52.6461449  83.2336349
  17.1932087  52.2487259  82.3772049  16.0827103  52.7116699  83.2956085
  75.3962250  48.7113419  42.0468636  75.5209351  49.1305389  42.8983078
  75.6329346  47.7955856  42.1937943   6.0913043  32.2512360  16.5698605
   6.5800414  33.0252495  16.8496284   6.6852798  31.7955894  15.9733620
  53.2563057  46.7571602  31.0412846  53.0083885  47.6653709  31.2142620
  52.4697952  46.3615913  30.6655655  11.6237583  42.8628616  72.2504501
  12.1972980  42.7767410  71.4889603  11.9333277  42.1932716  72.8604126
  73.6957626  64.7494888  67.8840485  73.2818069  65.1714401  68.6369247
  73.6600571  63.8141174  68.0841370  42.0681763  67.7417145  15.6810522
  41.8449593  68.6585464  15.8417521  41.4091949  67.2460175  16.1671219
  53.5240593  69.6697159  83.6606140  54.0212669  69.7829514  84.4706726
  52.9928970  68.8881073  83.8128738  74.9864655   4.6200857   9.0476818
  74.7108841   3.7407970   8.7885723  74.2397690   4.9720569   9.5322342
  52.3924751  43.6248665  22.5248680  51.4924927  43.8814735  22.7258949
  52.3521194  43.2923508  21.6281872  81.1663437   2.9487262  75.8979416
  81.3674774   2.3649247  75.1665421  81.2736359   3.8292036  75.5381088
  12.0355997   3.6354935  67.6873169  11.5391273   4.0435195  68.3967285
  11.3974457   3.0839655  67.2347641   9.5018911  19.0515099  76.0796661
  10.2109060  18.9762936  76.7183151   9.9466305  19.1858349  75.2427750
  70.3182526   5.2646875  13.8788624  70.8465576   5.6624188  13.1868105
  69.9953232   6.0067196  14.3900747  43.7271194  39.8957558  23.6682587
  43.2930489  40.7336884  23.5080090  44.6522217  40.1204453  23.7679367
  66.8889465  41.6439247  14.5919638  66.6824036  42.4309273  14.0877838
  66.0699692  41.4212494  15.0346022   6.4745412  11.6662197  69.8570328
   6.8908138  11.8706055  70.6943970   5.9416366  10.8917618  70.0371933
   1.6095301  45.5130081  33.0149574   1.0781628  46.2615623  33.2861595
   1.1556232  44.7527733  33.3786125  66.2838669   1.1616937  56.7095222
  65.9523239   2.0509408  56.5848236  65.5940933   0.5976634  56.3597832
  39.1340065  53.6923447  10.1117830  39.7505264  54.4163055  10.2213869
  38.8571472  53.7498856   9.1973057  61.2471733  11.7415257  12.0623770
  60.6502190  11.3352470  11.4340363  61.4370499  11.0486174  12.6948776
  56.2768402  62.0965347  31.6017780  56.1959915  63.0497665  31.6341190
  57.1717758  61.9421883  31.2992935  13.3743572  12.1335230  78.3511734
  13.2878189  11.8035402  77.4568253  14.1441717  12.7017174  78.3233795
  34.6946869  21.1317329  85.0892715  35.4663544  20.6178913  84.8510818
  35.0055237  22.0369015  85.1060944  14.6616564  71.2683487  68.6068573
  15.6089211  71.3856735  68.6786652  14.5547028  70.3711166  68.2910004
  61.1449394  49.9291382  47.2319069  61.1707191  50.8446465  47.5101395
  61.6859665  49.9033318  46.4426956   3.2077010  58.5363617  26.3498688
   3.3355112  58.1888542  27.2325535   3.0335078  57.7643700  25.8114300
  77.0246429  69.0196915  36.8905716  77.6484375  68.2969666  36.8214455
  77.4366760  69.6344757  37.4976158   4.1286626  15.3936729  69.4890976
   3.2155793  15.6440153  69.3482513   4.5542870  16.1977272  69.7867126
  32.7738342  69.2584457  82.4696884  33.1903229  69.3557053  83.3260193
  31.8872776  69.5970001  82.5947037  76.8660889  34.0633163  23.7540321
  76.8346786  34.3702087  24.6601582  76.8441849  33.1088943  23.8235092
  76.0839386  50.0086174  59.7824669  75.5085754  49.4162102  59.2984810
  76.2943420  49.5341797  60.5867500  36.7234879  68.5923462  57.0822372
  37.4064140  68.6001892  57.7528992  36.5309219  69.5168076  56.9256744
  16.0497322  65.9326935  80.4378891  16.2465191  66.7938385  80.8065872
  15.0979614  65.8555298  80.5043030  12.2737112   4.3432570   8.3662024
  12.3623028   5.0963035   7.7819896  12.1779099   4.7264915   9.2380877
  77.6906891  26.6525593  61.1940956  77.4836273  26.8174763  60.2742271
  77.0607758  25.9848537  61.4654083  19.3871326   3.2966721  14.7675524
  19.1757126   4.2201157  14.9046116  20.3372631   3.2830491  14.6522427
  10.9471979  10.5433102   3.4106860  11.1543570   9.6159534   3.2952456
  11.1215754  10.9359617   2.5553212  55.1659737  70.0128403  27.1350021
  54.6174316  69.8962479  27.9107208  55.9278183  70.4984894  27.4511852
  33.8353577  65.1954727  45.0354156  33.4774208  65.6563721  44.2766724
  34.0212288  65.8873901  45.6701927  71.1762848  40.1466408  46.2977409
  71.8475189  40.6991043  45.8971672  71.3238678  40.2350845  47.2393532
  34.4871407  67.9313736  37.9953651  34.7829704  68.5879593  38.6259270
  33.5733032  67.7691116  38.2294655  30.8269768  46.8621674  48.8017578
  31.1559620  46.8187065  49.6995926  30.2557888  46.0985641  48.7187424
  55.9512711   1.9849606  89.1766815  55.3141823   2.0439522  88.4647369
  56.6719017   2.5513508  88.9007721  43.4920464  62.2453232  43.6893349
  43.3504448  62.7733002  44.4750938  42.7519150  62.4584351  43.1209869
   6.6260600   1.3576365  71.6301956   6.4956393   2.1099825  72.2074280
   7.5433650   1.1150597  71.7564468  51.9016342  31.9480171  33.7131462
  51.9200478  31.0034904  33.8672981  50.9716873  32.1590729  33.6301880
  71.2615509   7.0702772  29.6376247  70.6690674   7.1458731  30.3856087
  70.7455978   6.6215949  28.9677715  61.9026108   1.5546112   7.5507445
  62.5727768   2.2277358   7.6691151  61.0949707   2.0450318   7.3976436
  36.7400246  71.7673340  70.7638092  36.2721901  70.9419250  70.6370468
  37.6286011  71.5887222  70.4559784  80.9471512  12.2961025  38.3748169
  80.7687836  12.2337513  39.3131828  81.9022064  12.3136892  38.3132057
  68.5238495  65.5153503  71.7182846  69.2119980  64.9302750  72.0351181
  68.3839951  66.1319046  72.4369888  20.1867046  13.1165867  59.3188019
  20.4154148  12.1876535  59.2870674  19.3305359  13.1671104  58.8937683
  71.2978363  25.5066319  83.1272659  71.0495758  24.6106224  83.3547897
  70.4666290  25.9774437  83.0667725   6.7245011  51.6342735  21.9834881
   7.6604199  51.7144585  21.7994843   6.5367966  52.3525467  22.5877075
  19.7845058  46.7267876  35.8311958  19.9530296  47.6467018  35.6272583
  19.0580788  46.4834290  35.2573395  56.4803734  54.4089432  26.8233337
  55.9944534  53.8826675  27.4582691  57.0967293  53.7945747  26.4247265
  64.2922134  42.1218758  46.2614021  64.0822372  43.0541306  46.2062607
  65.0564957  42.0820999  46.8363075  49.3075104  30.6875229  79.7547684
  48.6024628  30.1042900  79.4737396  49.8061562  30.8623943  78.9566422
  79.7229385   1.2964323  41.6036148  79.6056900   2.2395298  41.4893684
  80.3130951   1.0408256  40.8946648  54.0794487  39.7832336  14.6622381
  53.6239014  38.9812508  14.9182415  55.0053215  39.5902519  14.8097019
   0.7676845  31.6761913  33.3162003   0.1631139  30.9771957  33.5654640
   0.2147172  32.4531898  33.2341652  78.0894470  27.3394260  40.1326294
  78.1552124  28.2913151  40.2088852  78.7787933  27.1005955  39.5129623
  12.9517555  51.3990936  46.7253723  13.6447382  50.7546234  46.5816307
  12.1582394  50.8761063  46.8395958  85.9730530  47.6710014  78.9970627
  85.1780548  47.2576485  78.6604004  86.1316376  47.2376213  79.8356705
  59.6443901   4.6781020  85.5328140  59.2021866   5.5051770  85.3414078
  60.2105293   4.8762345  86.2787781  39.8328781  28.6146011  17.8633671
  39.1306343  28.8225994  17.2470703  39.6706848  27.7049179  18.1131630
  19.2661266  42.0799141  79.9407043  20.0646801  41.7087936  79.5654526
  19.4834003  42.2358742  80.8597794  67.6922226   3.3760371  50.8050728
  66.8681717   3.8200357  50.6049728  67.5333252   2.9426944  51.6436424
  68.0790482  33.8039742  23.3835163  67.8595200  34.7349281  23.4205151
  69.0150528  33.7863541  23.1839714  54.6247101   2.7208238  26.0735397
  53.7482071   2.9910376  26.3473282  54.4867249   2.2674348  25.2418976
   6.0768418  46.5948181  45.7570419   6.4288840  46.9554558  46.5708199
   5.3290901  46.0650673  46.0335617  54.2949600  64.8690414  70.0063171
  54.3830643  65.1312714  70.9226685  53.7316284  64.0955811  70.0316315
   8.5668001  60.7340660   5.5010781   8.8765974  61.6324081   5.6161437
   9.3453856  60.1933441   5.6339545  52.9646301  20.1253834  53.9610863
  52.6104469  20.3450375  53.0993843  52.6686172  19.2291470  54.1203575
  38.7744331  47.3542404  32.9201469  38.4411697  46.4585342  32.8665352
  39.5781784  47.2803497  33.4347038  58.2039948  36.3065262   2.9072394
  58.7596474  37.0777969   2.7948627  57.4512978  36.4686890   2.3385746
  83.2858658  46.7279930  36.0548630  83.9919357  47.3740158  36.0736122
  83.6592560  45.9784813  35.5911369  64.0778656  21.8259144   5.3032541
  64.3792572  20.9210453   5.2219548  64.8818436  22.3447742   5.3286829
  71.6392441  28.5908909  57.6487350  71.9127426  28.5160961  58.5629768
  71.4319077  27.6939335  57.3866119  23.2600060  68.8447647  69.8428879
  22.6965961  69.0236588  69.0900269  22.7196331  68.3103638  70.4248123
  50.5567932   1.6784869  34.3636971  49.8345032   2.2529724  34.6176567
  50.6101418   1.7671626  33.4121056  84.0728226  15.3203745  68.8804474
  84.6695633  15.8139229  68.3178253  84.4636993  14.4484959  68.9376755
  70.7232361  39.4324074  28.1157570  71.6310654  39.5553360  27.8383179
  70.7723618  38.7786140  28.8131618  14.5314178  54.6246033  24.1398964
  14.7669582  54.3835411  23.2439938  14.3505306  55.5635147  24.0956020
  51.1912918  69.3960037  86.0034866  51.9156342  68.7961502  85.8253326
  51.5140114  70.2517700  85.7210770   0.7813201  13.6378307  66.1371231
  -0.1692187  13.5696611  66.0473480   1.0497165  12.7905159  66.4924469
  80.0099182  62.7911911  66.5235748  80.9291992  62.9261665  66.7536621
  80.0106964  62.7137413  65.5695114  76.6842194  39.6241493  89.2753601
  77.1890640  39.2510986  88.5527344  76.9570847  40.5409813  89.3099442
  45.4877663  41.5299988  86.1321793  45.8804169  40.9911995  86.8190231
  45.4512482  42.4091721  86.5089417  35.2849159  52.4294510  40.2562370
  35.3090591  52.7276154  41.1654930  36.1671638  52.0977097  40.0894508
  12.7535467  34.9463692  18.2333946  12.9343882  35.1048126  19.1599064
  11.8746595  34.5673370  18.2223129  74.7619324  46.0520592  36.0602150
  74.7287445  45.6843567  35.1770821  75.6917572  46.2175751  36.2159615
  21.7490540  47.1700706  60.4621658  21.1974316  46.6591034  61.0544930
  22.4962330  47.4343529  60.9989243  33.8929291  44.9261627  20.9322586
  34.1465302  45.8406029  20.8069000  33.1438789  44.9647141  21.5269604
  71.7982788   5.1358929  20.8860817  72.4253540   5.5393772  21.4862576
  72.2731705   4.3977537  20.5041580   8.1972561  25.6141300  70.4727936
   8.6220627  25.0968189  69.7885742   8.5824432  25.2944736  71.2886887
  53.6815796  20.2219143  79.8687363  53.0001221  19.5546799  79.7872162
  53.9725189  20.1572266  80.7783508  47.6821480  26.4415016  22.1541939
  47.4188385  25.7140427  22.7178459  46.8616524  26.7663059  21.7833538
   2.7471058  49.8940697   9.4966154   1.9727963  49.9477730   8.9364433
   2.9079101  48.9554749   9.5936251  29.1719398  36.7802582  64.9486847
  28.5811520  36.3978271  64.2998734  29.7673492  36.0673904  65.1800613
  11.4277287  46.3593407  85.3011780  11.7253704  46.9846840  84.6404266
  11.5055370  46.8315811  86.1301346  80.6053848  22.5268459  69.8983307
  80.7700577  23.4531651  69.7221146  80.5121689  22.4768982  70.8496704
   9.1707554  14.3857670   2.1417267   8.4587917  13.7993965   1.8857794
   8.9783077  14.6133785   3.0513356   0.3047796  40.0928955  53.4514999
  -0.6197252  40.3295403  53.5258141   0.3881366  39.2887955  53.9640465
  23.0270977   9.0414248   0.1696125  23.6613255   8.3834133  -0.1150050
  23.1568794   9.1056671   1.1157950  73.1519012  26.7854805  49.5257301
  73.6610489  27.2007313  50.2218323  72.2398682  26.9491539  49.7658310
  63.2230835  31.1457443  35.7341042  63.9825783  31.4023323  35.2110748
  63.1339989  30.2049866  35.5815582   3.9466496  66.4870148  20.8108711
   3.5645046  65.9904251  21.5344696   4.2334061  67.3087082  21.2093887
  62.6563339  54.9267006  74.1340179  62.0946007  55.4540443  74.7019882
  62.3357582  54.0315628  74.2444229  84.0427170  20.2051468  46.7512665
  84.5193100  19.3802643  46.6582031  83.2203445  20.0607414  46.2832069
   3.5466278  60.8052979  63.0786057   2.7565734  60.3454666  62.7947044
   3.2864640  61.2542648  63.8829536  24.7085228  59.2763062  81.7381058
  24.6882610  60.2287750  81.6452637  25.0187664  59.1293030  82.6316223
  18.1435776  59.5800552  27.1248074  18.2891960  58.6929321  27.4534969
  17.3766479  59.5023460  26.5573463   7.8246903  43.2254639  35.7485313
   8.7684631  43.2338409  35.5889854   7.6565876  42.3711891  36.1462555
  36.3900070  51.8187523  12.5491095  36.6669922  51.5481415  13.4244843
  35.4735909  51.5479698  12.4934740  43.6761284  19.0398140  -0.0164196
  43.5960960  19.9923935  -0.0656145  44.5133438  18.8921967   0.4234726
   5.6152062  22.8881474  84.2685852   4.6909580  22.9571075  84.5078354
   5.8002563  21.9493980  84.2957840   1.6569170  14.4263029  20.3939209
   1.1321914  15.0367413  20.9118595   2.4308529  14.9299564  20.1417542
   9.8584948  36.6244850   0.7030852   9.2267752  35.9437447   0.4712370
   9.9407492  37.1548691  -0.0894799  57.8213806  47.5455627  41.4020691
  56.9946098  47.8870049  41.0613403  57.5748825  46.7529564  41.8787766
  39.3231773   5.6014457  13.5366917  39.4655304   5.4049473  12.6107559
  38.7134209   6.3392954  13.5339642  37.4566345  17.8054752  78.2266083
  37.9126816  17.2078705  77.6340561  36.8994598  18.3321419  77.6535339
  38.9661026  22.3252583   3.6314869  38.7836838  22.9429550   2.9233856
  38.1355438  22.2468319   4.1008029   8.1568918  11.4591551  24.8473892
   8.0050974  12.3896351  25.0129147   7.4950132  11.0110970  25.3740692
   1.0666503  22.2870331  35.4411316   0.8653049  21.5769444  36.0506096
   1.9698299  22.5292969  35.6455994  36.1648674  35.3461876   1.7919663
  35.3705978  34.9885788   1.3951290  36.8759766  35.0196381   1.2406749
  49.3892937  35.8404007  46.4846687  49.0090256  36.6625137  46.7941170
  48.6340141  35.2866821  46.2867355  23.0085144  58.6091881  61.2861137
  22.6735268  59.5040283  61.3433456  23.7326698  58.6639557  60.6625519
  49.2090569  58.9733963  39.2169762  48.6812668  58.9600410  40.0154076
  49.9902229  58.4661674  39.4377289  38.9631157  24.0689831  12.7931566
  39.7335281  24.5606556  13.0776882  39.3195229  23.2760315  12.3926134
  31.5732803  42.8381691  54.0674896  31.2156811  42.3513794  54.8100471
  30.8988094  42.7732697  53.3913918  34.1982956   0.5445997  41.0027351
  35.0031853   0.4729766  41.5158195  34.3756676   0.0422012  40.2075195
  70.8814392  65.1156769  26.4925747  71.8314819  65.0145187  26.4340858
  70.6890030  65.0345993  27.4267197  35.6885071  22.1214771  77.8996048
  36.2659149  22.8750420  78.0219650  34.8116798  22.4997559  77.8339767
  67.3196945   7.6806464  72.7854843  67.6266098   7.2042828  73.5569153
  66.5318604   7.2109675  72.5117035  73.5683517  29.5559845  55.4773254
  74.0274353  29.1103077  56.1892548  74.2344666  29.6750946  54.8003235
  28.1665173  26.1685257  76.0902176  28.2779408  27.0954666  76.3013992
  28.7188034  26.0301094  75.3207703  62.7945976  66.4104004  55.0879211
  62.0014687  65.9887390  55.4186554  62.4953613  67.2571182  54.7566185
  70.1465530   3.8985872  79.2650757  70.4391556   4.2876253  80.0892563
  69.7434006   4.6237407  78.7877426  79.4851761  53.7416801  43.1386719
  79.5563965  52.7981186  42.9942894  79.3523483  53.8302116  44.0824661
  56.9027328  28.3781166  11.0988951  56.4332504  28.3808041  11.9330482
  57.6003647  29.0232124  11.2146206  56.3043747   7.0099020  82.1092453
  56.6233749   7.5120015  81.3593369  55.4193001   6.7436914  81.8602295
  49.1227379  48.7564430  74.2591324  48.5185928  48.5894203  73.5357056
  49.7000008  47.9929810  74.2702255  58.5173912  12.6513586   2.4160631
  59.1029282  11.8954849   2.3709650  58.7937965  13.2120304   1.6911634
  34.3599167  45.0869141  76.4042130  33.9049187  45.6194992  75.7518616
  34.8680191  45.7167473  76.9154663  22.5480518  54.9325943  72.7836914
  23.3197727  55.4976273  72.7460556  22.2364140  55.0125351  73.6852036
  51.8940201  61.6824875  49.4080925  51.2397308  60.9855423  49.3591156
  52.4739113  61.4168816  50.1218224  41.2719612  36.7800903  21.7837315
  41.8453026  37.4949799  21.5072422  40.4710884  37.2149391  22.0765400
  18.4644547  10.3758793  19.4808578  18.9752960  10.3411942  20.2896042
  18.6281776  11.2518940  19.1315384   4.6493745   5.9833155  35.3290977
   5.1797175   6.5895114  34.8118973   4.2816663   5.3776917  34.6854820
  52.6850243  59.5217209  62.3248634  52.5682526  58.9987488  63.1180191
  51.8689423  59.4046936  61.8385048  53.2728653  23.7340870  48.7717667
  53.5946312  23.0071297  48.2386322  52.8335648  23.3130970  49.5106926
  73.6982803  38.8406105  58.9525566  73.6896133  38.2898598  58.1697235
  73.5403748  39.7258263  58.6243896  24.1570835  67.3429718   1.8174131
  24.9954586  67.4351196   2.2700386  23.5079346  67.6483612   2.4511137
  47.7681160   2.9259257  69.3613968  47.6789246   3.8358119  69.0778732
  47.7684212   2.4206636  68.5484161  48.5360718  13.2815609  46.4068375
  48.9005356  12.4070015  46.2706680  47.7333031  13.2903223  45.8855705
  12.7114725  61.1882820  34.8545418  12.1903906  61.5862274  34.1571541
  12.1536093  60.4930801  35.2034187   9.8969135  71.4863205  26.7674122
   9.1485281  71.7472534  26.2306938   9.5091076  71.0247498  27.5109100
   5.7851229  15.4264803  89.0364456   6.0622535  16.3369846  89.1384888
   5.4645309  15.3731642  88.1361084  10.0111380  61.4549942  80.3231888
   9.5048447  61.8786583  79.6300735   9.9828024  62.0738182  81.0529022
   3.1674109  34.0465126  11.7431593   3.8566628  33.9389153  12.3985882
   2.4955022  34.5655518  12.1851625  44.4282913  46.8045998  26.5810909
  45.2518272  46.3244667  26.4945526  43.9220619  46.2991600  27.2170906
  59.6392746  50.7285919  86.6688004  59.0626907  51.4208527  86.3454514
  59.0777855  49.9553070  86.7235031  64.9155502  51.9574547  54.8549728
  65.4923477  51.4630547  55.4372978  64.8660736  51.4268761  54.0598183
  57.5562935   9.3047323  60.3504906  58.3715858   9.7048416  60.6528778
  56.9243317   9.4956388  61.0436096  22.9561272   8.4895477  64.5847473
  22.6102867   7.6474776  64.2888718  23.1409264   8.3591032  65.5148392
  85.8399048  10.5926600  40.9397926  86.3273239  10.6844034  40.1211128
  85.3203430  11.3942995  41.0003281  14.7348986   7.7267127   9.8130646
  15.4872770   7.8888822   9.2439775  15.0271091   7.0332513  10.4046345
  71.4554977  34.2615318  45.9908409  71.1376266  35.0690384  46.3947296
  71.3310623  33.5921288  46.6636314  77.3418884  53.3146400  10.0839567
  76.6744461  53.6843338   9.5059624  77.1422882  52.3789215  10.1125956
  24.7822342  65.8500137  57.5650444  24.4960938  65.2340164  58.2395096
  25.3935795  66.4321976  58.0162048  23.9000092  32.8503113  74.5076218
  23.0680332  32.4422112  74.7474136  23.7399540  33.7899475  74.5953751
  15.4328575  51.0344391  20.1510735  16.2471447  50.6947136  20.5222301
  15.0195189  51.5075493  20.8732567  16.2926121  43.1442451  16.6484871
  16.5977135  42.2389336  16.7081509  17.0930481  43.6686935  16.6705475
  17.2804909  46.8662987   4.5719390  18.1597748  46.6478767   4.2630944
  16.7102203  46.6719627   3.8281264  19.4198418  71.2713470   1.7815317
  20.1528549  71.6277542   2.2834272  19.3108406  71.8805695   1.0513226
  35.0827026  31.1820164  70.3238144  34.8031693  31.3711815  71.2195358
  34.2663536  31.0892391  69.8326950  76.4286575  69.1343079  68.3426208
  76.3759537  69.9823914  67.9019318  75.5192642  68.9099350  68.5398254
  53.6655388  24.1795444  44.6379013  54.0028763  23.6499615  43.9154205
  54.4310188  24.6502495  44.9676094  45.7010155  31.7521477  27.1142387
  45.2794914  30.9669151  27.4634628  45.7391129  31.6034641  26.1694241
  18.9926529  36.9279633  20.8687897  18.1774540  36.7372856  20.4047565
  18.9423695  36.4023399  21.6671753   4.6063066  29.2436123  23.9562912
   4.8519425  28.9482613  23.0795574   5.4027514  29.6427021  24.3064823
   2.7205017  13.9690447  16.2047520   2.8195992  13.6347370  15.3133211
   3.1715086  14.8132830  16.1954632  61.7782402  65.8898468  63.4469719
  61.0093040  65.6582565  63.9678726  61.4351730  66.4464951  62.7479134
  64.8617401  67.3498688  30.6626873  64.2487793  68.0799866  30.5764904
  65.2712173  67.2778473  29.8004990  25.6081715  64.5272903  51.9491272
  25.8675613  64.3792877  52.8585472  25.8422737  63.7160416  51.4982376
  78.2556839  48.8623466   6.4311190  77.5146790  49.0165405   5.8451366
  78.1633301  47.9479065   6.6985245   8.7216272  58.6371956  74.6922302
   9.3472538  58.9972343  74.0635834   8.3839731  57.8479118  74.2688446
   1.7325234  36.9686966  25.9267693   1.8505830  37.3065109  25.0389786
   2.4873910  37.3016701  26.4120903  55.7186394  67.4687500  30.6745396
  56.2037544  68.0965347  30.1390133  55.3542824  67.9933090  31.3875046
  35.3053284  41.7869568  78.9833298  36.0348816  42.3345337  79.2733994
  34.5559502  42.3818092  78.9547882   7.1869493  56.1214714  77.9555893
   7.9046016  56.3633499  78.5410004   7.3034720  55.1827698  77.8089676
  22.5773582  31.2734241   9.3718872  21.8433189  31.1195831   9.9666586
  22.9306126  30.4011936   9.1967916   0.5903633  32.2443237  64.8967743
   0.6064153  32.7707405  64.0974884   0.6218030  32.8856773  65.6066360
  10.7061100   1.7716981  62.3037758   9.8848314   1.4741511  62.6951828
  10.4494076   2.1369078  61.4570427  42.1909180  30.3072395  17.3602562
  41.5446854  30.4771023  18.0456486  41.9344063  30.8842659  16.6408997
  76.7643051  16.5523205  76.2702026  77.0475693  16.3751545  77.1671982
  76.6995010  17.5061817  76.2234802   7.0391364  30.8140812  62.8667374
   6.5671458  31.1622276  63.6232071   7.9327574  30.6805191  63.1827011
  60.4903946  52.8104515  30.2660770  60.4293861  52.1409340  29.5847111
  61.3849640  52.7336960  30.5978699  53.4271126  60.7156754  45.6401520
  54.0693130  60.7762871  44.9329491  53.2257767  59.7818985  45.7014656
  45.7659569  67.2930298  63.7380028  44.8148842  67.1984253  63.6856842
  46.1084442  66.4870224  63.3516159  81.9609146   0.2835948  43.2364731
  81.7804565  -0.5919657  43.5786133  81.1100769   0.6036651  42.9367027
  26.0700588   1.2124205  11.9252272  25.2522812   1.6611738  11.7105398
  26.6738567   1.4682699  11.2279444  81.2598953   5.2839208  58.8510323
  80.9100266   6.1729760  58.7927208  81.5955200   5.2167597  59.7449455
  15.9962234  52.0884666  30.6788731  16.3761044  52.1682205  31.5538368
  16.6894951  52.3843040  30.0888863  69.3790131   1.0723504  60.0912437
  69.5694275   1.1835238  59.1597862  68.4418335   0.8801826  60.1228523
  50.7698059  37.1409569  41.1110878  50.6198349  36.2602196  41.4546585
  49.9446297  37.3762970  40.6869011  47.5444183  39.8817139   8.1746092
  47.7901459  40.1756134   9.0518055  47.0452957  39.0783958   8.3222170
  36.6689377  15.6714468  82.3285141  35.9969292  15.9951925  82.9283676
  36.4207306  16.0282459  81.4756851  49.9479561  35.1312065  61.6458893
  49.8876610  34.1848259  61.7761154  50.7987518  35.3698883  62.0138664
  19.5457153  16.8929691  85.7922134  19.3533955  17.7762299  86.1070099
  18.8291187  16.3565369  86.1312714  45.0975990  16.9775524  69.9682312
  45.2947235  17.2495480  69.0719070  44.8316422  17.7838764  70.4102020
  61.5678215  22.8013725  61.5951157  61.9641151  22.5410843  62.4266434
  62.1898727  22.5056953  60.9303932   7.5752668  46.4025002  89.3783264
   7.2810483  47.1025887  88.7956314   8.0660753  45.8085632  88.8103714
  13.3886709  68.5894852  29.8990059  13.9230719  67.9684143  30.3938961
  13.2394533  69.3141556  30.5063171  10.6332703   4.8920913  30.0949936
   9.7225428   5.1799960  30.1575890  11.1432266   5.6427159  30.3995247
  74.1010437  20.3450565  74.6842270  74.4412918  20.6662674  73.8491898
  73.1866150  20.1280174  74.5027008  66.0867386  38.3224831  65.2313232
  65.8804779  37.5470428  64.7094193  66.8091583  38.0463715  65.7953415
   4.0588551  50.6141586  76.4296570   3.6224442  49.8143921  76.7231750
   3.5703840  50.8816414  75.6511459  44.1357422  62.9879112  53.3047981
  43.4704590  62.3882141  53.6424255  43.9465218  63.8220444  53.7345047
  42.0162735  44.2690544  18.6075726  42.1070175  43.3235054  18.4895325
  42.4124222  44.6475220  17.8226757  28.1055298  50.0564575  52.5502167
  27.6049881  49.3709373  52.9926567  28.7092648  49.5814857  51.9791336
   0.3377540  32.1022987   6.7462358  -0.1276289  32.5998726   6.0738730
  -0.0648863  32.3777885   7.5697765  17.7673435  66.2694092  65.0468903
  18.5680618  66.3955231  65.5559845  17.6879673  65.3197861  64.9566345
  64.6477356  40.0716972  85.1197891  63.7778778  40.4583397  85.0193329
  64.4846191  39.1315842  85.1960526  49.9593201   7.2461944  35.9974594
  49.8406754   7.9523468  35.3622360  49.1126671   6.8002491  36.0207634
  80.2759399  70.7936020   5.9962468  79.3762741  70.6013870   6.2606072
  80.5828552  69.9851990   5.5857253  36.2295570  60.7077370  70.6070480
  36.2781944  61.4850845  71.1634598  37.0610619  60.2565079  70.7527237
  81.6278839  34.5120392  28.9535770  81.5047150  35.4086571  28.6419106
  81.5237656  33.9701653  28.1714268  63.7393913   5.2014012  64.8807755
  63.1870232   5.2830453  64.1033096  64.3552628   5.9311790  64.8147430
  31.6581535   5.1238942  38.7050858  31.2436810   4.7355618  39.4755707
  30.9868698   5.6975174  38.3355370   0.1519140  49.7021637  37.7311211
  -0.1213764  49.9505920  38.6142006   1.0015546  49.2786713  37.8535843
  23.3471336  40.3766060  64.5944061  22.5004368  40.8204079  64.5456924
  23.1727428  39.4920349  64.2729187   0.3545760  45.1570053  84.4310150
   0.1202715  44.2767944  84.1367950   0.9849321  45.0137062  85.1369476
  71.2003860  39.2991943  15.8430929  71.6505737  39.4065666  16.6809673
  70.6204376  40.0583839  15.7837887  80.5603256  39.1148415   2.0474977
  80.5129776  39.4025612   1.1357913  79.8934555  39.6336632   2.4973235
  14.4380093  14.6062851  75.5600128  14.2120771  13.6985245  75.7628860
  15.0435686  14.5430574  74.8214111  12.6263037  54.1917381  20.5316429
  12.9416809  53.4276619  21.0143032  12.9125757  54.9404411  21.0548286
  56.3088455  16.1431007  -0.2137537  56.7114792  16.9733810   0.0407176
  55.8880196  15.8261166   0.5854069  85.3134232   5.0085926  48.2891083
  85.9490509   5.6672688  48.0091820  84.6923141   4.9513354  47.5630417
  43.6061516  51.5109978  42.3858223  42.6570435  51.4402580  42.2837067
  43.7809753  52.4515762  42.3544464  73.4135056  10.4196424  46.1251297
  73.9067764  10.0063219  46.8337059  73.6115723  11.3524675  46.2078209
  27.8324394   6.5867763  61.0739861  27.8790646   6.8316588  61.9981537
  28.6923294   6.2128644  60.8816071  67.1407089  27.9378338  62.0429420
  66.2312241  28.1458511  61.8289375  67.5417557  27.7228031  61.2008286
   5.1181173   8.1418867  24.0465927   4.7825198   8.9065666  23.5787563
   5.6047530   7.6506805  23.3846760  77.1325455  44.0429192  66.7720184
  76.7081985  44.7133713  66.2366104  76.8430099  43.2137527  66.3913803
  21.8990269  30.4341583  72.9759445  22.2046165  31.1521530  73.5303192
  21.3961658  29.8730507  73.5662994  72.1809998  20.5131474   9.1959391
  72.9460220  20.0277805   9.5047970  71.5909500  20.5348911   9.9493322
  39.0777664  60.4324379  81.2716522  38.4185562  60.6896973  80.6270676
  39.5327110  61.2466164  81.4869995  29.6224308  26.1684303   2.9889984
  28.6769180  26.3126564   3.0268745  29.8806629  26.0323467   3.9006066
  75.3670654  57.1231079  57.0878258  74.7968674  57.8504257  57.3370628
  74.9434433  56.3488235  57.4583092  23.8258057  21.5318680  16.2499905
  23.3860703  21.9697895  15.5212297  23.7038002  20.5983276  16.0772228
  77.8137054  49.2337646   2.1881223  78.4549255  48.5395241   2.0361323
  77.4135437  49.0104179   3.0284886  34.4073257  37.2185669  17.7952957
  35.2034149  36.8489151  17.4134159  33.6994934  36.8820801  17.2457657
   8.3894033  46.6207504   5.6680532   8.6196089  45.8643188   5.1285634
   9.0883684  46.6715431   6.3200498  68.8732376  70.7040939  84.2641678
  68.9398804  71.1017303  85.1323090  67.9375763  70.7231674  84.0631714
  17.1038094   1.2498655  14.1793900  17.5435886   1.9378495  14.6788931
  17.3905067   1.3887160  13.2767506  50.1428947  69.2836990  57.7749596
  50.3363914  69.0615540  56.8642197  49.2403717  69.6020813  57.7572784
  63.3815117   0.4132802  57.9436836  63.5582275   1.0918311  58.5952759
  64.1286087  -0.1815758  58.0086861   7.8751554  56.6307640   9.3156338
   8.6380825  56.5221443   9.8834152   7.8939209  57.5538979   9.0632353
  19.0087948  69.0157242  54.4998474  19.2467117  68.0886230  54.5105591
  19.8249950  69.4700546  54.2909660  24.2480831  43.0981483   0.7588793
  25.1462097  43.4285851   0.7385729  23.8923397  43.3183441  -0.1020454
   3.7419112  21.7525730   6.0064878   3.3070517  21.2561626   6.6998172
   4.3843489  21.1433983   5.6426044  68.2803802  25.1085777  38.4178467
  67.5053864  24.8939571  38.9370422  69.0099335  24.7309856  38.9091759
  41.3818245  47.2910767  12.0147638  40.5802841  47.7378387  11.7424192
  41.1116371  46.3853302  12.1659422  22.6624279  65.8421249  69.1656494
  22.6086407  64.8951645  69.2945023  22.0537968  66.2062607  69.8084564
   8.5471935  26.3184223  14.7543669   8.7912483  26.6537628  15.6170464
   8.1530228  27.0682278  14.3086615  32.2079964  58.3913116  47.9659500
  32.2039185  58.3528633  47.0095291  32.9574165  57.8546600  48.2240334
  75.7622070   1.9282734  86.9543076  76.3539047   1.1773546  87.0016403
  75.8019028   2.2071960  86.0395050  19.2486248  49.2280502  23.8589268
  19.8356094  49.8448944  24.2961693  18.6329365  48.9590187  24.5406761
  45.5085068  38.3462334  84.9876709  45.0635376  38.4325294  85.8307571
  44.8839035  38.6929741  84.3505936  70.5725250  14.4943419  41.4101410
  71.0975113  13.7103024  41.5710945  71.1940613  15.1301489  41.0556335
  25.3701096  51.6402283  73.8089447  25.6570854  52.5397110  73.9664459
  24.7008286  51.7179337  73.1290512  54.4865074  29.9018192  84.1572800
  54.1424904  29.0090370  84.1860275  54.1041031  30.2804775  83.3656921
  38.7304039   6.6285219   2.1144345  38.1161041   6.1115422   1.5932820
  38.9036026   6.0887041   2.8856876  28.2937851  11.3301430  70.9641342
  28.4668713  10.9199467  70.1167755  28.9785652  10.9892969  71.5395737
  82.3938675  48.2623749  40.2323799  81.7718277  47.7877808  39.6809692
  82.8952866  48.8002281  39.6195793  46.1777306  14.1024303  75.4935303
  47.0833626  13.8166428  75.6134872  45.7613487  13.9404926  76.3400726
  55.1754379  10.6068954  54.4610367  55.5509377  11.0029182  53.6746559
  55.8212814   9.9546452  54.7324944  78.5551910  36.5886841  85.5424271
  77.8549194  36.8910446  84.9641342  78.1635132  35.8685837  86.0366669
  85.2945709   1.6383969  19.3064709  85.6026001   2.3268294  19.8958836
  85.9235229   1.6417311  18.5849152  66.6031494  45.7818413  65.8702774
  66.5020218  45.1295013  65.1771317  67.4760056  45.6183815  66.2275314
  67.3627548  66.3326187  82.1777573  66.4688187  66.6191025  81.9905624
  67.2587204  65.6190033  82.8071747  15.3832083  62.8990250  63.3002319
  16.0024147  62.6777573  62.6046333  14.6983232  62.2338371  63.2317429
  47.8210258  36.5712662  25.3470211  48.6096458  36.0785599  25.5740719
  47.1431580  36.2167244  25.9223690  71.3405380  30.7558060  25.7593365
  71.9816208  30.0452557  25.7783813  70.4920197  30.3128204  25.7564754
  65.9687576  12.0682497  81.0273056  65.6615829  12.4530077  81.8481827
  65.7531357  11.1387300  81.1030121  82.5611649   8.0639267  85.6646271
  82.2357483   7.2028012  85.4023438  82.9193726   8.4397335  84.8604584
  76.2377396   6.6545272  81.8435822  76.5074539   6.5184608  82.7518616
  77.0350266   6.9394994  81.3971024  84.8482513   3.1609428  55.4108047
  84.9957657   3.9264042  55.9662704  83.9118347   3.1847904  55.2138863
  36.6362076  70.0342865  32.0739174  37.5373993  70.3458633  32.1576424
  36.7103157  69.0800781  32.0889740  37.4523239   5.3182797  15.9731321
  37.7748604   5.0839920  16.8433685  38.2253380   5.2714076  15.4105635
  25.0064011  60.1795311  77.6556244  25.4906864  60.9367905  77.3265991
  25.1470222  60.1981659  78.6022568  60.0122375   8.2942667  66.1012268
  59.3288116   8.8946190  65.8033371  59.8567657   7.4898300  65.6063156
  10.2225685   2.2797036  30.6864128  10.6805363   1.6171823  30.1691475
  10.7040682   3.0897453  30.5184174  51.5058517  12.8656502  11.8663931
  51.7640305  13.5473661  12.4867468  51.7762070  12.0475454  12.2833376
  68.1222382  59.1299744  22.4198627  68.2200623  58.4873466  23.1224957
  67.3547211  59.6440544  22.6706104  39.1986847  28.8269329  -0.0013182
  39.2109909  28.4624500   0.8836859  39.0144882  28.0768528  -0.5667234
  80.4351120  34.8631477  81.3173752  79.5569534  34.4846992  81.2744141
  80.6036301  35.1787071  80.4295425  20.0302105  19.7188854  22.1354218
  19.7757549  19.8838654  21.2275314  20.9719486  19.8891220  22.1549339
  16.4577847  63.4090729  70.2971191  16.8700943  62.5539436  70.1747055
  16.2653866  63.7114601  69.4095459  63.5803833  25.5826187  54.3039894
  64.3765259  25.6921310  53.7839928  62.9093132  25.3394279  53.6662140
  68.3028107   9.3823948  59.1506691  67.8881073  10.1166277  59.6036110
  67.7720642   8.6226587  59.3901291  69.2352753  63.3332558  46.9353409
  70.0553207  63.4069939  47.4235191  69.1759262  62.4059677  46.7054710
  83.6910324  42.4049568  40.6729851  84.1098862  43.1328392  41.1323128
  84.2549820  41.6525230  40.8519630   0.1873661  11.4571609  10.0781546
   1.1019258  11.1976309   9.9665461  -0.0681330  11.8072033   9.2246780
  35.0998611  23.2810192  66.6407318  35.8173180  23.4032917  66.0190048
  34.7446632  24.1600590  66.7724686  35.5218086  39.5037994  72.7914810
  36.3783836  39.7680397  72.4557877  34.9296761  39.6097717  72.0469131
   2.5628195  62.9426613   9.5289459   2.4768779  63.4474983  10.3376389
   1.7300783  62.4778137   9.4471407  66.3252792  17.2518177  19.4738731
  65.3860855  17.3814449  19.6055641  66.3958588  16.8934288  18.5891094
  40.1742630  48.9252625  70.9629440  39.4709663  48.7265396  70.3447876
  40.8652153  48.2982330  70.7492752  59.6809425  32.4771042  72.2011414
  59.8987579  31.5765572  71.9607162  60.4955521  32.9630280  72.0726013
  46.9199715  23.6115761  38.0902786  47.5919914  24.2571239  38.3091164
  47.4107704  22.8511505  37.7786598  15.4274683  63.2488976  89.1658554
  16.0649776  63.9612923  89.1177979  15.4719009  62.8293610  88.3066406
  25.7397823  33.2674408  80.4661026  24.8527584  33.0053101  80.7124939
  25.8359966  34.1508522  80.8218536  85.4186401  55.8448563  16.0035305
  85.4143524  56.3168449  15.1707993  84.5717239  55.3996315  16.0308514
  39.4083481  40.4274330  57.8830223  39.9901733  40.9520683  57.3330498
  39.6726189  40.6365433  58.7789383  51.6911964  30.0641403  36.1429062
  51.2476501  29.5329742  35.4815712  52.5895615  30.1445847  35.8224411
  71.2257233  40.1507568   3.8752294  71.6602249  39.3006783   3.8059425
  70.2931442  39.9502602   3.7956598  86.1207809  56.1883392  79.8641510
  85.4740448  55.5419502  79.5810394  86.7856598  55.6761856  80.3244324
  10.5733261  68.2344513  52.2135506   9.7896280  68.5901489  52.6325150
  11.1721621  68.0554047  52.9385147   2.2928591  69.3755417  46.1738396
   2.5130973  68.4523697  46.2982941   2.3547311  69.5111694  45.2283211
  16.2570362  68.3121414   1.3327953  15.7675085  67.5180130   1.1184385
  16.3688488  68.7584763   0.4934399  37.3905144  54.1059341  23.9502048
  38.1482239  54.6856422  23.8724670  36.7184258  54.6448593  24.3674412
  40.4380112  61.1979332  24.2769184  40.7860947  61.8243713  24.9114647
  39.6343994  60.8698120  24.6803703  58.6193695  70.1484146  24.2852421
  58.0425911  70.7888947  24.7015934  58.3709221  69.3115234  24.6778202
  78.5047073  25.0629501   0.8840067  77.6924515  24.8388691   0.4298541
  78.2672501  25.7960815   1.4517783  26.6993866  40.9961052  30.0793171
  26.1937313  40.4309349  30.6633778  26.4439602  41.8850479  30.3258419
  56.1843834  37.0871429  83.3853149  56.8974648  36.4510918  83.3288498
  55.7067680  36.9852066  82.5620728  26.1685944  18.1336479  87.3600388
  25.2493515  18.2432480  87.1167068  26.4204025  18.9790344  87.7317200
  75.6809464  42.5618439  23.5121212  75.9048996  41.7844429  23.0005302
  74.9875870  42.9883766  23.0085812  28.9547806  51.2660255   1.3481709
  28.5599308  50.4045448   1.2133567  29.2536049  51.5313034   0.4783646
  40.9408684   7.4553990  69.3049698  40.1294365   6.9839559  69.1164169
  40.6722031   8.1763716  69.8743973  58.0523491  11.1160746  52.9295883
  58.2861977  10.2763901  52.5340157  58.6466713  11.2035484  53.6748123
  28.8569107   6.7637606  20.9730186  29.5560799   6.8103223  21.6251125
  28.5430260   7.6645446  20.8936672  35.6822853  68.8494110   0.3718878
  34.9211121  68.3358002   0.6421587  36.3215065  68.1973572   0.0847406
  77.2502594  20.1592445  87.5636292  77.0441208  20.2388821  86.6322861
  78.0191498  19.5897694  87.5909119  26.8811131   4.5240297   5.0752397
  27.2625504   5.2495899   4.5809717  25.9389687   4.6923594   5.0591073
  77.1080322  15.8594742   3.3796475  76.3544464  16.4464302   3.4414737
  76.7395554  15.0269222   3.0841608  75.0683517  52.0622139   2.7394357
  75.0661469  51.3537407   2.0957811  75.9870300  52.1531029   2.9924254
  15.4456129   7.8637133  25.3706055  15.7623692   6.9615107  25.3267002
  16.2392559   8.3924561  25.4530373  26.5497551  59.9856110  55.3354683
  25.7255344  59.5044098  55.4085350  26.6009235  60.4970169  56.1429825
  84.4470596  31.1897449  21.3087540  84.9210892  31.8488331  20.8016720
  85.1329727  30.6832504  21.7437477  64.9436874  16.7617092  32.4825554
  64.2773895  16.9779110  33.1348801  65.0432968  17.5623455  31.9674892
   7.3176503  60.7230110  35.3545990   8.2172804  60.4512100  35.1728783
   6.8290634  59.9028435  35.4241371  29.8906078  46.7569656  69.1399155
  29.5034065  46.6335411  68.2732697  30.3038521  47.6192970  69.0970154
  73.8496017  45.3703461  82.9801941  73.8835907  45.0233574  82.0887451
  74.5145035  44.8729324  83.4563370  54.9663162  45.3641396  17.7826385
  54.4371262  45.6433678  18.5297832  55.6017609  46.0697746  17.6621494
  26.0315247  16.9963036  31.8325558  26.5471439  17.8027573  31.8329906
  26.1007042  16.6682720  30.9359837   5.9359961  68.5946045  21.2374592
   6.0286112  69.3702240  21.7906933   5.8224292  68.9432526  20.3532772
  10.7622128  20.1434078  78.4295349  11.2628765  19.5214806  78.9575272
   9.9050102  20.1820946  78.8537292  55.3919373  36.8153343  80.6684570
  55.0381126  35.9307137  80.5763321  56.1580009  36.8278465  80.0946808
  56.9194145  57.9778137   7.7107897  57.8516502  57.8234329   7.8635330
  56.6129608  58.4041634   8.5111294  67.2158661  16.2735252  70.5408020
  68.0860596  15.9685087  70.7976303  66.8235397  15.5260096  70.0896606
  43.9085960  61.2179756  11.4134722  43.0890427  61.7123680  11.4015226
  44.0767441  61.0554314  12.3416615  34.8512497  57.0117836  22.3705654
  34.2438202  56.9324646  21.6350594  35.6259766  57.4319878  21.9971313
  21.1024208  37.4899597  12.3322840  22.0150394  37.2662544  12.1497612
  21.1367664  38.3895569  12.6575127  25.7674141  56.9488945  80.4727402
  25.2900009  57.0539246  79.6497726  25.3590965  57.5771713  81.0683670
   8.9330702  32.7479668   4.8609080   9.4038534  32.0287743   5.2820477
   8.7190876  32.4160805   3.9889596  22.0256310  14.0013971  69.8390121
  21.2901402  14.4017191  70.3027267  22.6706066  14.7043304  69.7607651
  77.7066116  10.6767902  58.7176514  77.9377518   9.7479801  58.7067947
  78.4694748  11.1178322  58.3438072  79.0707092  40.5804710  73.7260971
  78.5978546  41.3860397  73.5170670  79.5247803  40.7751503  74.5459442
  47.0931168  14.2246361  80.0742874  47.1885681  15.1673002  80.2103271
  46.5117569  14.1495008  79.3175812  81.9081497   8.9250364  45.5934029
  82.7299576   9.4100723  45.6682587  81.3659515   9.2608738  46.3071747
  85.6548538  60.5231361  40.8000717  84.7030716  60.4546013  40.7249489
  85.9281311  60.9583168  39.9925003   5.5632701  23.9639111   0.0026545
   6.0188899  24.2232227   0.8035291   4.8533583  24.5998821  -0.0856557
  61.4960327  25.2159214   0.4968173  61.0057755  25.9427204   0.8810580
  62.1481209  24.9897194   1.1600291  45.9779968  42.3445091   8.9228973
  46.8321266  42.2677231   9.3480997  45.8693504  41.5178757   8.4526806
  72.8657379  30.6072445  33.2799034  73.5049210  31.1946430  32.8766174
  73.0472260  30.6635666  34.2180519  25.5356236  49.0395699  66.9110336
  25.8074188  48.6721230  66.0699921  24.8348331  49.6527138  66.6892700
  70.6974792   8.8321533  26.6889572  70.6992874   9.5344687  26.0385857
  71.0362167   9.2419405  27.4849224   5.6459956  27.9883194  27.6797638
   5.7885885  27.4680214  28.4704533   4.7095037  28.1861362  27.6888714
  23.8636990  28.5989437  15.5917845  23.0877857  28.6225052  15.0317516
  24.3621445  29.3774357  15.3433218  24.5105419  31.9872513  84.1548767
  24.8814449  32.0134544  85.0369034  24.7474480  31.1219997  83.8210373
  84.6420517  25.4993114  41.3938828  84.2232742  24.6630363  41.1901550
  85.4275208  25.5133419  40.8470116  75.8054123  46.8157578  86.3671494
  75.4440460  45.9354477  86.4705887  76.6872025  46.7574310  86.7349548
  29.1206989  43.3739891  39.9193230  28.5063152  44.0856972  39.7397766
  28.7887650  42.9672356  40.7196999  68.4695892   1.9533950  17.1779938
  68.4023438   2.3750403  16.3212986  68.9151840   1.1245711  17.0026989
  25.8715000  35.7235260  81.2813492  25.7291412  35.2335167  82.0912018
  25.3664207  36.5284309  81.3964920  41.4227257  32.2713966  54.1750488
  41.2041092  32.3960037  53.2515182  41.3897667  33.1515503  54.5498505
  39.1427078  71.6773529  29.9671497  38.5529442  71.9291153  29.2564964
  39.0240211  70.7314377  30.0531445  55.2015800  42.3888741  48.4150467
  54.6373596  41.6908913  48.7477684  55.1376152  42.3151283  47.4628372
  26.6414108  40.0011864  51.3991852  26.8026314  40.9250374  51.5908508
  26.1266575  39.6885109  52.1431580  33.4105492  65.5631943  78.6723862
  32.8977280  66.3054504  78.3525467  33.5606804  65.7567749  79.5977097
  37.4083557  65.7352066  73.9283371  37.9810371  65.0894775  74.3422241
  37.9864197  66.4689560  73.7193375  64.5617752  60.8725204  83.0871048
  65.4582825  61.1649475  82.9227982  64.6459732  59.9387207  83.2798691
  79.3983612  28.7020340  62.4340744  79.2889404  28.4857368  63.3600731
  78.8454056  28.0707436  61.9736938  59.4348297  60.5990601  52.8350296
  60.2550697  60.6445351  53.3263245  59.6380119  61.0037270  51.9917068
  44.1642036  25.4206905  69.4180908  43.8017235  26.2671165  69.6796341
  45.0753403  25.4498272  69.7099991  38.3166656  39.9200859  64.1730270
  38.9265099  39.1975708  64.3223267  38.1655159  39.9145088  63.2278519
  35.0783310  62.2413025  30.2401543  35.9450455  62.4482422  30.5897427
  34.9652939  62.8458824  29.5067139  53.7795258  66.3636169  78.7802200
  53.9450073  67.3047562  78.7243881  53.9235344  66.1493759  79.7019577
  50.6875420  12.3858967  49.7526588  51.1040573  12.7196865  50.5472221
  50.6820869  11.4354753  49.8662453  17.7227325  41.6753502  54.0077286
  17.9066753  40.9485245  54.6028061  18.3787956  41.5904083  53.3159218
  58.9520454  57.3587112  33.3204117  59.4320564  56.7745895  32.7333679
  58.5244255  57.9858589  32.7372665  14.6527452   2.6170082  67.5402985
  14.7404213   1.7466745  67.9289627  13.8162413   2.9439857  67.8713226
  37.1279869  71.1052322  17.7354355  37.0138283  70.2584076  17.3040600
  37.0696335  70.9076538  18.6702023  38.9649010  55.3961639  82.8777161
  38.8744011  56.1874352  83.4086914  39.2073784  54.7139854  83.5038681
  68.9336014   6.4501371  28.0814457  68.7600555   7.3913550  28.0665646
  68.5073929   6.1154962  27.2924004  79.4689255  38.0339508  59.3960724
  79.7338562  37.9868431  60.3146706  78.5377579  38.2536049  59.4263191
  67.0307693   3.1240258  28.2591095  67.1585159   3.5492055  29.1071262
  67.8992081   3.1267312  27.8565750  50.4320488  23.8945274  79.8460922
  49.6943474  24.4154415  80.1633835  51.0183449  23.8257408  80.5995865
  80.5176010  45.8429298  23.5636082  80.3310165  44.9425125  23.8294506
  81.4171677  45.9964333  23.8525028  73.4942169  63.4567451   7.4282923
  73.8966293  63.6871033   6.5908980  72.5526581  63.5064430   7.2632709
  10.1423569  50.5855484  63.4698868  10.5250387  49.7154617  63.3570213
   9.2153091  50.4682198  63.2624092  81.0046921  21.2609615   9.0327215
  81.9120102  21.1233730   9.3048820  80.8360291  22.1844883   9.2194910
  34.4250145  38.3047485  56.0973396  34.3093224  37.4014320  56.3920708
  35.0650063  38.6749382  56.7052917  23.2550564  64.5481567  53.9158745
  23.2112274  63.7398491  54.4267044  24.0244465  65.0049515  54.2558899
  32.2338486  62.4490623  22.1069126  31.3962288  62.9073830  22.1744747
  32.5425835  62.3799095  23.0103130  86.1838074  39.9227180  29.9736919
  86.4165955  39.1668663  29.4345016  85.2823868  40.1263390  29.7242718
   6.2206421  60.0247116  16.3890743   6.0026875  60.8509674  16.8203869
   7.0889993  60.1719704  16.0142384  59.3382339  27.8160381  45.1426277
  59.6799812  27.8455410  44.2490005  59.2070351  28.7341881  45.3793182
  21.2605362  46.7907906  64.9346313  21.2197800  45.9093513  65.3056259
  20.7505379  46.7343636  64.1265793  43.6993370  12.9819889  73.5326538
  43.3601799  13.0409803  74.4258118  43.6984215  12.0448914  73.3375092
   2.1037123  70.7767334  18.7286892   1.3702050  71.2934418  19.0621758
   1.7281969  69.9142609  18.5515938  71.1427765  46.7828331  80.8175354
  70.5925064  47.2812920  81.4216614  70.5221863  46.3252640  80.2503204
  24.4141903  47.2987862  82.7210312  23.6870575  46.6825562  82.6329117
  24.1995697  48.0103340  82.1178131  23.2178822  18.8539371  15.8819046
  22.4736996  19.4443207  15.7641392  22.9637337  18.0536060  15.4224358
  17.8621311  53.8210449  27.7785702  17.3112621  54.5639992  27.5320072
  17.6957207  53.1645813  27.1021118  23.5005894  57.8037491  68.7520828
  23.0202160  56.9774971  68.6993561  23.4160309  58.1861229  67.8786621
  72.3301163  70.3214951   9.6275024  71.8353653  69.5634613   9.9387007
  72.2760773  70.2674942   8.6733551  65.7639160  17.7175255  56.7285194
  66.5539551  18.2577362  56.7442741  66.0553207  16.8772926  56.3745117
  27.0924625  61.6561394  22.4969692  26.2552757  62.0782166  22.6898460
  27.4466534  62.1526337  21.7592201  34.3608704  41.5106926  61.0338936
  33.4757919  41.2384491  60.7914963  34.9117737  40.7603569  60.8108826
  23.3932419  46.3547325   6.8593836  24.3253555  46.1881599   6.7192001
  23.2882824  47.2901230   6.6854343  14.8634071  10.3871088  27.1637783
  14.8288021   9.4615536  26.9221554  14.0022907  10.7295675  26.9241295
  54.2466927  50.6842461  45.6159973  54.8720322  51.2487793  46.0704117
  54.7010880  49.8464966  45.5269279  67.4523239  37.5871811  51.5572052
  66.9089432  37.2691040  52.2781715  67.9311142  38.3288269  51.9272766
  24.3619671  67.3712311  87.1905823  24.6560631  68.2318878  87.4889145
  25.0809727  67.0471954  86.6481247   0.4506699  30.4596348  12.9886665
   0.9238290  30.5037708  13.8195724   0.1546821  29.5512695  12.9295511
  33.2919006  32.5570602   2.1411943  33.9243240  32.2277679   1.5025710
  33.3019142  31.9080868   2.8447318  77.5051727  35.8834000  26.2868023
  77.7062607  36.4634781  27.0211754  76.6992722  35.4375305  26.5474758
  82.4239044  38.5756607  19.9971962  82.9861145  39.1609344  20.5047474
  82.0538559  37.9768867  20.6458626  77.8414001  69.9681854  10.7490091
  77.4879379  69.1175461  11.0092335  78.7825699  69.8189697  10.6586332
  21.0403805  56.4273033  16.4670620  21.0913773  56.0168304  15.6038456
  21.8935280  56.2545319  16.8652096  45.7092133  14.1507874  41.8864098
  44.8604012  13.8141441  42.1735039  46.1344299  14.4462385  42.6914787
  34.1853828  58.0944901  14.1812143  33.3845253  57.5717506  14.2212238
  34.8924446  57.4493141  14.1746454  80.5595703  58.4770241  33.7926064
  80.9944458  59.3277130  33.7338943  80.2624588  58.4220963  34.7008667
  67.4290237  18.0265579  41.3209419  67.7769623  18.0688286  42.2116661
  66.8683472  17.2507553  41.3193893  35.3596878  57.3091927   8.3756971
  35.4830170  56.5030746   7.8745027  34.5120277  57.6450653   8.0843277
  23.1082077  41.7515259  85.6726990  23.2036400  42.5824089  86.1382751
  22.1626301  41.6381035  85.5765152  71.4817505  13.9573069  55.2634239
  71.6254959  13.8762445  54.3205566  71.5175705  14.8990297  55.4310722
  34.8628693  62.7321281  54.5422783  34.1451607  63.1030693  55.0556297
  35.6137161  63.2914810  54.7412491  79.4337921   1.3354876  44.8982620
  79.6282806   1.4610747  43.9694824  79.1604996   0.4205012  44.9641533
  43.7402306  60.6249352  33.5640182  42.9167404  60.6733208  33.0784721
  44.1091728  59.7744560  33.3257065  54.9693069  15.4062796   1.9832933
  54.4496841  16.1939659   1.8227537  55.0563507  15.3667593   2.9357076
  48.6080399  69.2876434  80.3128204  48.3445549  70.2046661  80.2361069
  48.5183411  68.9377060  79.4264069  35.9826317   2.0120966  21.0896950
  35.3524933   1.9916157  20.3694592  35.5261917   2.4719489  21.7942734
  14.4306517  44.7714882  47.8400612  15.3717299  44.8142242  48.0097008
  14.2301674  45.5940895  47.3935585  10.3011045  21.2623672   6.6653318
  10.3241673  22.2071972   6.5136948   9.4044170  21.0068512   6.4487762
  19.0482674  17.7038670  54.0902519  18.1601601  17.3668690  54.2082634
  19.4493904  17.6303349  54.9562340  82.9471512  68.9677811  50.9397125
  82.0574341  68.6385269  51.0670967  83.3754349  68.2996902  50.4044876
  81.3720932  19.7169456  73.8243942  81.0379181  20.3161392  73.1569138
  81.9958344  20.2414627  74.3264542  83.8169861  14.2562485  59.1127663
  84.1309814  15.1598701  59.0794678  83.4383469  14.1663322  59.9872818
  37.8415222  39.4919090  84.9667511  37.9207497  38.7676277  85.5875320
  37.2417526  40.1059418  85.3903885  68.0682373  26.2773418  56.5803185
  68.6421585  27.0431423  56.6000175  68.6587830  25.5392570  56.4296112
  53.6061363  64.0578995  51.9568901  52.8278580  64.0550003  51.3996620
  53.9465370  63.1652451  51.8975296  11.8673029  65.9482651  34.3748093
  11.3747396  65.3748627  33.7875900  11.3544254  65.9610901  35.1829071
  52.9401360  29.2796955   3.6143098  53.6480942  29.5087757   4.2164326
  53.0547676  29.8739204   2.8726981  48.0516090   7.9202180  60.1179428
  47.3152046   7.8164172  60.7205772  47.9065132   8.7724533  59.7070007
  15.5825090  18.5445786  82.8385010  14.9795151  18.4585762  82.1000977
  16.3300037  17.9952068  82.6025467  77.2375565  65.7061081  58.6246948
  77.2641220  66.6557312  58.5074844  78.1457062  65.4253769  58.5120316
  36.6121941  66.3460922  63.4352608  37.4074783  66.1227646  62.9516487
  35.9465179  66.4680405  62.7583275   7.2306886  10.3745661  56.2145271
   6.6056981  11.0517616  56.4734192   7.0521402  10.2262535  55.2858963
  79.4864044  32.8689575  76.0272827  79.4233093  31.9153709  75.9731903
  78.6084213  33.1799774  75.8067551  77.5387192  41.9489670  59.5628777
  76.8397903  42.3486481  59.0452003  78.3303299  42.4180107  59.2991028
  28.7297935   9.6991444  74.7342834  28.6611080  10.0827866  75.6085434
  29.4501419  10.1743317  74.3201218  64.0631332  68.5870514  21.9604874
  63.3531990  68.9227600  21.4131985  64.5951920  68.0589676  21.3652802
   4.5102229  33.7521553  65.5701523   3.8209541  34.0646629  66.1562195
   5.2565994  34.3230858  65.7523346  54.3861923  30.6292362  30.6995201
  54.3138542  31.2833080  30.0044041  55.2400055  30.2209225  30.5562801
  57.8216095  14.9976444  22.8101120  58.6470261  14.5313044  22.6780319
  57.3689766  14.4960613  23.4881744  72.0906219  48.1028061  69.2964325
  71.8589325  48.6401024  70.0539703  71.4355927  47.4048767  69.2884674
  75.0667801  25.0810452  72.0588837  75.6724854  25.5353527  72.6445007
  75.4354477  25.2111340  71.1851578  30.2532711  28.6630764  72.1028442
  30.4982166  29.5261497  72.4365158  29.9499550  28.1851139  72.8747101
  25.1042271  70.3405304  11.5007772  25.5758438  71.1730576  11.4739714
  24.9694271  70.1119003  10.5811100   3.0251789  68.9199829  76.0625534
   2.8134570  68.5084534  76.9004364   2.1820784  69.0040817  75.6172028
  26.1581459  50.4782028  83.2578049  26.3914356  50.1417007  82.3926010
  26.4155865  51.3998184  83.2337570  40.5635567  33.3989029  60.6563873
  41.1330872  34.1351433  60.4331856  40.2256622  33.0936470  59.8144379
  55.0653381  61.6932144  80.7613983  54.1265106  61.5652466  80.6255188
  55.3794250  62.0586739  79.9343414  73.0683899  68.0112000  47.8852921
  72.5082016  67.8341522  47.1295967  73.3618393  68.9136124  47.7597122
  56.8248634  50.4273338  28.8216209  56.2912178  50.3561249  29.6130657
  56.4234085  51.1406898  28.3254452  51.0253563  58.8640442  59.9004173
  51.5867882  58.4122429  59.2704163  51.0411644  59.7796555  59.6217842
  14.8882990  27.3358002  34.9363899  14.8922424  26.7376003  35.6836319
  14.0234213  27.7451553  34.9618530  18.4645367  66.1169434  10.0469322
  18.4178543  65.1616211  10.0093060  17.5638638  66.4066544   9.9017258
  54.3086586  70.7616730  24.7342167  54.8246841  70.2221146  24.1351929
  54.5405502  70.4408035  25.6057110  30.3532524  25.7200069  16.4982281
  29.4235458  25.6130505  16.2971363  30.3737679  26.3770809  17.1939754
  64.2345200  25.8165646   7.8190236  65.0785370  25.6608391   8.2428398
  63.6085701  25.3132553   8.3396978  12.2768812  17.8099480  76.8672562
  11.9943056  17.9499702  75.9635010  12.4882088  16.8773632  76.9103699
  53.2545929  57.3181915  10.8390999  53.9202728  57.2538185  11.5239038
  52.8744736  56.4410019  10.7913637   1.7987794  31.5809383  71.0486603
   1.7395515  31.0385914  71.8351593   2.1717172  32.4074821  71.3552094
  59.8789520  51.4953728  14.4678869  58.9435349  51.6915665  14.5201483
  60.0801163  51.5350037  13.5329027  15.5964088  37.0520134  45.5609093
  16.4773312  37.1308289  45.9269638  15.0655918  36.7178841  46.2839699
  39.5050888  65.4708328  10.5721312  39.5439682  65.8085327   9.6773252
  38.6444855  65.7406158  10.8927670  24.8391495   1.7137276  63.0361137
  24.8454361   2.1043015  62.1622467  25.5171432   1.0389127  63.0017357
   8.6375599  70.2889557  31.8688011   9.4273329  69.7944946  32.0878830
   8.5748701  70.9555664  32.5528603  39.4439850  42.3433876  37.6944237
  38.9208832  41.6305122  38.0610352  39.6104202  42.9245338  38.4365807
  12.6662455   6.5205965  27.4551353  12.1691847   7.0735979  26.8523483
  12.1664448   5.7054672  27.4998016  31.1010647  48.0832825  88.5610352
  31.8262196  48.5991707  88.9135208  31.4314995  47.7422638  87.7299271
   5.6844540   4.7239356  80.8314362   5.6571550   3.7738602  80.9447632
   5.2629552   4.8764710  79.9856796  57.8541107  30.6202888  16.0863934
  58.1925087  30.6634007  16.9807415  56.9392815  30.8912601  16.1631355
  42.1722374  13.4832716  76.1103287  42.1127014  14.0420685  76.8852081
  41.2720490  13.4196215  75.7911987  62.4630661  38.1000824  28.8893986
  63.1641808  37.7423248  29.4340839  61.6914482  38.0909996  29.4557495
  34.3583832  62.7360992  50.5370979  33.6245041  62.5473175  51.1219177
  34.9448204  61.9864731  50.6390114  13.5630713  48.3280220   3.4828470
  14.4443722  48.6296463   3.7032154  13.0999880  48.3091049   4.3203597
  51.2294121  61.1981277  53.6533318  50.9376755  60.2907257  53.5653381
  50.8420448  61.6481323  52.9025536  69.6091995  48.4836540   5.2232418
  70.1592941  47.8412209   5.6714697  69.0564499  47.9615326   4.6417856
  83.9431839  28.8818188   5.8055167  83.0690918  29.1212864   5.4975309
  83.9355240  27.9249058   5.8276129  16.0794125  16.1953354  53.3053894
  16.4335670  16.6805019  54.0506554  16.5259380  15.3492365  53.3363838
  76.9771652  15.6170206  87.5400314  77.4637604  16.1422520  88.1753235
  77.3759842  15.8311758  86.6966324   9.3603382  56.7667274   6.2129369
   9.3013239  57.7000427   6.4170833  10.2933512  56.6124687   6.0648723
  26.0434723  61.7033081   7.6769342  26.0301037  62.3610229   6.9816194
  26.1360855  62.2097206   8.4839048   8.1228323  39.3937645  27.3908615
   8.1151619  40.3142586  27.6532841   7.2174187  39.1047440  27.5045509
  37.4817276  66.3318558  77.7418365  36.6437454  66.7480621  77.5398636
  37.6458549  65.7509766  76.9989548  18.9984875  45.3814735  54.3725357
  18.6572132  44.9935913  55.1783333  19.3926678  44.6472893  53.9015503
   6.8099442  28.3833771  43.5647583   6.2518086  27.8697948  44.1486664
   7.6938086  28.2645416  43.9124565  72.2628326  10.1530886  77.6481705
  72.4015198  10.0516748  78.5898285  73.0354614   9.7542114  77.2479553
  68.3217926   4.5608363  10.4712963  68.3293381   4.2262783  11.3680935
  68.3787384   3.7781675   9.9231920  18.1806545  35.2805405  43.3375740
  18.1327572  34.9728775  42.4324341  18.9590149  35.8371925  43.3604660
  40.9786415  16.3916759  75.8609695  40.2494812  17.0115604  75.8438187
  40.8702202  15.8722506  75.0643082   5.6926117  69.9559631  80.6226730
   5.8756676  69.9178085  81.5614319   5.5294938  69.0463257  80.3732910
  68.1581879  62.5509186  41.1929131  67.6990814  62.1638641  41.9383278
  67.7573242  63.4135818  41.0863876  70.1963806  37.1667442  53.4045906
  70.6114273  36.3045807  53.4300156  70.1084518  37.4174423  54.3241844
  33.7970924  33.9412079  69.7761002  33.4594154  33.1593704  69.3391418
  34.6903229  34.0338402  69.4447556  58.4380646  71.2981873  10.5887957
  59.3349037  71.0175934  10.7709475  58.4564590  72.2483444  10.7032547
  57.8048439  32.1249886  60.5833206  58.6694870  31.8446465  60.8833771
  57.9472694  32.4190903  59.6836281  29.1339722  23.0131607  10.2019892
  28.8042393  22.8772106  11.0902596  30.0863972  23.0134392  10.2974806
  58.0615387  30.2264442  81.0742416  57.4612350  30.6122780  81.7122116
  58.1552582  30.8969307  80.3975601  81.4967346  61.5213852  47.5279465
  80.6896362  61.1866684  47.1370659  82.1949005  61.0355225  47.0889359
  63.1248894  64.1863327  40.2210045  62.5111732  63.4580765  40.3170967
  63.7581863  63.8816910  39.5711136  68.3735657  58.7362022  60.9640656
  67.7076797  58.0712662  61.1392326  67.9007950  59.4355736  60.5128441
   6.5966654  52.8093338  82.3529510   6.4555068  52.9496841  83.2892227
   7.5456905  52.7213974  82.2643433  52.7061157  37.7680702  72.3764877
  52.9490891  38.1260910  71.5226593  52.4671822  36.8589516  72.1957932
  63.3299294   7.8826542  11.7458849  63.1949921   7.6634650  12.6678276
  64.2403107   8.1747637  11.6999083  67.5649261  68.5329132  42.9456863
  66.6260376  68.5936737  43.1218491  67.8240051  69.4255981  42.7171860
  14.7298670  32.1677132  68.5053558  14.2329311  31.7678452  69.2190781
  14.8518944  31.4599571  67.8725739   0.2849849  29.8176308  17.5659847
  -0.4340820  29.4184628  18.0557194   0.8984289  30.1125927  18.2389755
  25.0463161  62.0803452  19.8831673  25.2456722  61.2453804  19.4597015
  25.7778740  62.6500854  19.6455727  71.7017899  11.5025949  36.2745628
  72.4878998  11.1153288  35.8894844  72.0338211  12.1456652  36.9010201
  50.6149750   7.4479995  24.6300125  50.9121552   7.4059715  23.7210865
  50.6425781   8.3795929  24.8481941  26.2096233  23.7264118  68.2315750
  25.8667603  23.0179272  67.6868515  25.7993870  23.5917149  69.0858536
  54.2721405   1.0253679  83.9333038  55.2153320   0.8925331  83.8385544
  53.8821945   0.2133408  83.6096039  11.4224176  40.7865105  86.9223785
  10.9439516  41.0921173  87.6930313  12.3177795  40.6533966  87.2335739
  17.7629814  24.2808037  29.3294296  16.8413506  24.4230480  29.1135654
  17.8698769  24.6752338  30.1950092  35.8398628  60.8218613  84.7535095
  35.3658562  61.4291687  84.1854248  36.3624687  60.2904472  84.1529160
   9.8347387   9.5280056  69.8095093  10.2505341  10.3599710  70.0357361
  10.4749365   8.8633595  70.0637131  49.3860626  45.3738708  44.9106140
  49.1625786  46.3032150  44.9616547  49.6687164  45.1465034  45.7964172
  48.0942001  28.1031837  66.3140106  48.8630638  28.6530762  66.4646683
  47.3734245  28.7236843  66.2058640  20.1841221  58.7254372  84.4286194
  19.6757965  59.4624481  84.0900192  21.0550194  58.8403587  84.0484085
  71.9283752  60.7872353  84.5446472  72.4537048  60.2717705  83.9326401
  72.3047867  61.6662827  84.5019760  68.3425674  59.2967949  26.8099976
  67.4151306  59.3786125  26.5877419  68.3461227  59.0394936  27.7319603
   2.6407146  47.8513794  43.0211296   2.3705113  48.6289291  42.5326195
   2.1464195  47.8988838  43.8394508  44.9370995  26.2084007  15.1130676
  45.6619225  26.8005733  15.3135586  44.1815681  26.5966434  15.5542841
  76.7716217  65.9814072  19.3775120  77.0132675  65.9999237  18.4515018
  76.3989792  65.1097946  19.5104160  73.2359161   1.2268114  14.4246264
  73.5245667   1.7866855  13.7038965  73.1957245   0.3491103  14.0448141
  55.4977913  48.3156929  80.8797989  55.6659279  48.6309166  81.7678299
  55.6731720  49.0720253  80.3199463  27.3762836  18.8085461  69.3251495
  27.1144066  18.4128208  70.1564484  26.5751438  18.8178139  68.8013992
  29.2780609  66.8034897  53.5465622  28.4217796  67.2312012  53.5378227
  29.1891918  66.0769577  52.9297295  16.6868553  70.8475876  75.5485458
  17.2577248  70.1183624  75.3065262  16.7387867  70.8856659  76.5035782
  45.7050591  48.1222458  45.6275253  45.0105247  47.4972305  45.4196625
  45.3387947  48.9745369  45.3915520  67.7077560  56.9195099  83.3633728
  66.9895325  57.4792175  83.0682297  68.2285004  56.7627602  82.5756607
  36.0652885   9.6557026  21.5151234  36.5147476   8.8800421  21.1796093
  36.6074867  10.3900528  21.2270622  71.3291779  33.9845619   2.2434924
  71.5682449  33.0582314   2.2750063  71.1193924  34.2087555   3.1501119
  33.6034660  51.1473312  36.3923798  34.3360329  50.9869881  35.7975121
  33.6439362  50.4272346  37.0217094  55.4108582  31.1799870  17.0007782
  54.4843597  31.3126335  16.8001728  55.4392242  31.0903683  17.9533501
   7.8277035  67.1674500  22.7101288   8.4674063  67.8537140  22.5202389
   6.9988708  67.5147858  22.3805408  83.6686478  57.4610825  18.1723537
  84.3426056  57.6777802  18.8165989  84.0043716  57.8116646  17.3473606
  82.6633682  -0.1383622  22.8921795  82.1819611  -0.1596112  23.7192421
  82.9059143   0.7807497  22.7797737  42.0630302  13.1167250   8.8773556
  42.5997963  13.0440235   9.6665506  42.0004234  14.0581760   8.7161665
  65.5862350  52.5363388  20.5448093  65.3541260  51.6804390  20.1845360
  66.1998138  52.3398209  21.2527142  43.3951302  50.8749008  31.0881653
  43.7981529  51.3324318  31.8260460  43.1093063  51.5739822  30.5001011
  53.3140488  67.7010651  86.1348267  54.0669060  68.2771149  86.2674942
  53.6790428  66.8170471  86.1739655  78.1221695  38.7994461  36.0747147
  77.5489960  38.2036514  36.5571442  77.6173706  39.6092682  35.9998665
  81.2371292  20.5410366  82.9527512  80.7016525  19.8412857  83.3267059
  80.7764053  21.3466015  83.1873398  56.6583557  48.2749634  18.2169151
  57.2473488  47.5614853  17.9714203  56.8932915  48.9926262  17.6287022
  81.8183060  15.7254305  56.7143555  82.3459473  15.0647326  56.2656860
  81.0182724  15.7878704  56.1925430  81.6332855  37.5677567  41.6871223
  81.2456589  37.8893166  40.8731384  82.5668335  37.4862442  41.4920044
  51.9018402   6.8731971  33.0382957  52.4392700   7.6508522  32.8877792
  51.0075874   7.2086558  33.1016464  65.0115738   0.1440989  40.9683380
  65.2876816   0.1634919  41.8846436  65.1559372   1.0372235  40.6557350
  82.8361511   5.5962968   2.9367101  82.3461914   6.3580484   2.6270161
  83.2539902   5.2445111   2.1506534   3.1897488  53.4726677  88.0616760
   2.4482560  54.0661201  88.1809845   3.3764408  53.1429062  88.9406738
  70.1457062  30.3816319  22.1295242  70.2789383  31.2440720  22.5228176
  69.5782394  29.9214497  22.7479496  79.3029480  26.2006721  42.8459053
  78.4195938  26.5586109  42.7576103  79.6705856  26.2497787  41.9634857
  20.7499123  43.4910812  62.0308075  20.2223797  43.5036392  61.2321930
  20.5862846  42.6286201  62.4124031  62.8522148  14.1408949  44.5659714
  62.3334999  14.5606861  45.2522240  63.1006241  14.8571091  43.9815369
  48.9027596  14.3287468   4.4023442  49.8027687  14.1070452   4.1634660
  48.4034729  14.2059069   3.5949669   2.0957825  59.9767723  33.2477455
   2.0132248  59.3938255  32.4930344   2.3540370  59.4013329  33.9677467
  58.0091858  10.9319649  35.7164574  58.6645012  10.3119183  35.3965569
  57.4148979  11.0554733  34.9763260  59.6841316  69.5926361  37.4828720
  59.3313179  68.7461014  37.7569962  58.9127045  70.1103439  37.2524223
   9.1354465  26.3963375  20.1177101   8.4714680  26.0371380  19.5292034
   8.8582811  26.1172123  20.9903507  49.9394493  52.9217415  87.8128357
  49.9318848  53.0303078  88.7638321  50.7198334  53.3948021  87.5239639
   7.1198988  51.5559082  11.6431150   7.5928659  51.1086731  12.3449097
   6.2926269  51.0798836  11.5706129  68.8944855  51.8372078  63.8375587
  69.3357468  52.6833191  63.7626419  69.4681549  51.2261314  63.3752670
   4.6310649  22.3014030  32.8017311   5.5114059  22.5877514  32.5583458
   4.3813457  22.8805218  33.5217972  33.0790443  10.9962769  73.5280991
  32.5875664  11.7411509  73.8742752  33.1183548  10.3760748  74.2561340
  24.3664360  12.8761349  86.2574692  24.7181282  13.5880289  86.7920303
  23.8129425  13.3133984  85.6104202  40.9990616   7.9743414  48.5404549
  41.4042435   7.1071515  48.5339890  40.7632561   8.1217060  49.4563751
  12.0803804  38.7317734  26.0314102  12.0916500  39.6013107  26.4314156
  11.3265686  38.7491379  25.4417515   3.9872863  28.8554497  80.6139603
   4.2782474  28.5448914  81.4713593   4.6386843  28.5134430  80.0016403
  35.6709328  15.8229408  69.9999084  35.6823997  15.1825571  69.2885590
  35.3588066  15.3314228  70.7596512  86.8230438  59.3809509  50.5783806
  87.4909821  59.6465454  49.9462852  86.0280609  59.8288574  50.2892151
  85.3129807  29.2044868  50.9469872  85.8784561  29.4330120  50.2092590
  84.8902969  28.3879528  50.6808243  59.8509369  35.4553680  54.3045197
  59.0655327  36.0016327  54.2733841  60.4921188  35.9272575  53.7730675
  60.5821190  20.0859241  22.1516190  60.4061165  21.0215626  22.0524559
  61.1749153  20.0318489  22.9012184  20.7378178  54.8449669  47.4410095
  19.8852043  54.6647224  47.0450401  21.3680229  54.4305344  46.8516731
   4.8443732  47.2130547  40.0250282   5.5085449  46.6692390  39.6015015
   4.0176659  46.9282875  39.6355476  66.9264679  12.8463631  21.1332912
  66.7367935  13.4222746  20.3926277  67.7687988  12.4467707  20.9164104
  70.7815475  50.2692070  86.9281769  70.0703430  50.7055359  87.3972549
  71.4702377  50.9312439  86.8677826  46.9462318  23.2668705   3.1709681
  47.5830307  23.8538265   3.5786457  46.1553764  23.7982025   3.0789487
  24.1622200  58.6570320  55.0888977  23.2561932  58.6026573  55.3928604
  24.0941200  58.6713715  54.1342316  37.9532928  64.5245743  88.7539825
  38.4970055  63.9915810  89.3340988  37.4681435  63.8881683  88.2287750
  43.7066154  37.8375053  76.6551743  44.1891747  37.4357872  75.9326859
  44.3024445  38.5020866  77.0009384  85.0384750  52.9545670  37.4788704
  85.1568298  52.0851555  37.8614273  85.5903244  53.5276031  38.0111465
  38.9012070   4.2438288   3.6955042  39.5000572   3.5565488   3.9874914
  38.2250061   3.7788692   3.2027588  78.5403214  54.3027916   1.0639074
  79.1238022  55.0495872   0.9294583  79.1289291  53.5620499   1.2090871
  29.6964245   0.8053853  59.6653099  29.6173515   1.4617677  58.9731102
  30.4470310   1.0940107  60.1844635  25.5993271  62.6563911   5.0839019
  26.1229992  63.4488907   4.9658279  25.1326370  62.5519485   4.2547317
  45.1098404  60.6067505  30.3932362  44.3263779  60.4278336  30.9132462
  45.3899879  59.7472038  30.0787029  64.2259598  36.0164070  29.9029083
  65.1510391  36.0256233  30.1485977  63.7798767  35.6436729  30.6633778
  80.7062836  62.0538445  58.3489838  80.9607086  61.8852921  57.4417419
  80.8031616  61.2077789  58.7860413  59.0112915  53.9213371  35.9022675
  58.2452126  54.3441772  35.5142479  58.6477242  53.2925911  36.5257492
  29.8248653  53.4926186  64.7899857  29.5820923  53.7585030  63.9030838
  28.9903984  53.4052048  65.2506943  71.4554672  50.5711479  13.3105850
  72.1937866  50.0054626  13.5366669  71.5728149  50.7572823  12.3790188
  25.4405766  12.8019838   7.7750192  25.7558136  12.3275003   7.0057840
  24.9047871  13.5097456   7.4169211  82.7025681   3.3321002  85.2654648
  83.3242340   3.5124283  84.5603180  83.2299652   2.9211855  85.9504700
  15.9813461  53.5095825  79.7952957  16.4958916  54.2429771  80.1323547
  16.4362583  52.7306442  80.1155243  19.6554070  59.4017296  35.5042763
  18.8799343  59.0323906  35.0818253  19.4051380  60.2998047  35.7212105
  15.9260111  22.1262016  16.0196648  16.2781544  21.2361546  16.0131798
  16.5014896  22.6071358  16.6144428  78.9375076  27.7316723  70.0256958
  79.5812073  28.4399738  70.0397568  78.5399704  27.7519913  70.8962021
  84.2014771   0.5312266  77.4267349  84.9086838   0.3718573  78.0517883
  84.0997772   1.4829654  77.4176788  84.3145676  28.6007748  54.2531509
  84.3921661  28.0414410  55.0260391  83.8694458  28.0541477  53.6056213
  19.2065372  60.0834732  89.0568924  19.6333199  60.9311523  88.9322815
  19.4083290  59.5941734  88.2593384  17.8045292  30.7054787  77.4681320
  18.3297482  30.5662670  76.6800995  17.2914944  29.9025002  77.5589828
  71.0462418  29.6210327  10.2298603  71.2905045  30.1176071   9.4488478
  70.3015518  29.0879192   9.9515400  81.7628403  55.1654854  34.2605934
  82.4584122  55.8123283  34.1422424  81.1988068  55.2775764  33.4953918
   0.3854938  49.8393555  81.5419922   0.0907369  50.3731804  82.2798157
   0.8452917  49.1039772  81.9470139  33.6860275  61.0205193  78.8818970
  33.8565865  61.8304825  78.4011765  32.8056488  61.1352081  79.2396927
  16.7289791  46.5196533  22.7044353  16.5683041  45.5928497  22.8817768
  17.5629406  46.5325737  22.2347813  31.0048027  11.3473101  32.8333282
  30.3130074  10.6977386  32.7080040  31.5689030  11.2474337  32.0664864
  74.9733429  63.5927925  63.9762230  75.0776367  62.9008255  64.6293182
  74.3016205  64.1682281  64.3421478  56.2228775  29.8240299  76.9510422
  56.7493286  29.4397964  76.2500076  56.6065483  30.6896038  77.0917816
  32.8009987  64.8150864  71.9430161  32.0574417  64.3845749  71.5211029
  32.4039688  65.4090042  72.5800858  59.3976631  21.1103153  73.9403915
  59.3292389  20.7744198  74.8341064  58.4931717  21.1505203  73.6297302
  10.6703577  60.7299461  83.2352829  11.5760899  60.9049759  83.4907150
  10.2910347  61.5965157  83.0889816  13.0534916  45.2257423   6.8189754
  12.8428259  44.3958511   6.3910336  12.2124424  45.5487976   7.1422467
  13.2692299   9.6166353   8.0714293  13.5038605  10.5230989   8.2701883
  13.9704018   9.0962400   8.4635754  76.1248474  71.1211548  66.5762177
  75.6231842  70.4365997  66.1335602  75.9578247  71.9110031  66.0619583
  19.4734039   3.8741257  29.7589531  19.6300316   4.3610129  28.9498539
  19.1768208   3.0123644  29.4663143  23.3051395   8.0408869  67.4364166
  24.2610569   8.0234671  67.3900604  23.1110458   8.6458044  68.1523972
  49.1187668  61.2041931  35.1770821  49.5368233  61.3429527  36.0269089
  48.8036957  62.0709534  34.9207802  82.2883377  25.2739582  46.5618973
  81.6119614  25.0538673  47.2024460  82.1534576  26.2042198  46.3811951
  64.9555511  10.2405891  28.4585133  64.7252426   9.7278891  27.6837044
  65.9126511  10.2371197  28.4722061  74.9912415  52.3990593  60.4186554
  75.2735443  52.9527626  59.6906776  75.3024521  51.5236359  60.1884232
  46.4514160  45.4952011  84.5648422  45.7175980  44.9036560  84.3980713
  47.1439819  44.9280548  84.9038544  14.7186956  24.0911121  53.6937866
  15.2120047  23.7952290  54.4588547  13.9876509  24.5899582  54.0584183
   3.0676031  31.8025665  59.0479202   3.6564422  31.0496426  59.0989685
   3.4577949  32.3669701  58.3805122  52.7114067  15.3170090   5.7472544
  52.2215233  14.9056606   5.0351892  53.6075821  14.9996290   5.6360188
  80.0588760  56.3249283   5.1206732  79.7481842  56.3852425   6.0240355
  80.8127594  55.7368050   5.1654367  25.5793247  40.1084366   6.5401530
  26.4117775  40.4749069   6.8384047  25.1548615  40.8276749   6.0724430
  49.3560791  11.7415380  40.0416451  48.5912895  11.8900337  40.5977707
  49.5891457  12.6115456  39.7176056  31.0961933  22.4180260   6.8316436
  30.4730129  21.8200359   7.2443013  31.4240875  21.9358673   6.0725398
  41.8845367   6.9617534  76.7297897  42.3518448   6.3734932  77.3229218
  41.0030975   7.0225635  77.0980301  69.9973679   4.1077933   7.6556273
  69.6954727   3.5661740   6.9264240  69.3192368   4.7760863   7.7544022
  64.4136963  22.0407429  53.4057655  63.8482857  22.7507229  53.7098579
  63.8445053  21.4984112  52.8597488  25.9964752  41.5853195  33.8090820
  26.8732872  41.5458450  34.1910172  25.8033295  42.5208969  33.7489204
  27.5033340  34.1270714  88.1175079  28.3731632  34.2019882  87.7250595
  27.1444931  35.0134697  88.0755615  30.9619122  69.3066940  41.6071510
  30.9262085  69.1351852  42.5481834  30.6027012  70.1886749  41.5106468
  80.9914398  16.4495640  88.3281326  80.6316681  15.5647964  88.2650223
  81.7978516  16.4174862  87.8134537  67.6437073  52.9773483  44.9170380
  67.1076431  52.8157578  44.1406631  67.7735291  52.1110840  45.3029938
  68.2117310  24.1294937  83.8554230  68.0635452  25.0080299  83.5055008
  67.3867645  23.8996983  84.2830276  29.8218403  55.1143913  55.2370567
  29.0387936  55.5640564  54.9194565  30.5472050  55.5551453  54.7945480
  40.2751007   5.6684456  10.0139227  40.5300407   6.3047972   9.3458710
  41.0784912   5.1829472  10.2012310  77.7765198  59.1513901  26.0130653
  76.8203506  59.1496849  26.0574512  77.9836731  58.5619850  25.2878647
  28.6204319  48.4339638   0.7519253  28.2178478  48.0162811  -0.0094539
  29.5615959  48.3270607   0.6140363  69.6579666  52.2307510  14.7173414
  70.2125702  53.0085983  14.6573486  70.1493225  51.5501976  14.2572842
   1.0961735  47.1239433  39.9359055   1.6561818  47.4958305  39.2544937
   1.6491362  46.4766998  40.3735580  47.2075119  45.7590981  31.7465363
  46.5606308  46.3815498  32.0786858  47.9930725  46.2858009  31.5991859
  71.6848526   9.0871620  82.4798279  72.1060181   9.7877159  81.9817505
  72.2737122   8.3385000  82.3850327  15.9299183  60.5537071  30.6157722
  15.1089449  60.3855209  31.0783195  16.2185345  59.6907845  30.3186245
   8.8002558  48.8339386  87.2342377   8.0370989  49.3819504  87.4172897
   8.6522789  48.5057755  86.3473129  74.3765640  68.1333313  21.7071362
  73.9724045  68.6236115  20.9912338  74.5745697  68.7956772  22.3691921
  54.6423988  43.9563484  68.6221466  53.6888618  44.0032387  68.6913986
  54.8671532  43.1000366  68.9860764  40.8381462  69.9361572  24.7095547
  40.5634270  69.2846298  24.0643597  40.6007767  69.5522385  25.5536480
  54.0001335  36.6670074  51.8763504  54.9454384  36.8142624  51.8455620
  53.8415413  35.9905281  51.2179794  36.0873451  68.5517044  45.5114441
  36.6415939  67.7806931  45.3906937  35.2870522  68.2111511  45.9111748
  76.2964096  47.9202843  26.4086170  75.9393997  47.1622810  25.9457970
  76.9712753  47.5553856  26.9810143  14.1773338  52.6288757  42.9169350
  13.3159552  52.6409836  43.3342018  14.7877636  52.8467255  43.6213112
  82.8994598  51.5181580  48.2691154  82.7457199  50.5739861  48.3027153
  83.8513718  51.6076050  48.3149033  81.3026505  15.6347227  26.2131157
  80.9067154  15.0824137  25.5390072  81.8084335  15.0277300  26.7534599
  20.7754307  40.4570465  86.4045792  19.8989353  40.3370399  86.0390854
  20.9443188  39.6505280  86.8916473  33.2828636  57.3383179  36.2457542
  33.5644112  57.4908905  37.1478004  33.3862915  58.1872101  35.8157349
  68.7022324  22.0547256  66.3323441  68.5317459  21.9761715  65.3937302
  67.9261856  22.4935112  66.6808319  76.8216171  12.9387560  87.8247452
  76.9434967  13.8850317  87.7476730  77.6903152  12.5713167  87.6616974
  30.2088070  64.2786102  25.9682236  30.1705990  64.4311066  25.0240231
  29.5846024  64.9034653  26.3372116   2.8881176  48.5005646  77.4759064
   3.2309635  47.6073532  77.5052185   2.7551835  48.7363358  78.3940430
  35.2940636  39.1173820  77.9001236  36.1298866  38.8174324  77.5428314
  35.4636803  40.0154419  78.1846466  78.3632126  30.1423092  52.3754234
  79.1488342  30.6859303  52.4346962  78.6792679  29.2490387  52.5111122
   6.1333613  53.0019073  75.7452774   5.5161901  53.6587448  76.0676117
   5.7461972  52.1642647  75.9996262  50.9724808  10.1905737  25.5603561
  50.2825966  10.8530693  25.5230427  51.2781067  10.2138500  26.4671535
  21.4766960  46.8881111  31.6629581  21.2634602  47.7796669  31.3874741
  20.7647610  46.3525276  31.3129158  31.4259834  45.4083023  78.8960342
  32.0474281  46.0073013  79.3098526  30.5828362  45.6255913  79.2936783
  40.7698326  50.5312653  42.4362831  41.3389587  49.7620964  42.4096909
  40.2106361  50.4422493  41.6645241  44.6926537  56.0701637  24.5857849
  45.6449203  56.0109634  24.6626854  44.4084892  55.1694908  24.4299850
  76.4384079   7.7464027   8.8007288  75.8524780   8.5032196   8.8131132
  76.1444016   7.2281156   8.0516157   0.8393587  31.1971130  56.5535240
   1.6206099  30.6766510  56.3664474   1.1481845  32.1031113  56.5481415
  27.6593761  57.3515892  61.8631248  28.2606773  57.0565186  62.5469360
  27.3430786  58.2004738  62.1722832  66.9201508  67.9333420  64.8183212
  67.1766357  67.6809006  63.9313507  66.2754288  68.6295242  64.6922226
  10.6128225  64.2134399  16.9075928  11.5581417  64.1044006  16.8040829
  10.5211763  64.8403702  17.6250801  73.9592361  58.5666161  77.8465424
  74.6766129  59.1364746  78.1238022  74.0644455  58.4933815  76.8979645
  25.7171249  35.3821678  66.1714325  25.2497444  34.5914841  66.4408798
  26.0887451  35.7288704  66.9825592  69.8145370  23.8656139  88.9432907
  70.5859604  23.3008080  88.9893646  69.6030731  23.9066334  88.0106430
   8.0108824  36.6665382  85.8089981   8.0909071  35.9945946  85.1320038
   7.2041054  37.1326256  85.5896683  41.4635315  40.3912354  20.8569069
  41.8178864  40.4641075  19.9707050  40.5216675  40.5242043  20.7499294
  85.3347549  65.9542999  72.0469971  86.0001068  65.2706375  71.9686127
  84.9406052  66.0058899  71.1762466  40.3910446  37.6088448  29.8328571
  39.4732018  37.5461426  30.0971794  40.8201828  36.8812523  30.2830620
  70.4271622  70.2405853  21.0735817  69.6068954  70.5188675  20.6662159
  70.3030396  69.3078461  21.2491341  50.8378754  66.0583420  40.4022980
  50.9347878  65.4803467  39.6454926  50.7505226  66.9338608  40.0253792
  45.8134232  29.7029781  66.4610748  46.0361061  30.6286526  66.5599289
  45.2339439  29.6760178  65.6996918  19.5102806  44.3627510  65.9159393
  18.9543304  43.6413193  65.6215134  19.2389050  45.1082382  65.3803711
  56.1345787  37.3159637  44.2473373  55.5109978  36.7081795  43.8498764
  55.6029015  38.0678368  44.5085602  48.8272858  34.8858719   8.1798754
  48.2180977  35.6236420   8.1512480  49.5332222  35.1803589   8.7553453
  59.9949188  10.4764414  21.1591454  60.5846863   9.8271351  21.5422974
  59.5679436  10.8857899  21.9117146  67.0140762  21.4246044  23.5995674
  67.3261948  20.6563244  23.1214867  66.4861145  21.9052525  22.9620228
  74.5849915  50.8366013  57.2118912  75.1135635  51.4314537  57.7438622
  74.3161850  51.3632278  56.4591370  80.6466293  18.9951458  23.9179974
  80.8822327  18.1514359  24.3038406  81.0432053  18.9792786  23.0469589
  72.6588364  65.0814285  65.2166595  72.9533386  64.7482452  66.0642929
  72.1150208  65.8388901  65.4328690  51.8323631  46.8301582  46.1057510
  50.9249916  46.6494026  46.3511887  52.2941246  46.0087242  46.2738304
  66.8603287  71.4006195  87.4214249  66.5763397  71.1714096  88.3063278
  66.3383713  70.8382034  86.8491592  53.2438850  65.1923065  67.3272705
  53.4359398  65.4476395  68.2295761  54.0585060  65.3582611  66.8528366
  45.9201241  42.8045006  80.8810272  46.6093903  42.8251038  80.2171631
  46.1319504  43.5296745  81.4688110  15.5094500  37.5027351  75.5885162
  15.5061531  38.4575577  75.6558456  16.1529999  37.2190628  76.2378311
  81.0397034  44.0899086  41.0488701  81.9576797  43.9621239  40.8096428
  80.6671982  43.2081642  41.0488129  86.1490631  53.7997284  78.6501236
  86.7971573  53.5694695  79.3158417  86.6239777  53.7362938  77.8214645
  23.5650845  52.4164581  71.0522308  23.7626534  53.2971382  71.3709869
  24.4209652  51.9985199  70.9572220   4.3503146  66.5336075  42.9314270
   3.7118030  66.1784286  42.3130569   5.0923533  66.7946625  42.3860283
  14.0346479  62.5177422  56.4567986  13.3596172  61.8808975  56.6913147
  13.7633228  62.8502579  55.6012001  73.7867661  43.2587128  66.0302658
  73.6117706  42.3266869  65.9001389  74.5393143  43.4419289  65.4678345
  53.3281746  42.9353142  86.4997406  53.4916115  43.6266327  85.8581772
  52.5891800  42.4446297  86.1400833   6.7780762   8.8765955  53.8235893
   7.7048278   8.7188482  53.6433716   6.4784946   9.4105330  53.0877953
  85.8313828  25.8434334  14.5499458  86.4095535  25.0957928  14.7015562
  84.9571915  25.5174179  14.7638111  23.2680359  32.7377968  15.1754942
  23.0500164  32.3837051  16.0376530  23.6448803  31.9970322  14.7006378
  43.4271812  45.1871376  28.5587883  44.1661453  44.8173752  29.0419445
  42.6722603  45.0445023  29.1297359  61.7552299  13.2384434  19.8575954
  62.0985298  13.5829306  19.0331516  62.5049591  12.8071976  20.2676697
  11.3744020  47.8013878   1.4324101  10.6879253  47.6105309   2.0715933
  12.1858234  47.7835426   1.9398630  49.0243721  17.1143284  12.5948620
  49.4308968  17.3718300  11.7674179  48.2368431  17.6552620  12.6533575
  37.0236549   7.3357134  38.6951447  36.7275772   7.9467535  38.0204620
  37.6671715   7.8314219  39.2014961   1.4688785  54.6415977  80.4705658
   2.1697500  54.6939392  79.8207397   1.9114417  54.3868484  81.2801743
  80.5366058  38.2114601  55.0331459  81.0741119  38.9994125  55.1134415
  80.8479843  37.7897110  54.2322693  82.9597092   5.6537075  50.2261162
  83.3495941   6.5017757  50.0139771  83.6936493   5.1237493  50.5370979
  64.8892059  39.0856514  34.9988899  64.3873520  38.5916252  35.6472054
  64.5108414  39.9645882  35.0221405  46.3883667  61.0320435   1.2095813
  46.1792717  60.9274445   2.1377890  47.3433914  61.0914345   1.1844189
  79.8035736  64.4654465  39.8638077  80.1558838  63.9599953  40.5963593
  79.7142563  63.8288651  39.1545715   5.3287268  58.9939575  72.1317062
   5.4471984  59.8331528  72.5766144   4.5197783  59.1003265  71.6311874
  10.5094147  15.2315159   8.4528227  10.9851589  16.0617371   8.4779949
   9.5979719  15.4726439   8.6182375  37.1620941  65.0116196  42.8231316
  37.6787376  64.3597870  42.3493958  37.0600319  65.7333450  42.2027130
  63.0565376  56.4215088  84.1127167  63.4964371  56.0229874  83.3617859
  62.1690903  56.6016655  83.8025360  52.6115150  38.8142090  17.7566586
  51.9649391  39.0166206  18.4328251  53.4556732  38.9905815  18.1720200
   0.1157242  69.9066925  42.8144569  -0.4392594  69.8995590  43.5943146
   1.0022560  70.0331650  43.1525383  49.6353188  50.6288071   5.0750685
  48.6932068  50.6541290   5.2424378  49.7590065  49.8604584   4.5177755
   8.4167118  53.3245964  69.9533844   9.0036879  52.8897400  70.5719223
   7.5883160  53.4058952  70.4260178  43.0062866  56.8661079  78.7345276
  42.4721489  57.5815849  79.0795212  43.0855217  56.2526131  79.4649963
  32.8869705  35.4997330  16.1816444  33.2543373  35.1466217  15.3713446
  32.1510925  34.9216118  16.3828812  62.2748833  44.9408264  61.6433563
  62.6383820  45.8027306  61.8463821  61.6422539  45.1062965  60.9443359
  36.0894508   4.9103961  19.3503819  36.3885231   4.5036941  20.1636353
  36.7751160   5.5415807  19.1319771   3.3072088   0.4322157   3.3911119
   4.0873260   0.5204121   2.8435082   3.1160052  -0.5056810   3.3863280
  22.8189411  57.1419106  89.0949020  23.5821972  56.7308388  89.5007248
  22.4871140  56.4822311  88.4858475  74.5450897  35.1256523  85.5956421
  74.2900620  34.2081909  85.4984131  74.2790985  35.5366478  84.7731094
   2.1729641  62.1278648  46.3310471   2.3350923  62.6669273  45.5568657
   2.9713345  61.6098900  46.4337082  32.0959320  13.4839277  74.4409790
  31.7577019  14.0627918  75.1241684  31.6591110  13.7766333  73.6411438
  15.7615147  61.2560272  33.7103462  15.9735870  62.1434555  33.9996986
  14.8081541  61.2034607  33.7779732  78.6428146  26.8200684  51.9532585
  78.9524918  25.9460430  52.1907692  79.2905045  27.1414013  51.3259888
   6.6771221  47.9235153   2.3054912   7.0162158  47.4153137   1.5686204
   6.9555402  48.8214569   2.1254520  57.2420654   8.3062716  89.0376434
  56.6002197   8.9860754  89.2428970  56.7212486   7.5821605  88.6903000
  57.7407112  20.9373951  84.3103104  58.5895538  21.0128613  83.8744125
  57.5484734  19.9997597  84.2995834  72.0771561  36.2608604  68.8655014
  71.3943710  36.9253044  68.9579544  72.2295532  35.9483414  69.7573242
  60.5400391  68.3517151  67.8177872  60.2963638  69.1844330  67.4135132
  61.2315712  68.5802917  68.4388885  62.5131531  22.1082230  49.6169472
  61.7143517  21.6535130  49.8841248  62.7461586  21.7102413  48.7781677
  30.2034016  29.7094440  79.6526413  29.4287281  30.1945972  79.9367905
  30.9358311  30.1604195  80.0726395  45.5991936   7.7979465  14.1563959
  44.8367462   8.3751040  14.1988068  45.2465668   6.9560785  13.8680487
  30.3582058  69.1936340  75.8516388  29.9806194  69.2487564  76.7294922
  29.7210140  68.6868896  75.3482285  48.4554939  63.3674393  76.7546921
  49.2872429  63.7175903  76.4356079  47.8870773  63.3611031  75.9845657
  16.9211845   7.2472863   2.8604572  16.2671566   7.0821638   2.1813288
  17.2379875   8.1318913   2.6778622  37.3792572  58.3696785  73.0615234
  37.7788887  59.1855545  72.7600632  38.1146851  57.8458900  73.3793640
  64.8242416  58.6275940  33.9623070  65.3647003  57.8380165  33.9888077
  64.8274460  58.9503899  34.8634338  63.0089226  65.3851013  42.7055626
  63.1619072  65.2429657  41.7714195  63.8659286  65.2540665  43.1112785
  50.7945061  21.8198376  36.2118111  50.8859673  20.8673954  36.1849747
  51.5484619  22.1186199  36.7202530  76.7594070  22.5157852  43.5782013
  76.6337662  22.7088680  42.6491356  76.1754913  21.7771320  43.7504234
  59.8721771   7.1470451  78.6993942  60.6230888   7.4831505  78.2101135
  59.4093666   6.5890374  78.0743637   1.4192504  24.2840176  78.9601974
   1.0353535  23.6738777  78.3304520   1.9442939  23.7316341  79.5393677
  60.6551590  11.4376230  77.8038483  61.4108086  10.8797598  77.6194229
  61.0050697  12.1423512  78.3489609  67.3814240  39.3587685  48.1990509
  68.1555939  38.9679451  48.6042099  66.9239349  39.7884026  48.9217873
  61.6311340  29.2413864   0.2817555  61.0237808  28.8515892  -0.3470641
  61.2582207  29.0299492   1.1375948  54.3153572  59.8454971  68.3495789
  53.8426018  59.8717651  69.1814728  54.5087013  60.7625313  68.1549072
  61.3784981  21.3549519  41.4376640  62.1594505  21.7793941  41.7929039
  61.2671776  21.7452030  40.5707474  32.7885323  35.0679893  87.7206955
  32.0465126  35.6643219  87.8208084  32.9920311  35.0937119  86.7857285
  20.7983265   3.3218446  79.6063385  19.8996830   3.0363374  79.7711258
  20.8109417   4.2403865  79.8753204  49.3494339   6.8233681  88.5153580
  49.2248268   7.0351276  87.5902328  48.5431557   7.1176057  88.9391251
  49.1876793  62.8988037  30.5324459  50.0384445  62.5582161  30.8089066
  49.0853691  63.7144432  31.0228519  17.4991264  64.9551468  88.8074036
  17.8993587  65.2930679  88.0062408  18.1083717  65.2034683  89.5026627
  86.2578354  34.8296967  55.1162720  86.3940277  35.4732132  54.4208794
  85.3143616  34.8466797  55.2768974  79.8105087  16.6466579   3.5687003
  78.9363098  16.3388634   3.3293760  80.2347260  16.8371811   2.7320561
  20.0947838  33.1026955  11.4716024  19.9589500  32.9654198  12.4091187
  20.4644814  32.2767029  11.1596823   0.9434192  60.2702980  42.8353577
   0.3722729  60.4567833  42.0902100   0.5487130  59.5054054  43.2541389
   2.1355157  46.3135071  56.6277885   1.9305109  46.9385490  55.9324265
   1.4294053  45.6686096  56.5859795  62.5719948  35.3006287   2.4478455
  63.1116219  36.0754700   2.6048596  62.9314919  34.6354408   3.0348051
  48.5753021  54.7632790   8.8130379  49.1963043  54.1918144   9.2647209
  48.4192200  54.3311386   7.9733200  58.5212021   0.6478776  34.0266647
  58.1766434   1.5393779  33.9743271  58.3470268   0.2727222  33.1634407
  84.2558365  33.6078339  33.2880096  83.8870850  33.7584076  32.4176178
  84.6917191  34.4308472  33.5091209  41.0645370  45.1192627  33.0357819
  41.2012558  45.9202080  33.5417747  41.1215706  44.4152031  33.6817513
  39.9110489  69.6385117  55.5644188  40.2533913  68.9494476  56.1338234
  39.3978844  69.1714249  54.9050789  62.6386299  31.3739262  25.8177662
  61.8942261  31.9746971  25.8519554  62.8449402  31.3009834  24.8859158
  57.7481041  32.7141495  65.0726852  58.6582832  32.9898605  65.1812668
  57.7403717  32.2343292  64.2444687  18.3335857  14.4277716  13.3782835
  19.2078419  14.5438004  13.0062017  18.2390804  15.1511612  13.9979668
  85.4631805  13.6192837  72.7686081  84.8654404  13.9628649  73.4326019
  86.1510315  14.2813835  72.6999512  51.9127731  25.1329365  42.5498123
  52.2678947  25.0047531  43.4294090  51.2173500  24.4795017  42.4747124
   2.1961794  29.2073879  46.1405830   2.3158395  28.7474861  46.9714890
   1.6122178  28.6415405  45.6355705  10.6495466  23.2078056  10.8964052
  10.2570457  22.3615494  10.6818686   9.9080639  23.8115749  10.9399853
  67.7822342   3.9773760  60.6501045  67.0461349   3.3996179  60.8515778
  68.4487686   3.7511909  61.2987938  82.5082474  23.6672287  41.7895889
  82.1191406  23.6777687  42.6640663  83.0617294  22.8862991  41.7831116
  36.5447655   8.4955759   2.6381762  37.1007805   7.7194357   2.7066190
  36.4214668   8.6196432   1.6970937  20.2392216  64.0740662  42.8694305
  20.4336281  63.2895737  42.3565903  19.8151703  63.7435188  43.6613617
  49.9084702   7.5285168  77.6036148  49.8264503   6.5896187  77.4363556
  49.7498398   7.9380665  76.7531281  27.6523628  45.9362907  39.0689583
  26.7135754  45.8520393  38.9021912  27.8723278  46.8155785  38.7612343
  24.9076805  41.6760864  81.7438431  24.0878906  42.1427383  81.9063644
  25.5767536  42.3606071  81.7426453  82.3091888  11.9852924  14.2024355
  82.4656906  11.3726130  14.9210186  82.4032135  11.4552269  13.4109669
  25.0531082  35.1080971  10.1206303  25.1792145  34.1950722  10.3789196
  25.8882484  35.3637428   9.7289438   0.6425840  33.9006577  62.9057312
   1.2193152  34.6308022  62.6809921   0.8273736  33.2363510  62.2418175
  53.2227974  65.2886658  54.4443550  52.7956886  66.0576096  54.0668068
  53.4505920  64.7462921  53.6892586  64.6714935  55.8221703  51.1616936
  65.0181961  54.9299850  51.1561852  64.9608612  56.1967201  50.3297005
  30.9227085  43.6402626   8.8797483  30.3184147  43.7197685   8.1416845
  31.5748310  44.3248062   8.7301826  17.6260986   3.6385860  26.8937550
  18.5658531   3.8081505  26.9596214  17.5549355   2.6840694  26.8856487
  33.4036980  34.9461708  72.4997635  33.4278450  34.0619812  72.8656311
  33.2328796  34.8148766  71.5671234  80.6085205  39.4441032  88.5156174
  80.7922592  40.3565254  88.2921143  80.6258774  38.9838028  87.6765366
  64.9376755  63.2655754  38.5753899  65.5248871  63.3376465  39.3278656
  64.9376068  62.3329010  38.3600960  66.7165833  44.8424454  59.4911346
  67.2656784  44.7531891  58.7121849  65.8802948  45.1684189  59.1585846
  25.8452015  20.7675495  14.4559174  25.3032150  20.0310726  14.1729298
  25.4738197  21.0283108  15.2987165  29.4843731  43.8398895  25.1953239
  29.5223789  43.8239670  26.1516380  28.5902538  44.1172905  24.9957447
  78.2543793  71.5795898  55.2922249  79.1780548  71.5059433  55.5322800
  78.2584991  71.6283035  54.3362732  10.2001610   6.7404952  21.0365200
  10.1058426   6.6186619  21.9812374   9.4254007   7.2412176  20.7810669
   9.6408529  20.2004604  72.3050995   9.0112953  20.6795044  72.8439941
   9.5996523  20.6292953  71.4503326  75.7861557  12.1985931  57.0711250
  75.4426346  12.4254084  57.9352875  76.4956665  11.5814390  57.2498589
  58.2947617   8.3925562  18.4149609  57.7492638   7.8304052  17.8648243
  57.6780434   8.8110371  19.0155964   0.5898367  64.9512329  49.0693893
   0.8949579  64.0663757  49.2698135   0.1946628  64.8772964  48.2007103
  57.7128906  15.5178242  51.6394386  58.5805054  15.2394562  51.3461990
  57.8351860  16.4238338  51.9230309  49.1873474  66.4935837   3.1368358
  49.1948357  67.1018219   2.3977697  48.3421631  66.0488815   3.0724976
  50.4261971  10.0970688  69.9746399  50.0394897   9.7502909  69.1706238
  50.3142776  11.0451279  69.9047089  18.3568439   7.5500636  62.4887238
  19.1100445   8.1407280  62.4946709  17.6121674   8.1136322  62.2787743
  83.3554916   0.9136366   9.5470266  83.5133286   1.7089517   9.0383101
  82.6565781   1.1533202  10.1555586   8.2874088  21.8912582  58.2257996
   8.6707335  22.6992664  57.8846016   7.7585158  22.1735325  58.9720039
  52.8115959  60.4090271  57.3843002  53.0782852  61.0852089  56.7614975
  52.4207954  60.8937378  58.1113243  74.5613098  21.4563465  88.6313629
  75.0960083  21.9179821  87.9854279  74.9868317  21.6390266  89.4690933
  53.4878349  65.9634323   8.6584196  52.8616333  66.6607971   8.8528080
  54.0197411  66.3117599   7.9428945  16.2967415  47.3505402  30.2239437
  16.1124916  46.4118919  30.2589989  16.6727848  47.5529633  31.0805931
  35.9022141  45.3295555  28.4026527  36.3607025  44.6040115  28.8264542
  35.5310326  44.9466743  27.6077595  51.3187180  41.3476677  16.5266171
  51.8092041  40.5278740  16.5865822  51.8201904  41.8823280  15.9110718
   2.0720677  55.9442749  32.3430557   2.1424837  56.7713165  31.8663273
   1.3883587  56.1007500  32.9944305  54.1073608   3.1301291  56.6087112
  53.3670349   3.1142478  57.2152634  54.4769783   2.2485924  56.6587906
   9.0774279  32.2816582  87.9765930   9.1366081  32.6939774  87.1147842
   8.1513500  32.3462410  88.2099228  54.6192322   4.2676320  34.3194275
  53.7047348   4.1910167  34.5915642  54.9033623   5.1119971  34.6695023
  52.0783806   3.7085714  20.8151398  51.6179695   4.4729667  20.4687958
  52.9755707   4.0119205  20.9539108  15.9946814  22.4684429  74.9480057
  16.6777802  22.1689434  74.3480835  15.2810869  21.8413429  74.8306885
  66.8412781  63.0934944  48.0440903  67.7429276  63.0470428  47.7261047
  66.8895035  63.6515388  48.8202934  14.1930456   3.6893413  19.2714806
  13.2602320   3.7899885  19.4611149  14.3188438   4.1453166  18.4393196
  61.2958336  27.2179260  60.3064880  61.0940285  28.0331688  60.7657089
  61.2009201  27.4355488  59.3792000  28.2203026  14.0036402  86.2943115
  28.9261723  14.4674482  86.7447128  28.1212025  13.1862030  86.7823792
  35.6351051  67.5733109  66.0677490  36.0516357  67.1908951  65.2954178
  36.2203255  68.2846603  66.3279877  35.1494141   2.0811396  71.5732956
  35.6917763   1.4662684  71.0793228  35.2689819   2.9188714  71.1259232
  26.2975483  40.8047752  70.5207825  26.9571133  40.2237625  70.8997726
  25.5214024  40.2534561  70.4214020  25.9078979  40.2901649  76.5864563
  26.8322105  40.1197701  76.7676926  25.8285961  40.1958656  75.6372223
   3.0760534  47.6557732  87.9117737   3.0957885  47.5566025  88.8636169
   2.2362940  48.0786858  87.7323914  49.1578026  36.6046333  79.4817047
  49.7440529  36.4902496  80.2296753  48.8091507  35.7290001  79.3145599
  68.0211334  24.7038555   2.3957286  67.7288132  23.7925491   2.4130440
  68.5146561  24.7816086   1.5792568  52.9073677  69.0318604  69.9112778
  52.5087814  69.8051300  70.3105469  53.2240715  68.5158234  70.6526489
  57.3127785   0.1984151  13.0498276  57.6845703  -0.2136035  12.2699270
  56.8568268   0.9718049  12.7178516  75.8325653  58.6685066  52.6314125
  75.1501389  59.1854248  53.0595779  76.4293289  59.3191528  52.2615891
  60.1336136   1.2444322  35.9161224  59.5506668   1.0835037  35.1741562
  60.7553520   0.5169693  35.8944092  57.6733284  14.5108385  14.6767912
  58.2417755  14.4552670  15.4449139  58.2414742  14.2817278  13.9412956
  36.5766640  61.1584625  63.7597160  36.3799515  60.4155312  64.3303223
  35.9990654  61.8567429  64.0679703  57.2767677  44.5936165  29.0166645
  56.8390121  44.8209534  29.8369827  57.0368958  45.2975998  28.4140873
  51.7157745  29.0641632  59.9286690  52.1343765  28.2205563  60.0999451
  51.5580635  29.0659885  58.9845543  21.4578667  32.0470581  75.3241272
  20.9515247  32.7958221  75.0091629  20.8017178  31.4443512  75.6740417
  19.3743496   4.4356451  20.8639793  19.5535889   4.1882482  19.9568424
  18.4204140   4.4992023  20.9108906  13.6701365  68.9798126   2.6167419
  13.8463774  69.2993698   3.5016477  14.5352039  68.7881775   2.2545748
  73.7606354  59.6075516   5.1631293  72.9124985  59.2169914   5.3737254
  74.3368149  58.8592606   5.0072255  70.9575195  35.1605797  12.1842098
  71.2424011  34.6056480  12.9102440  71.6944199  35.7520676  12.0313854
  81.2199860  36.3923035  67.5699921  80.8522491  37.1181908  67.0659256
  81.9191513  36.7906456  68.0883789  42.2531357  56.9694061  24.4694881
  42.2538643  57.8983994  24.2388248  43.1664200  56.7739563  24.6791267
  42.5074310  57.7672310   8.1262312  42.1534309  57.5532913   8.9894495
  42.5352707  56.9292831   7.6643829   1.6433612   3.0986123  71.7368469
   1.9977781   2.2130754  71.8171310   2.1145806   3.4788942  70.9955139
  54.7811470  43.2404518  79.7730560  55.5807037  43.0336075  80.2569580
  55.0879364  43.5078697  78.9066849  21.1602631  64.4389038  36.0759850
  22.0561085  64.5431671  35.7553291  20.6101074  64.6338196  35.3173218
  44.4753952  52.0492363  33.0624809  43.7653732  52.5926437  33.4042511
  45.2304382  52.2712021  33.6073418  62.8579025  65.0037613  30.7985134
  62.8389664  64.6791382  29.8982391  63.4608231  65.7467575  30.7725773
  11.3091240  58.9928741  73.3165436  12.0220795  58.9446335  73.9534073
  11.7333069  58.8482361  72.4707413  64.6881485  62.2836304  18.4707756
  65.5563660  61.9852371  18.7416763  64.1742706  62.2898827  19.2783184
  77.1409683  63.1753197  24.8672180  77.2184296  62.4144592  24.2916126
  77.2542496  62.8209610  25.7491646   6.7866035  26.6375256  23.8610630
   6.9220977  27.5815868  23.9424438   6.7789555  26.3179989  24.7633247
  86.0885162  61.9351006  38.5958900  86.9834518  62.1115646  38.8860435
  86.0314941  62.3445892  37.7325821  52.9443932   6.1859903  47.8429794
  53.8541489   6.2347326  47.5493851  52.7553368   7.0604787  48.1832123
  44.3937683  42.0283165  68.1825256  44.4517937  41.1471367  67.8132248
  44.4820518  42.6105576  67.4279175  24.8685246  56.0303497  35.4704018
  25.7866650  55.7787628  35.5701790  24.9006310  56.9057846  35.0846367
  46.9698219  66.7828979  26.8309669  47.3239975  66.8640976  27.7165165
  46.3070641  66.0957336  26.9001579  57.7453232  42.4715462  13.3838015
  56.8996887  42.8408890  13.1294003  58.0007515  41.9241829  12.6412525
   9.2729015  20.8546486  17.2161312   8.6408081  21.1617508  16.5662251
   9.4180975  19.9351673  16.9931889  62.9984932  53.5936966  21.2045860
  63.8083382  53.2723999  20.8081627  62.3088112  53.3082008  20.6053658
  20.1896343  40.0948982  50.6162910  20.8924694  40.6640739  50.9298134
  20.5858479  39.2244339  50.5771027  19.1501179  33.2693024  72.5041504
  19.7316113  33.5624504  73.2056885  18.2746582  33.5217934  72.7974930
  21.0243778  45.4289398  14.8575306  21.0669212  44.6109161  15.3527679
  21.8828297  45.5012665  14.4403219   4.1416993  26.1102505   8.7183447
   3.4565678  26.7785549   8.7323055   3.7040262  25.3123131   9.0149460
  50.4465828  16.5557308  51.6784897  49.7851639  15.8751602  51.8033218
  51.0648079  16.1771202  51.0534439  17.0380745  61.9591942  27.9938469
  17.1038971  61.7499237  28.9255695  17.7547054  61.4716644  27.5876579
  21.5146790  48.1221619   3.1775849  22.0853748  47.5256615   2.6931019
  21.9020901  48.9869576   3.0423980   2.6710246  24.8389492  11.1207829
   3.1466281  24.1414471  10.6696444   1.9126191  24.4007835  11.5068731
  55.8181000  49.4042587  62.2065353  55.3819542  48.5865250  62.4459496
  56.0802269  49.2778320  61.2946472  65.4691620  68.3792953   7.6855321
  66.0134354  67.8135376   8.2331753  65.0120468  67.7768097   7.0987735
  40.3148880  32.4069557  66.8893890  41.2576294  32.5168953  66.7653351
  40.1880608  31.4592323  66.9337311  45.0560303  14.1053276  78.0586700
  45.2981033  13.2116528  78.3015289  44.1306458  14.0466366  77.8210831
  68.4977570  52.2327919  17.6198196  67.6116867  52.2429428  17.2578678
  69.0632553  52.4352989  16.8745441  83.3933334  23.7864666  80.5972061
  83.6032333  22.8633232  80.7385483  83.9180450  24.2536640  81.2473068
  60.6015396  23.8810005  43.8615761  60.8981018  23.4640617  43.0525970
  61.3044586  24.4896221  44.0889778  72.7100296  67.0484924  75.4137192
  73.1525650  66.2586517  75.7244339  73.1365204  67.2500687  74.5808334
  17.3432827  54.6290054  31.3067665  16.9722366  54.2217522  32.0895195
  16.6148491  54.6639709  30.6867714  65.4913712  34.5217628  57.1257515
  64.6068192  34.5549393  56.7614822  66.0388336  34.2252045  56.3987198
  72.1776962  46.5028419  72.5290375  73.1191940  46.6753387  72.5361481
  71.8208618  47.0940933  73.1918564  83.9603729  35.0339813  69.7621384
  83.7603302  34.6114197  68.9268799  84.6539993  34.4953880  70.1429672
  79.0262909  22.6713524  12.2390404  79.5644989  23.1878529  12.8388605
  79.3635864  21.7794189  12.3222075  45.7613792  15.2336855  13.3008118
  44.8586540  15.2011948  12.9841671  46.0349121  16.1388416  13.1521444
  14.4927378  20.0578518  10.2204380  14.4294834  21.0106716  10.1543818
  14.1174488  19.8516750  11.0765228  73.2982178  56.9684906  34.2457542
  73.2674866  57.9188423  34.3558578  72.4029922  56.7256813  34.0094452
  52.9066505  51.8417358  12.7669287  53.4371605  52.6330528  12.8597021
  53.2750549  51.2302704  13.4045982  51.8551865  71.3017426  70.8587952
  51.2387085  71.3911591  71.5855560  52.6781693  71.6535492  71.1981506
  83.6325073  27.8470764  67.0590897  83.5172272  26.9184494  67.2605743
  84.1961136  27.8561382  66.2854614  44.2109795  34.3026543  39.7515564
  43.9348068  35.0660896  40.2586288  44.4802284  33.6623268  40.4101295
  25.6936779  56.3388939  70.0591354  26.0716496  56.2912903  69.1810150
  24.7825909  56.5941391  69.9142227  14.4158058  35.3923264   3.5393569
  13.8126135  35.4842300   4.2768831  14.6980820  36.2867012   3.3479221
  40.6835899   3.7130289  76.9227829  41.3316879   4.4097276  77.0267715
  40.2374344   3.9215059  76.1019821  27.1460457   3.7067022  14.3453617
  27.7143784   3.0654948  14.7720737  27.6021633   3.9282522  13.5335093
  29.4373112  46.7143135  45.6064301  30.2028790  46.8487206  46.1650696
  29.4735203  45.7876396  45.3693771  68.2109146  34.7711983  35.8340378
  68.0022430  34.2371063  35.0675964  67.7648392  35.6030273  35.6749573
  33.0072136  67.7880249  27.6161633  32.5143471  67.3478012  26.9236908
  33.3542519  67.0756531  28.1531124  73.9824677  20.2212791  57.7803383
  74.9068146  20.4481945  57.6787453  73.6854630  20.7517929  58.5196457
  67.7949753   7.8427896  78.8102951  68.5854340   8.3370018  79.0274506
  67.4292831   7.5911522  79.6583405  37.1028633  71.5138702  61.8577805
  37.3146439  70.6681824  62.2529907  36.5616264  71.9553070  62.5123253
  80.1503754  12.7499495  77.0482330  79.5163269  12.1670265  77.4658661
  79.6372299  13.2424059  76.4076004  34.0076065  59.7336464  29.7740364
  34.3845711  60.5981483  29.9376259  33.5098953  59.8389091  28.9632149
  33.0114479  15.0406628  12.9433374  32.3066902  15.4807739  12.4681044
  32.7218323  14.1309776  13.0127974  81.4803925   4.0975504   5.0173407
  80.9632568   4.6686130   5.5854034  81.9087677   4.6943884   4.4037385
  65.8600998   8.8601522  32.0246124  66.5897217   8.8295374  32.6434364
  65.1197357   9.1759176  32.5426788  79.6681595  64.1573792  81.0317688
  78.7829742  64.3400269  81.3469086  79.5523682  63.4665260  80.3794250
  50.5127983   3.9359586  84.1246567  50.1022377   4.1181769  83.2793961
  49.8908920   4.2715263  84.7703018  58.6453171  62.2183571  78.0370178
  59.2121887  62.9728355  78.1971817  59.0634918  61.4996452  78.5111618
  81.0382004  22.6748981  29.5832462  81.1672897  22.9065228  28.6635075
  81.7762680  23.0804424  30.0382385  40.8705254  64.9054108  31.9387379
  40.4285469  65.4057541  32.6247025  41.4711304  65.5317078  31.5346832
  54.5916557  35.1943207  16.0446911  53.8008385  35.6378670  16.3514538
  55.1353111  35.1053619  16.8274784  52.2599335  63.7276154  83.3802109
  52.1782227  62.9156227  82.8799896  51.7113686  63.5894852  84.1523666
  75.5106583  12.1301317  83.9090347  75.2686081  12.7381458  84.6075821
  75.1006165  12.4922485  83.1235657  47.0273781  40.6675415  32.1907768
  47.5182610  41.4701729  32.0145760  46.6081085  40.8240776  33.0369110
  55.4744339  30.7263355  39.4574203  54.5179024  30.7604332  39.4467659
  55.7290840  30.8609409  38.5445862  65.2397156  10.7106113  63.2950249
  64.3928528  11.1560345  63.2693558  65.6450424  11.0133724  64.1075974
  50.3718262  63.7263718  35.6846313  49.5195007  63.8722763  35.2741585
  50.1853828  63.7066727  36.6232910  22.1605377  45.0950165  57.3537178
  23.1157646  45.0521431  57.3976936  21.9315758  44.5609131  56.5931015
  71.2354813  23.5964699  22.7673321  71.2221756  24.0362053  21.9172211
  71.5125046  22.7017632  22.5698719  17.1117287   1.1687783  60.1847000
  16.6471691   0.4639505  59.7334404  17.0633068   1.9113932  59.5826950
  37.3352394  66.9694366  88.7101059  37.2119598  67.2091217  87.7916336
  37.3042831  66.0127487  88.7142105  15.5009861  68.8071060   5.7305174
  16.0597305  69.0774612   6.4591765  16.0854321  68.3226242   5.1474786
  67.7240982   2.2726872  72.4239883  66.9860764   1.9402827  71.9130554
  67.3193741   2.7845373  73.1243057  25.7218609  21.9593945  73.5305176
  25.2375412  21.3125229  74.0435715  26.2010098  22.4716568  74.1818542
  47.8428116   1.9250072  26.5489235  47.4182091   2.1033769  25.7098007
  48.1825256   1.0344539  26.4609394  38.9020958  60.4600334  10.2051220
  39.1138115  59.5391731  10.0520706  39.4314880  60.7045441  10.9641953
  14.4948912  64.1151047  59.0944023  13.5664234  64.2252197  59.2994766
  14.5051184  63.8069687  58.1882133  15.9989653   8.4330177  75.7692184
  16.7601376   8.8453112  75.3607330  15.2511311   8.9319859  75.4405746
  14.9687176  39.4878159  72.9418335  15.9057589  39.3520889  72.8012543
  14.9073563  39.8292961  73.8339462  60.7259026  66.5101852  33.2443619
  60.5588989  66.6604233  32.3138924  61.2617340  67.2557678  33.5149651
  40.1254272  69.9578094  39.5170212  40.8268585  70.4293365  39.0676994
  39.5916214  70.6452713  39.9153709  71.3735962  36.8165932  34.8697739
  71.4513245  37.5949211  35.4214973  71.9251785  36.1626244  35.2990875
  50.0450020  60.4180336  22.8294678  49.0881729  60.3918304  22.8341579
  50.2722473  60.7113914  21.9471245  22.3626289   5.6224661  10.6281338
  22.0356903   4.8315396  10.1994400  22.2729549   5.4421887  11.5639172
  35.9688721  44.1728134  62.9253693  36.0712929  45.0902138  62.6721535
  35.2112083  44.1689529  63.5103188  17.3707218  46.1433907  58.2791634
  16.8884544  45.5420380  58.8466339  17.9617252  46.6090393  58.8708725
  68.0922928  37.9661026  86.5340805  68.3416824  38.5594025  85.8255386
  68.7586670  37.2791634  86.5169907  21.1375828  34.4232368  20.6425266
  21.7395496  33.6835556  20.7246189  21.4761944  34.9265785  19.9021072
  12.2204952  67.3285370  54.2322235  12.1134205  66.4258118  53.9324837
  13.0743437  67.3376083  54.6647644  43.1057701  68.8757935  77.9466095
  42.7428093  67.9965973  77.8393021  44.0403137  68.7325058  78.0960464
  61.4041977  16.4211102   5.5459747  61.8417130  17.2676735   5.6362100
  60.7532043  16.5600586   4.8581266  35.1247139  32.1604652   9.7064657
  34.4867592  32.0419426  10.4101696  35.0656815  31.3556805   9.1916151
  72.3334274  47.2121773  36.5098267  71.9586945  47.4954453  35.6758232
  73.2006836  46.8776131  36.2814102  72.2331238  34.9132614  31.0606956
  72.9694519  35.1241379  31.6347866  71.4881058  34.8139038  31.6534100
   5.6080894  45.7190361  13.9137707   6.2290931  45.3433228  13.2897301
   5.7037120  46.6653938  13.8065424  80.9408417   6.4382358  30.6701736
  81.4958878   5.7790318  30.2535114  81.0794754   6.3096542  31.6085110
  16.5785751  58.3662529  60.5258713  17.0013828  58.2041931  59.6825409
  16.6848011  59.3065109  60.6702957  37.4150391  44.2112923  58.4045563
  36.8077850  44.8965530  58.6836510  37.5492859  43.6769104  59.1872749
  29.5507126  16.7692833  70.9126587  28.6627254  17.0317039  71.1552429
  29.4415359  15.9179955  70.4888382  36.3649063  24.0547886  81.1542130
  35.9355011  24.8869495  81.3525848  37.2240028  24.3038387  80.8133926
  56.4490852  53.3058968  87.7649841  55.9041672  53.4259911  86.9872513
  57.2940941  53.6871490  87.5265884  66.2696304  60.7871132  28.7211990
  65.4400635  61.2313309  28.8964901  66.0418243  59.8579445  28.6899014
  44.5326347  71.7505569  49.1494789  45.1816254  71.7438202  48.4459190
  44.7926826  71.0289688  49.7221222  80.2312698  68.7002182  50.9776649
  79.2910385  68.5213165  50.9638214  80.3656464  69.3302841  50.2697182
  70.9540863   7.6050620  78.7749863  70.9838791   7.0487385  79.5533447
  70.5231094   8.4071407  79.0702133  59.1600723  21.6365166  65.6090240
  58.9804344  22.5342293  65.8884430  59.9819450  21.6971493  65.1221161
  76.0674286  51.7734413  82.4805527  75.6785660  52.4294357  81.9020233
  75.5520782  51.8281975  83.2853165  61.3630676  52.6891708  45.4431152
  62.2211266  52.4005661  45.1321907  61.1618690  53.4588394  44.9108047
  59.9469299  32.6941757  48.9977722  59.2709198  32.0495415  48.7887611
  60.6406937  32.5293312  48.3592148  40.9552078   6.4552488   5.4948888
  41.0484772   7.0972490   6.1987128  40.0178223   6.2633023   5.4684620
  41.7019958  21.0554848  18.8698273  41.0106049  20.7973213  19.4793873
  42.4582367  20.5287228  19.1283836  27.3811188  61.0306206  79.6731491
  27.2649364  60.2603798  80.2294388  28.1673279  61.4564705  80.0148544
   9.7460966  39.3665886   3.8117213  10.6053019  39.0481720   3.5349386
   9.6877460  40.2485275   3.4442871  52.3767738  15.1312151  36.4915161
  51.6205521  15.7053509  36.6128845  52.6905365  14.9575615  37.3790016
  52.5383606  50.3850594  22.2253246  53.1058540  50.8321495  22.8532505
  52.6502037  50.8747177  21.4104900  22.6539822  26.9897041  41.5233574
  21.7135353  26.8700123  41.6555138  23.0618973  26.4221859  42.1773911
  85.1928711  19.2915115  10.5130157  86.0607986  19.5864944  10.2374716
  84.6152802  20.0286198  10.3148088  43.4138374  62.2916222  63.8456573
  44.2059326  61.9022522  64.2160797  42.7088699  61.9927483  64.4200516
  49.0112000   2.8863473  47.9045486  49.3704414   3.7347591  47.6449852
  48.9334106   2.3982713  47.0848160  63.4335899  47.4286079  61.4227676
  63.8494568  47.2446899  62.2650642  63.2730942  48.3721657  61.4358559
   5.2507691  36.8958931  11.8601637   5.9642563  36.2583237  11.8341875
   5.6831002  37.7322540  12.0328455  72.1034775  67.5560226  29.2438965
  71.5972824  67.6027756  30.0549545  71.4475021  67.6085358  28.5487938
  17.9824219  48.8148766  46.2546310  18.4119511  48.7711220  47.1089249
  18.0987377  47.9404678  45.8829994  67.2042236  54.8557053  41.1986427
  67.5748978  55.2126961  42.0057297  67.6243057  54.0013351  41.0995522
  18.1897793  22.9931927  20.1338730  17.4070702  22.5894508  20.5088272
  18.5625305  23.5050545  20.8517075   2.6017971   8.3757524  48.8926964
   1.6469803   8.4080629  48.9519653   2.8702967   7.8424063  49.6408157
  27.6739483  41.7803535  83.6612244  27.2447662  42.3312492  83.0065918
  27.9332180  40.9944992  83.1801376  32.6593552  69.4652100  87.4615936
  33.3712692  69.6722565  86.8561630  31.9527493  70.0612335  87.2132111
  69.3717880  25.2408161  60.2868195  68.7067566  24.6788368  59.8891373
  69.0115051  25.4686337  61.1438637  23.5256710  34.9042702   0.7109972
  24.1318092  35.0782547   1.4311075  22.6573372  34.9616928   1.1096573
  31.5719757  27.8167343  74.9453888  32.0327034  27.4708748  75.7098160
  31.8549538  28.7293339  74.8878250  29.9492798  66.6261520  30.6877651
  29.4428749  67.3493805  31.0575294  30.5098820  66.3341751  31.4065895
   5.9680114  66.3823318  77.3999710   5.7671537  65.9498215  76.5700150
   6.8893895  66.1779480  77.5597305  48.2889977  64.7075043  86.7058105
  48.2499809  64.9061432  87.6413574  47.5502701  64.1177368  86.5551682
  24.5534267  59.7654190  74.7964859  24.4949284  60.0169945  75.7181778
  23.7687607  59.2395859  74.6414719  69.4143906  22.0940647  58.1424789
  68.4913788  22.0525303  58.3925858  69.4802780  21.5262642  57.3746948
  67.7942352  32.3105927  83.7905655  67.9112396  33.2604103  83.8104477
  68.4667053  31.9990635  83.1847839   4.2450786  64.0662155  72.3589859
   3.4255335  63.6076660  72.5442200   4.0470695  64.6129227  71.5986404
  60.8826866  23.5362034  47.7745590  60.0623779  23.0734291  47.9453392
  61.4451942  23.3075829  48.5145264  46.8382339  63.7044067   4.4186749
  47.7815323  63.8128052   4.5397935  46.4500923  64.0888443   5.2046700
  10.9252338  46.0345955  23.7220650  10.8347664  45.5347252  22.9107838
  11.0433912  46.9396820  23.4338150   8.7579765  26.6703968   0.4507177
   9.4666386  26.8428020  -0.1692071   8.4503345  27.5388241   0.7103739
  18.6039581  17.1483383  82.0580673  18.7032337  16.4636250  81.3965988
  18.6204605  17.9660225  81.5607224  58.3341293  37.6327133  56.9398994
  58.4458618  36.7685127  57.3360100  59.1358719  38.1047668  57.1648521
  36.8517380  12.0667496   6.5385714  36.3503265  11.5059233   5.9467139
  36.2456512  12.2636738   7.2527928   3.3136697   6.4316063  50.7959595
   3.0569243   6.5052204  51.7151413   2.8762774   5.6378536  50.4879379
  73.4352722  61.5220566  15.1569691  73.6309052  60.5881157  15.0813732
  73.2071915  61.7917671  14.2673235  44.5145302  47.5755119  75.4278641
  44.7082367  47.1429710  76.2594986  45.1758385  48.2638168  75.3561478
  60.8230934  12.7129345  41.8964996  61.7289810  12.7964954  41.5988121
  60.2983284  12.8462238  41.1071434  73.3455048  35.0877762  20.3291569
  73.3757553  34.6996613  19.4546947  72.6933289  35.7849350  20.2593460
  61.8820763  66.6979141  71.0433655  62.3819809  66.5499191  70.2406006
  61.5284233  67.5820160  70.9457321   1.7572410  17.8544178  13.5160227
   2.6553273  18.0390816  13.7909269   1.2267562  18.0390224  14.2910967
  67.7471848  45.4672813  69.7822418  67.1064072  45.8953438  69.2144470
  68.2779083  44.9373093  69.1875229  75.2581482  60.3600311  86.2535858
  75.0311050  60.5547943  87.1628418  74.7594833  59.5697403  86.0462036
  35.3474045  37.5629730  32.5655556  35.2703133  38.4103851  33.0039368
  35.1800957  36.9204979  33.2550964  52.5554543  49.7057228  79.1282272
  52.4349060  48.9867897  79.7485809  53.3307190  49.4593277  78.6237564
  63.0156593  26.3530884  78.6032104  62.6382599  25.8049088  79.2911758
  63.6374779  25.7801361  78.1545486  49.7138710  20.5402584   4.0717983
  48.8543701  20.7921181   3.7340674  49.5762482  19.6738663   4.4547577
  79.2156448  20.6983738  75.2462616  79.2560196  20.1952839  76.0595932
  79.6510239  20.1432076  74.5993729  54.4846687   1.5194513  71.5706711
  54.7824326   2.3896844  71.3055954  53.9228745   1.6792228  72.3290176
  71.4240723  38.7477303  64.8804855  70.7113724  38.2883606  65.3246384
  71.1292572  38.8270645  63.9732857  68.8158112  43.8994179  20.7200031
  68.7750854  43.0330391  21.1249237  69.7508163  44.0614777  20.5946045
  62.5039711   2.4278579  24.1358700  62.9956627   1.9693609  23.4545116
  61.8348274   1.8012031  24.4111538  81.7968903  35.9153061  50.1513596
  81.1852570  36.2009659  50.8299866  82.6043625  36.3934479  50.3400230
   0.7980337  35.1091728  13.0114851   0.4508949  34.8315849  13.8592300
   1.1830709  35.9691048  13.1802959  84.6185074   4.4296098  83.6723862
  85.5209198   4.1582127  83.5043488  84.6581802   5.3853927  83.7061081
  60.0775566  15.6891384   8.1469841  60.2354431  15.8867712   7.2238135
  59.9667740  16.5456390   8.5597382  15.5568218  12.3823576  19.1576672
  15.0749226  11.6501055  18.7732048  15.8423738  12.9020443  18.4062557
  53.7149849  24.5180740  84.7063370  54.2012291  24.2289085  83.9342041
  53.3926926  23.7089062  85.1033325  80.0934296  59.2837486  68.0981140
  79.1536713  59.1035767  68.0730667  80.3762817  59.2075768  67.1868362
  56.4597054  17.2177620  38.0895691  56.7778969  18.1190948  38.0387192
  57.2539749  16.6837082  38.1020050  62.2336693  46.0016899  19.6144772
  62.1421738  46.1400681  20.5571918  62.7626534  45.2075005  19.5392017
  48.6957016  67.5315247  42.4759254  49.0930748  66.8775787  43.0509682
  49.4252892  67.8678131  41.9555016   5.6679692  39.1309319  63.5100822
   5.7219896  38.4524841  64.1831512   5.7892742  38.6603737  62.6854057
  52.6443367  57.8749008   6.0883012  51.9644737  58.5477829   6.0529962
  52.5064888  57.4390335   6.9292827  42.5565300  68.0059662   1.8617154
  41.9934654  68.0079956   2.6357861  41.9479790  68.0000229   1.1228906
  38.2022018  27.8885899  14.9852228  38.1162262  26.9563408  15.1846056
  38.1912689  27.9310169  14.0290260  22.6070557  54.5597267  28.7839775
  21.7231159  54.1947403  28.8248291  22.4836864  55.5006561  28.9091244
  53.1517410  49.5729980  65.2701569  52.5198059  49.5992165  64.5516891
  52.7771530  48.9532394  65.8961105  68.3746719  40.6939850  79.5173874
  67.5299988  40.2456322  79.5591965  68.5578842  40.9445953  80.4228439
  28.3934040  33.6523132  66.3706818  28.1373310  32.9221611  65.8071747
  27.5798893  33.9232559  66.7961426   0.7503328  24.5212994  53.4447517
   0.1381935  23.8479500  53.7415962   0.7028721  25.2012138  54.1168327
  26.6955280  53.9255829   4.8153524  27.3905640  54.0988503   5.4502807
  26.7304497  54.6688423   4.2132096  79.5867004  55.4212685  27.0084438
  79.5224075  56.3159409  27.3425884  79.1062393  54.8925552  27.6455097
  85.4972305  69.0418549  77.5609207  84.6773987  68.5606461  77.4489365
  85.4726486  69.3492813  78.4670792  56.5370102  20.4922009  65.2353745
  56.0079308  21.2682400  65.0508041  57.4416771  20.7983227  65.1713409
  27.6117001   2.3284788  25.3719635  27.7950287   3.0547640  25.9678917
  26.8430214   1.8989171  25.7472496  86.3157043  44.4929390  18.1683903
  86.7955170  45.2556114  17.8453732  85.3946762  44.7118912  18.0269985
  84.1145096  20.0140228  22.8828468  84.8713074  20.5779076  23.0426102
  84.4748154  19.2527504  22.4280071  16.0609779  67.5546951   9.5062332
  16.6026173  68.2110901   9.0680590  15.4080057  67.3072052   8.8515501
  17.8003063  58.9574890   1.8425254  18.3012390  59.4561424   1.1970457
  18.1035366  58.0558052   1.7364503  43.1867828   5.0178280  67.8074112
  42.2412910   5.0486450  67.6613770  43.4648438   5.9329925  67.7701569
  71.0418777  21.3153992  37.2541847  71.5603104  22.0840969  37.0163460
  70.6116028  21.5607700  38.0732651   9.9367132  69.1576538  12.3529024
  10.3051596  69.6877975  11.6462002  10.6731758  69.0013580  12.9440250
  46.7122536  19.2255707  11.7890806  46.6835594  18.8899803  10.8930969
  45.8553658  19.6314487  11.9203739  44.1440620  18.2283268  67.3731842
  44.1019592  19.1823387  67.3074417  43.3512154  17.9859962  67.8516159
  64.3991394  27.7015381  20.4529419  63.9158173  28.3817120  19.9839058
  64.7563095  28.1477528  21.2207642  75.9132614  46.1130600  18.0747643
  75.4491425  46.1327362  18.9116859  76.5856171  46.7892838  18.1577892
  48.9567833  13.4386406  76.0578079  49.2511978  14.3115749  76.3176880
  49.1525993  13.3885078  75.1221924  74.2966232   4.0159254  67.7212372
  74.3415070   4.9499564  67.5167847  74.8440857   3.5985796  67.0561523
   6.2588291  61.9849777  31.9050617   6.5604939  62.7461777  31.4092770
   7.0525746  61.6298027  32.3051224  84.7141037  13.2706509  53.9363556
  84.2816086  14.1243963  53.9190102  84.9047241  13.1174812  54.8617897
  78.1529007  11.3199530  77.8104935  78.4617844  10.6376066  78.4065018
  77.7955093  10.8410215  77.0627441  58.7576714  35.3776703  83.1746826
  58.8271713  34.4362602  83.0160980  59.3941002  35.5513496  83.8682404
   2.4108555  33.5114746  80.2919083   2.8486354  33.1500931  81.0626144
   2.3232229  34.4454727  80.4821701  85.4578781  36.3686180  20.5238934
  85.8373184  36.6730766  21.3482513  84.9076843  35.6261063  20.7732658
  18.9425068  42.2216911  24.4290485  19.1323204  41.3437386  24.7598000
  18.0116062  42.1980858  24.2074680  66.2308731  59.3930550  51.5455589
  66.4947662  59.0029602  52.3788757  66.9944382  59.2857208  50.9783897
  46.9435272  39.0219765  88.3299942  46.4830132  38.1879692  88.2373047
  46.4526329  39.4931068  89.0032578  57.7805481  45.8072510  17.2826366
  58.7103996  45.5937157  17.2050953  57.3379288  45.1472282  16.7490749
  48.4593658  33.5060463  79.4688492  47.5536308  33.4187660  79.1717606
  48.7519035  32.6061249  79.6130676  62.2941170  40.8128548  28.7116833
  61.4072266  41.1724854  28.7295818  62.1740799  39.8726807  28.8454533
  80.5228806  70.5204468  48.9445496  79.6716461  70.5343094  48.5070038
  80.9013367  71.3799438  48.7594643  56.1439896  38.6993256  12.0254946
  56.2091980  38.0110283  12.6874828  56.5200310  38.3091507  11.2364521
  15.4208851  34.1997070  18.4985847  15.6802540  33.6004257  17.7987118
  14.5122671  34.4238129  18.2975349  77.4262466  24.4842968  83.5703049
  78.1558151  23.9782181  83.2127533  76.8316422  24.6033630  82.8296890
  16.2874279  71.6497192  87.9973907  15.8691616  70.7890091  88.0189362
  17.0714817  71.5216904  87.4634399  74.9461060   5.1767368  19.2306061
  74.3252640   4.6478715  18.7295246  75.1751328   4.6295776  19.9818707
  84.4213409   3.2659509  77.0874557  85.1068420   3.9251080  77.1962051
  84.5464706   2.9347234  76.1981583  64.6723404  65.7165375  77.1871033
  65.4442520  65.8660126  77.7330322  64.9441681  65.9847260  76.3093719
   6.4239788  10.7261057  26.9051971   6.9874802  11.0796328  27.5934677
   5.9470572  10.0125828  27.3290634  57.9944077  30.9800167  48.3622131
  57.6555862  30.0852928  48.3922310  57.5279045  31.4364014  49.0624428
   3.2413580   1.0011396  20.3580723   3.3150907   0.3738062  19.6388721
   3.0217688   1.8295448  19.9317417   1.2010671  52.0995598  70.4128342
   0.5377701  51.7369270  69.8256683   0.9637067  51.7653618  71.2778244
  23.1263847  40.6696205  71.7519760  22.8272114  40.9512634  70.8874512
  23.1928406  41.4794235  72.2579803  14.4237070  23.3205662  85.3432159
  14.8893528  22.5455894  85.6575699  14.5674019  23.9786110  86.0233383
  58.5148544  19.5512066  56.1190529  58.9288368  19.9121208  55.3350906
  58.9981308  19.9424324  56.8468018  18.8803616  10.8105507  61.8082695
  19.4971199  10.4565315  62.4489784  19.2651463  10.5922585  60.9594345
  54.5209427   6.8442693  45.5795593  54.3389664   7.2694998  44.7415276
  55.4199715   7.0989847  45.7871513  49.1379089  46.4244881  86.3960571
  49.1936188  46.0082474  87.2562180  49.1497307  45.6954079  85.7759476
  76.9886780  32.7388992  88.0879974  76.9012833  33.5229416  88.6301041
  76.1863098  32.7176361  87.5664825  68.4189606  46.6411476  44.4356842
  68.9028091  46.6643829  43.6101074  68.1262741  45.7333641  44.5163002
  16.7995186  51.1253586  35.9392395  16.6146393  51.6771507  36.6992264
  15.9462328  50.7737122  35.6853142  41.1688271  63.4217949  22.1528988
  40.4512596  63.6416740  21.5587730  41.0489273  62.4905357  22.3389416
  60.3435974   6.5063286  45.3794746  60.3028069   6.2914457  44.4475975
  59.7842674   7.2775607  45.4721375  19.9187050  42.0470276   1.0088202
  20.7306118  42.5405884   0.8929018  19.2794819  42.5060730   0.4639343
  80.2886658   7.4620709  54.3844337  79.9093246   8.3041067  54.1328239
  81.0940170   7.6912131  54.8482628  17.6619453  51.2077255  26.6707249
  17.3567371  50.6215134  25.9783115  17.3735409  50.7902718  27.4823799
  42.8642960  57.1824226  74.4680023  43.8032379  57.3457985  74.5570450
  42.8092728  56.3664627  73.9705963  43.6068192  53.7917519  45.1282921
  43.1895943  54.5695763  45.4986153  42.8993263  53.3333664  44.6748924
   9.7506990   3.5078754  71.5731888  10.3847742   4.0080175  72.0870361
   8.9055824   3.7068732  71.9761887  59.7568207  25.2314358  17.0852852
  59.6607132  24.3342476  17.4047375  59.5336533  25.7789116  17.8380795
   5.5172739  57.1027832  88.3457947   6.0571146  57.8915291  88.3976288
   4.6359992  57.4004555  88.5715866  33.0928116  33.6458893  75.0222778
  32.2223320  33.3893547  75.3267288  33.1437683  34.5840225  75.2054138
  17.9875774  70.3250809  65.2287827  18.6789646  69.9724655  64.6685410
  17.1942787  69.8708649  64.9448929  41.1003227  38.1395760  43.3096275
  40.3332901  38.6830673  43.1293144  41.2157249  37.6172638  42.5158386
  69.4607697  61.7423325  77.1125107  69.0192413  61.1607590  77.7314224
  70.0695190  61.1732178  76.6415863   0.5306701  14.5443554  57.8658524
   0.0417724  15.1949844  58.3697281   1.0877012  14.1101847  58.5119514
   1.8131725  66.4532776  34.9029503   1.4054495  66.5996399  35.7565155
   2.5036626  67.1141434  34.8508682  24.6817989  29.0446129   5.3256259
  23.7265587  28.9956551   5.3623543  24.8975620  29.8587761   5.7803950
  72.9304276  28.4679337  25.7733765  72.6817245  27.6427956  25.3568096
  73.7303009  28.2607422  26.2565994  65.2429047  53.7666092  27.6705666
  64.7444687  53.4416924  26.9207554  65.5755463  52.9770317  28.0973511
  81.9253845   3.2397203  54.4057007  81.8428040   2.7200916  53.6060753
  81.0920715   3.7054458  54.4758224  25.6380196  28.1085300  85.2997971
  25.0840721  28.5479031  85.9450302  25.6913357  27.2034016  85.6066055
  54.0607033   5.3103480   4.1272292  53.8452835   4.3802228   4.1957350
  53.6276054   5.7125907   4.8801312  46.3127670  13.6852093  64.4795456
  47.0211754  13.0418520  64.4576492  46.4406166  14.1542730  65.3040848
  54.7115555  67.5328217  81.2506332  54.8625298  68.4714050  81.3624191
  54.0527496  67.3159637  81.9103165  75.3018112  10.5554543  68.8229980
  75.3861160  10.2729034  69.7336502  76.0794754  11.0908232  68.6653595
  24.4116459  48.6431541  49.3008995  24.9263268  48.9144440  48.5408096
  24.9955006  48.0645256  49.7913437  11.6236582  22.1379166  88.8649139
  11.7020473  23.0917645  88.8487396  10.7276716  21.9662857  88.5751190
   5.2472091  27.0565224  30.1119576   5.5293202  26.7112217  30.9589596
   5.2232046  28.0053349  30.2360859  45.7428436   2.8066845  53.8728676
  45.8871613   2.0003126  53.3777199  44.8131294   2.7853832  54.0995941
  35.3050575  18.3531189  23.7883892  35.5220032  18.2719402  22.8596382
  35.8521271  19.0741215  24.1000042  54.7299538  60.1687088  18.2327919
  54.3127060  60.0882759  19.0905018  54.0607491  60.5687103  17.6774597
  70.1779709  39.5444565  82.3244781  69.3197250  39.2742462  82.6510239
  70.7025299  38.7439117  82.3386459  10.8763065  41.5406380  21.0107403
  11.5863199  41.9466095  20.5134468  11.2221012  40.6858559  21.2676563
  52.3745308  36.4511948   7.6818175  52.8091278  35.5990181   7.6478410
  52.4610405  36.7279739   8.5940351  74.0530396  65.0201263  77.3512650
  74.4494934  64.1585007  77.4802933  74.4175110  65.5590515  78.0533676
  78.9967957  47.2850533  51.9156761  79.8749619  47.4306412  51.5637360
  79.1419373  46.8031883  52.7299080  61.0909195  29.1592846  23.8067875
  61.9628639  29.4388580  23.5278931  60.5625229  29.9568443  23.7763309
  77.7820969  24.2688751  48.8344612  77.7390289  23.9623528  47.9286880
  76.8733826  24.4612789  49.0656624  69.1743011  10.6497030  38.1535072
  68.5916824  10.7213783  38.9095802  68.6109314  10.8242998  37.3996086
  28.2293854  59.4493637  83.7572479  27.4129105  59.0806198  84.0943375
  28.4364014  58.9130745  82.9918900  40.1515961  60.1804390  13.6181288
  39.7491150  60.1514320  14.4861145  40.5770760  61.0370216  13.5799170
   7.6457176   4.0168028  84.3404083   8.5638552   4.0003371  84.6105576
   7.3186870   3.1419318  84.5498886  40.5977631   6.8670402  -0.2535871
  41.4640923   6.9595156   0.1428384  39.9880447   7.1034856   0.4453889
  50.6852112  69.9969864  16.6769295  51.2086716  70.5391846  16.0868073
  51.0359879  70.1833572  17.5478210  37.5500298   8.0102234  15.8108606
  37.1312218   8.2277431  16.6436367  37.3189659   7.0938764  15.6587095
  14.8331690  71.0209656  19.8824501  14.2611427  71.4434357  19.2417164
  15.6203985  71.5653076  19.8963566   9.8238668  39.3618011  64.7906647
   9.6128397  40.0974617  65.3655624  10.7743692  39.4045792  64.6860428
  62.5650253  19.9793549  52.4736748  62.2161522  19.9374580  51.5833015
  62.4979134  19.0818920  52.7996902  14.0307674  59.2382889  60.3838196
  13.5188313  59.0315590  59.6018867  14.7403936  58.5959053  60.3822556
  23.9630585  10.2741852   6.6664662  23.9314823  10.6647673   5.7931509
  23.2307510   9.6579227   6.6798453  14.0403967  37.7248955  33.1185074
  13.1223249  37.9109421  33.3153877  14.1696148  38.0665550  32.2337456
  42.8245926  31.5543976  72.4684982  43.3166351  32.1235771  73.0602417
  41.9953384  31.3985767  72.9204865  34.5671043  50.5701027  76.9941559
  35.1237335  50.8834000  76.2812424  33.8918839  51.2425766  77.0840607
  72.0733643  44.7631378   8.3998470  71.4381790  44.1179085   8.7104120
  72.8947296  44.2765236   8.3305578  72.7777710  64.3790588  14.4575357
  73.3007736  63.6055794  14.6683073  73.3212662  65.1177063  14.7318544
  84.4768372  17.9950485  81.9684143  84.2809525  17.4242668  81.2254028
  85.2493057  18.4891167  81.6937714  80.7222366   8.0980005  25.5031605
  80.7812119   7.5232711  26.2663383  81.1682129   8.9008551  25.7729015
   2.7168033  18.7650948  73.1254807   3.2238412  17.9704857  72.9589310
   1.8955481  18.6285839  72.6531067  58.5341072   6.9923749  23.4707775
  59.3049507   7.4493585  23.1343327  58.0058098   7.6801147  23.8759308
  41.8802719  63.9251404  35.4589424  41.8649673  64.7579193  34.9872665
  41.0771828  63.9300766  35.9797668  32.6675644  64.0752487  12.0292797
  32.6354790  63.4916267  11.2712641  33.2657814  64.7751465  11.7675323
  63.9416580   3.1002398  88.4188690  64.2698441   3.9134827  88.8024826
  64.6838989   2.7517409  87.9250488  32.3147392  59.4276352  54.3310242
  31.4305763  59.7540092  54.4982643  32.7623634  60.1572952  53.9027061
  37.1952515  47.4036522  52.9294128  36.9806442  48.3364563  52.9367485
  37.7474060  47.2909966  52.1556778  15.1794052  23.2589722  23.9609699
  15.5431185  24.1437073  23.9265060  14.4818554  23.2610703  23.3054924
  36.3339806  20.9239540  70.4937363  35.8489380  21.0905552  71.3019562
  36.5030975  19.9818878  70.5057602   3.4823782  27.8164082  48.3329048
   3.5924330  27.6998978  49.2765923   3.1444948  26.9752331  48.0255127
   5.6865373  22.1401539  29.5622654   5.9605303  22.5514774  30.3820057
   5.1527977  22.8051224  29.1273289  39.0538292  34.4550858  72.0251160
  39.1665726  33.9977722  71.1918182  39.8107529  35.0381737  72.0826492
  28.4139862  66.5157623  46.1620674  28.0619640  67.2066803  46.7232742
  28.3637085  65.7236862  46.6971588  16.9882984  36.9321594  73.0051575
  17.1345158  37.7731209  72.5719757  16.8360119  36.3166580  72.2880783
  43.1496162   2.0189502  -0.0945420  43.5554199   2.8857727  -0.1077231
  43.5195198   1.5930536   0.6787713   6.4374905  34.1589050  10.8572350
   6.5897441  34.5038681   9.9774332   6.3806028  33.2110786  10.7363358
  72.3112793  70.5339127  45.1678314  71.9853668  71.2143784  44.5787735
  72.5805817  69.8227386  44.5865059  51.7632561  30.2234764  48.2717247
  51.7315483  30.2591343  47.3157158  52.5678062  29.7430344  48.4669304
   5.3132329   9.5085974  31.5259762   6.2249951   9.2770138  31.3490849
   5.1655073  10.3057079  31.0170326  47.5483551  38.1762581  61.6750565
  48.0882950  38.3857079  60.9129372  46.6545677  38.3778801  61.3980637
  10.2982521  71.2165298  16.4788914   9.8227558  70.8373032  15.7397575
   9.8753033  70.8437271  17.2524319  71.0452118  38.9570694  62.0746803
  71.0251236  38.5428314  61.2119904  71.4101944  39.8272629  61.9140968
  84.5471725  64.3880463  64.6298828  84.9170609  65.2278366  64.3575439
  84.3609924  63.9310646  63.8096733  77.6272049  65.2704926  82.7002869
  77.4702606  65.6984024  81.8585663  77.2020569  65.8400269  83.3414688
  77.0306778  58.1001511  44.2268372  77.7926025  57.5528107  44.0367737
  76.2886276  57.4962273  44.1975060  24.6928673  20.2745304   9.1415892
  24.7161274  19.8273449   9.9875889  24.6410580  19.5675850   8.4983358
  78.6221313   8.1508083  61.7166901  77.9106750   7.5905743  61.4065285
  78.7935867   7.8485322  62.6085777   3.6302238  67.5279999  58.0097771
   4.5162039  67.1660080  57.9945145   3.7416589  68.4446869  57.7578125
  19.2230301  19.7544060  69.9449463  19.9500523  20.2968941  70.2505188
  19.6317101  18.9266644  69.6918488   9.9635201  32.6945534   2.4888198
  10.6154814  32.1948242   2.9801967  10.1061096  33.6024628   2.7564015
  76.3262024  30.9095707  62.7901115  76.5717010  30.4165344  62.0072479
  77.1502380  31.2766476  63.1101913  31.4983234  50.6549797  51.0183220
  31.7138042  50.5402069  51.9438629  31.6784687  51.5786247  50.8432159
  58.1144562  65.6515808   9.8658199  58.5141258  65.7324753  10.7318172
  57.2876434  66.1284256   9.9381247  50.8474922  54.5915108  27.2908287
  50.3233261  55.3131065  27.6383667  50.8308334  54.7185593  26.3422432
  68.3127365  41.9338570  74.0113525  69.1018219  42.4100418  74.2698517
  67.7200851  42.6112900  73.6856537  83.1516113  34.2697372  36.4911537
  82.4398804  34.2643852  35.8511238  82.9045258  34.9492264  37.1184349
  32.2924347  52.9892159  75.9197006  32.1994705  53.9286461  75.7613983
  32.9144554  52.9289055  76.6447449   6.6672678  19.1781654  15.0061073
   7.2505755  18.5733261  15.4645329   7.2312531  19.9087257  14.7522688
  22.8556004  55.8857384  83.4044418  22.8143082  54.9300690  83.4394150
  22.0881176  56.1400452  82.8920670  44.3114700  11.3764277  76.2673492
  44.7100410  11.6048632  77.1071014  43.6004982  12.0082579  76.1599121
  37.6363144  69.0257568  10.7797089  36.8453827  69.4159012  10.4076185
  37.8836098  69.6173096  11.4904423  26.0377636  10.5301304   3.6722496
  26.6836586  10.4122629   4.3687820  25.8925743  11.4756250   3.6377347
  49.4327927  31.2339420   4.1851964  49.2425880  31.9011650   3.5257523
  50.0465927  31.6580162   4.7848949  33.7180099  59.1275406  62.5082359
  34.2361641  59.1683159  61.7044411  34.2805214  58.6696396  63.1328430
  50.0701866  38.1597633  14.1925573  49.5790100  38.9648170  14.3564692
  50.4451294  38.2813454  13.3202801  62.4253845  33.3812408  64.8452225
  62.9979820  33.2932205  64.0832443  62.8308067  34.0706558  65.3711243
  49.7630539  57.4104004  53.6153526  50.4696579  58.0359421  53.7754784
  50.0422707  56.9276390  52.8373985  67.7370911  57.4824409  88.2718964
  67.8674316  57.8042831  87.3798981  68.4341049  57.8970184  88.7803497
  85.5401306  22.2112751  63.3425751  85.2833099  21.3036289  63.5052185
  84.8102341  22.7307854  63.6796036  19.3244438   3.2356882  18.2066898
  18.8972168   2.4124134  17.9702034  19.5300293   3.6484275  17.3678741
  61.6631851   5.8502870  23.6750584  62.3996658   6.1419206  24.2124367
  61.0095749   5.5505552  24.3068733  80.6793823  34.4376106  19.9116821
  80.7626266  33.4840431  19.9088688  79.9341965  34.6112862  20.4868107
  16.9779301  33.1396179  60.7034531  16.6353588  33.0297050  61.5904694
  16.2219810  32.9930153  60.1348724  47.4812851  66.0048370  67.4315872
  47.5772324  66.9233475  67.1798630  48.2450409  65.8257751  67.9800797
  30.6524544  71.3304749  14.3910236  30.8771133  72.0404892  13.7896633
  30.3342762  70.6279984  13.8239927  48.3475113  42.5460320  52.4828682
  48.8242378  43.0821152  53.1165695  47.6919632  42.0838470  53.0052414
   7.2615480  53.7615318  43.0072250   6.6152291  54.2453499  42.4930000
   6.8365254  52.9261017  43.2012367  41.8590202  35.0412216  27.4944038
  42.4894867  34.3312988  27.6158752  42.2551613  35.7917252  27.9371777
  48.8459129  68.9035645  19.5145035  48.9081993  68.4929428  20.3769093
  49.0439682  69.8264084  19.6737556  30.3611698  66.1429825  33.4140930
  29.4101429  66.2317123  33.4765778  30.7025738  66.7681198  34.0535278
  24.0098057  11.7896500  76.9529343  24.6252480  12.5005045  77.1322250
  23.2960548  12.2067795  76.4704437  36.2192497   4.1111617  69.8979416
  35.7433052   4.8934155  69.6190338  36.4497337   3.6673229  69.0817795
   1.5426086  58.5114021  71.2969284   2.3685865  58.6981544  70.8507080
   1.6109108  58.9754257  72.1313477  72.9772110  35.6582489  44.3237648
  72.6052704  35.5486031  43.4486237  72.4150238  35.1303711  44.8908005
  69.2104034   6.9670925  70.8731079  68.6647263   7.4578848  71.4875946
  69.0360184   7.3706441  70.0228348   7.1213431  59.5018845  55.7333260
   6.4617095  59.8314323  56.3436661   7.1541686  60.1591911  55.0382690
  13.3284864  59.5079155  66.0404282  14.0502748  59.2180672  65.4825363
  12.5397949  59.2953224  65.5414276  72.0777740   6.8064222  37.7000885
  71.9756927   6.8989105  36.7528496  71.8253174   7.6597691  38.0526466
  26.6020927  51.5267868   3.0366862  27.3626156  51.8963928   2.5881028
  26.5740929  51.9841118   3.8771040  26.3511944  62.6154518  76.7842255
  26.1007137  62.9354973  75.9175873  27.2483540  62.9267273  76.9044189
  26.7417240  56.9763374   8.4383821  27.0855961  56.3147163   7.8381844
  26.5656986  57.7355309   7.8826175  72.5975723  54.0227165  69.0334930
  73.3112030  53.5024414  69.4026566  73.0141373  54.8393402  68.7581100
  55.8385124  48.3566513  48.4941521  56.1816902  49.1858902  48.8270569
  56.5644951  47.7405090  48.5918617  83.5865479  51.9529953  71.4398804
  84.3388824  52.5270004  71.2958603  82.9272308  52.5186081  71.8418884
  61.6182518  22.8394547  72.6586380  62.4685135  22.6321888  72.2709198
  61.1908646  21.9898319  72.7668762   1.3439358  20.1322994   2.6693602
   0.5278562  19.6934891   2.9095476   1.3216509  20.9595242   3.1504371
  53.2696953  40.0573883  49.4647102  52.6290359  39.3668060  49.6346703
  53.4708176  39.9734001  48.5326538  20.5777378  -0.2958897  73.3001633
  20.0028973   0.4619566  73.1931229  21.3271942   0.0395586  73.7921219
  72.1078262  46.8800964   0.2591020  71.9884491  45.9369431   0.3706720
  73.0008621  46.9708214  -0.0733038  61.9236832   0.9988059  62.5932770
  62.4680099   1.1179670  63.3715706  62.4811821   0.5165813  61.9826317
   9.0379763  14.1842356  82.5112000   8.7209253  13.5993986  83.1994400
   8.9030199  15.0639639  82.8634720  69.9450607  48.2890739  31.7536163
  69.3114929  48.6481972  32.3747902  70.7980804  48.4868240  32.1402512
  16.5308666  67.0873489  28.7712536  17.1522007  66.4191666  28.4819431
  15.9391670  67.2022171  28.0276604  26.2204609  40.0221176  58.7914658
  26.0702991  40.8266907  59.2877998  26.1037769  39.3203354  59.4318695
  26.6355076   9.7694635  48.4448853  26.6485538  10.7235670  48.5206985
  25.7619057   9.5677538  48.1096802  14.5630989  12.7873020   2.5087252
  13.7091627  13.1962023   2.6495290  14.8300819  13.0837975   1.6386433
  17.9921265  48.1689796  66.0624161  18.1815338  47.6422272  66.8388748
  17.1641445  47.8200340  65.7323990  23.4152164  70.5272980   8.0072508
  24.3060455  70.6502457   7.6793180  22.8880558  71.1512833   7.5082765
  77.4231720  42.4704857  70.1762695  76.7609024  42.8382301  69.5911331
  77.1018448  41.5920830  70.3797150  85.5558472   8.8890619  86.4294815
  85.0232544   9.5945463  86.0622482  85.5541382   8.2110691  85.7537918
  29.8212032  44.8115273   1.9119359  30.4900951  44.9917450   1.2513782
  29.4165764  43.9925880   1.6258457   6.8600163   3.2746928   2.2260337
   6.6481171   3.6896586   3.0621758   6.4875331   2.3955445   2.2937572
  46.6985207  37.7239647  31.3964844  47.5439377  37.5132027  31.7928143
  46.6939011  38.6792336  31.3358746  65.1645813  12.6038504   3.6005290
  65.3065033  13.1164856   4.3963280  64.2565994  12.7849998   3.3576732
  11.8012476  52.0662880  79.0257797  11.7635813  52.8860054  78.5329590
  12.4922514  51.5609207  78.5975876  36.4762115  70.4494553  47.4421577
  36.6099701  69.6016083  47.0185013  35.8292007  70.8921967  46.8929825
  80.6011505  47.7947044  87.1336212  81.3995132  47.3407326  87.4033508
  80.8878708  48.3950691  86.4454498  23.9905052   6.8104720  80.6629486
  23.1769428   6.3351564  80.8315353  23.7945995   7.3586159  79.9030838
  19.7817478  39.1480141   9.4365826  19.4245739  38.5083237  10.0525827
  20.6717720  39.3104515   9.7491522  10.9236670  66.9061737   4.7671056
  11.5263166  66.1846924   4.9474106  10.2270231  66.8040924   5.4155636
  43.5956726  39.1755562   1.7644471  43.0852661  39.4463654   1.0013095
  43.3183899  38.2745895   1.9305992  69.0390549  64.0118484  24.4740582
  69.5403290  63.3596001  23.9846401  69.6077118  64.2512589  25.2058620
  28.9644909  60.4009781  44.5062561  28.9376049  59.9372559  43.6693153
  28.0767002  60.7399826  44.6208725  66.3961716  69.8127136  27.1352882
  67.1057510  70.3106613  26.7293530  66.0466614  70.3980865  27.8071632
  50.6473541  63.1512222  85.3402710  50.3270302  64.0473633  85.4429932
  50.5739136  62.7689056  86.2147293  56.0944862  19.5240536  60.4553146
  55.9306602  18.7082157  59.9822388  57.0477028  19.6111660  60.4596024
  13.2315140  40.5941620  70.9775009  12.4710131  40.0415344  70.7973099
  13.9022923  39.9851952  71.2864380  38.0832977  39.1552315   5.0496478
  37.5415115  39.8699188   5.3841968  37.5142174  38.3863907   5.0852175
  12.5932350   0.7847971  72.5713806  13.1955290   0.4129702  73.2157516
  12.0476723   0.0467269  72.2996368  86.0867310   6.4842453  50.8195000
  85.7192154   5.7209597  51.2651024  86.2940292   6.1708422  49.9391403
  60.2657013   2.6568260  64.9878540  61.1139030   2.2359936  65.1281662
  60.2649574   2.8906245  64.0596466  25.0770950  11.0883007  89.0067291
  24.2355728  10.7014694  89.2484665  24.9319134  12.0326824  89.0641632
  80.9712219  29.4623375  24.7203999  81.7982864  29.5157948  25.1992931
  81.2276001  29.2528553  23.8222809  52.8177795  41.7356415  63.3487930
  52.2813187  41.9548492  62.5869560  53.5779419  41.2824898  62.9840546
  22.8324623  67.9870453  84.0043945  22.4835396  67.6689529  83.1717453
  22.2602730  68.7171402  84.2405930  45.9987793  10.6443586   3.8666813
  46.8623238  10.2638397   3.7062798  45.5774879  10.0351858   4.4730263
  72.8510361  21.3022594  11.9608936  73.4423065  20.5606670  11.8317699
  73.4026260  22.0737476  11.8313246   9.1307564  50.6079140  29.7478371
   8.6332378  50.1149673  29.0953693   8.9913464  50.1308899  30.5659103
  60.8595428   4.7032032  76.0822296  60.6910477   4.6988997  75.1399918
  61.5415154   4.0431476  76.2066116  12.6802664  41.4342079  59.5930939
  12.4551353  42.0644188  58.9087067  12.2323494  40.6289558  59.3339157
  82.6692047  69.9318619  13.6198826  81.8910294  69.4701920  13.3075733
  82.3530197  70.8054047  13.8504829  52.9629364  13.4827690  85.4947891
  53.6989021  13.1139889  85.0063324  53.2496071  13.4670954  86.4079132
  69.7100754  54.3171921  66.2331924  69.5011673  54.5058022  65.3183060
  70.4678116  54.8698196  66.4246902  38.0162201  40.6770859  82.4518509
  38.1432686  40.0071220  81.7801056  37.9190826  40.1840286  83.2665253
  81.5056000  60.1883583  77.3120117  82.1287537  59.6209908  77.7658920
  81.7975693  60.1838799  76.4004440  37.9373970  46.0758705  68.6006699
  38.0381203  46.6391945  69.3679733  36.9907150  45.9802971  68.4963226
  49.1468620  20.1228561  69.8966599  49.5125389  20.9761810  70.1297836
  48.4282799  20.3257504  69.2977371  14.6565800  54.9606285  29.8282337
  14.9060431  54.5267334  29.0123081  13.8936357  54.4713898  30.1361198
  79.4594421  48.1857338  54.9430313  78.5224762  48.3805695  54.9621544
  79.5060120  47.2540817  54.7283478  74.6263733  57.3777847  65.5758514
  75.2369080  58.1118469  65.6438980  74.2545929  57.4561310  64.6972885
  44.2138596  35.3332176  23.6946106  43.8210411  36.0220718  24.2307091
  43.8226662  35.4509964  22.8289757  33.3954048  57.2095604  20.1099548
  33.2877502  57.8030090  19.3666801  33.7705193  56.4151917  19.7298241
  84.9433823  50.7057533   4.4425530  85.8324890  50.4590263   4.6972060
  84.4553070  50.7257614   5.2657280  83.0229645  66.6331940  47.5325241
  82.5541000  65.8058319  47.6414223  82.5313797  67.0999222  46.8567009
  38.6225777   9.8818789  68.3302383  37.6937981   9.6509857  68.3133011
  38.7307777  10.4930410  67.6015396  25.0184975  56.8044701  11.0044432
  25.3972359  57.0256577  10.1536398  25.0926533  55.8517227  11.0592279
  65.1590805  36.1798668  72.5562515  64.9995804  35.3841629  72.0486603
  65.0679398  36.8908958  71.9219284  33.1172371   3.8469639  68.0168381
  33.2266731   4.0831170  68.9379730  32.2166634   3.5282583  67.9566498
  48.7567635  43.1269455   4.0760560  48.1945724  43.8891220   3.9372549
  48.9645691  42.8187904   3.1939631  28.7880287  48.2068214  60.7158051
  27.9840794  48.2632980  61.2322426  28.5715332  47.6090813  60.0002174
  33.1544762  49.1179352  33.4326134  32.5290031  49.8423424  33.4484444
  33.0750275  48.7521057  32.5516586  83.4549789  12.5423508  33.9018745
  83.2566452  11.6120119  33.7952766  83.6470413  12.8493547  33.0158157
   5.5123081   5.6241565  83.4923859   6.2725310   5.1608219  83.8439713
   5.4172006   5.2869711  82.6016006  32.5957146   5.2460527  77.4524918
  32.4372330   6.0989785  77.0479813  31.9719906   4.6588297  77.0254517
  35.5874634  62.6919212  48.1562424  35.0362625  62.0159264  47.7619858
  35.3794670  62.6561394  49.0898857  46.8156090  23.2491970  57.3622475
  46.3250999  23.3324604  58.1799889  46.4358177  22.4830685  56.9320869
  67.7100830  56.3950806  57.2327652  67.0509949  55.8481255  57.6601791
  67.5160675  56.3180313  56.2986031  41.5384407  46.9393654  47.8194542
  41.4875641  46.5256462  46.9577866  40.9922676  46.3898926  48.3815956
  76.8503113   2.3035944  18.3242264  76.5028610   2.4303098  19.2070942
  76.0838547   2.3648660  17.7541199  46.3081512  49.9237785  52.1280136
  46.2839432  48.9670944  52.1080055  45.5241585  50.1730232  52.6173630
  47.4418449  50.4399910  45.8664131  48.3357887  50.7438126  46.0238609
  46.9477386  51.2375450  45.6766853  52.2709770   4.8679380  61.0984612
  51.4518356   4.3765078  61.0373650  52.8630829   4.4228749  60.4921913
  21.2224350  61.4159851  64.5592880  20.6646290  60.6422157  64.6390762
  22.0814915  61.1244812  64.8647079  77.3702774  37.2403145  10.4920692
  78.0892258  36.6591530  10.2438869  77.3181992  37.8754044   9.7778025
  25.8741665  68.5399094  82.9364471  26.3123055  67.7503967  83.2541428
  24.9718971  68.4533768  83.2441025  76.9854431  34.2984200  68.1286163
  77.3346786  34.3214874  67.2377014  77.3681412  35.0647659  68.5558014
  51.8986320   2.9362431  58.5804710  51.1456146   2.8302047  57.9991302
  52.2476692   2.0510054  58.6841927  70.0428238  54.3462219  44.7219467
  69.1772537  53.9454193  44.8017578  69.8865967  55.1603203  44.2433395
  37.4533577  61.8702011  86.7329483  36.9041672  61.6552849  87.4868927
  36.9673958  61.5352097  85.9793930  79.6055145  67.7186127  60.8774223
  78.7285995  68.0733109  60.7309799  79.8796844  68.0953140  61.7135773
  72.4743500  71.2207794  67.7178802  71.9631042  71.0179672  66.9344788
  72.3909149  72.1689072  67.8195190  65.2659073  36.6152496  41.2033691
  65.6489716  36.9982948  40.4142151  65.4650650  37.2449646  41.8962097
   6.6896424  10.2056932   1.4851687   7.6426148  10.1971560   1.3957143
   6.5239053   9.7745848   2.3235650  82.3098450  17.5175591  60.2326393
  82.2435913  17.6805325  59.2917442  82.2050400  18.3805904  60.6331673
  51.8203506  47.7355881  66.6108932  50.9554787  47.5565186  66.2418900
  52.3959236  47.0940590  66.1944885  77.1604843  21.0170841   3.8643785
  77.3215027  20.2716923   4.4429069  77.6850815  20.8331776   3.0851402
  51.1979446  64.0729294  60.4322739  50.8532486  64.8289032  60.9075813
  51.2667198  63.3848724  61.0941505  67.3194351  69.2778778  69.2975540
  66.8930206  70.0680847  68.9659348  66.9843750  68.5738983  68.7422333
  69.6265640   9.8136816  79.6144409  69.8657837  10.5080099  79.0005035
  69.3401947  10.2777491  80.4011154  72.7522049  41.4504013  52.1400490
  72.3893585  42.1226273  52.7168350  73.6897049  41.4496346  52.3332291
   4.3546572  40.8137932  46.7627335   5.2202950  40.4887543  46.5152397
   4.5279074  41.4574509  47.4496956  63.1780472  38.7243881  46.0824928
  63.1292992  38.4674988  45.1616974  62.3582115  39.1910744  46.2446785
  23.9622116  12.4066715  68.9226990  23.3677845  13.1291294  69.1250381
  24.6576767  12.4784517  69.5764618  84.9414520  45.9673386  20.6904354
  85.4552383  45.1631508  20.6160183  84.3517151  45.9453888  19.9368057
  58.6464958  45.2749062   6.0158811  57.7650490  45.5697327   5.7870488
  58.7056160  45.4083023   6.9618950  11.5262728  28.6682014  62.7088203
  10.8208618  28.8803024  63.3200836  11.5553017  27.7114906  62.6992264
  43.3771667  63.4141579  49.4171982  43.0683250  62.8032799  50.0862846
  42.5796165  63.7179871  48.9838066  31.6450920  51.3923340  56.8753052
  31.4912853  52.2186508  57.3333168  31.9245586  50.7864799  57.5616493
   3.2690916   7.1988082  37.5266418   3.0791903   6.5607867  38.2144623
   3.6776268   6.6852832  36.8297768  11.8645706  22.2027054  77.3451538
  11.6655569  22.8363819  78.0344162  11.4022112  21.4075489  77.6100693
  83.0726395   9.5610647  32.1329384  83.1647263   8.8119698  31.5442028
  83.8338013  10.1096468  31.9433956  81.3406372   5.7875218  84.8838120
  81.9464722   5.0464520  84.8869705  80.6035080   5.4965591  85.4206696
  21.7725410  51.8864746  88.5805588  21.2238197  51.2943611  88.0662308
  22.5404263  51.3629723  88.8097458  51.6177177  38.0717430  48.7164650
  51.2020416  38.4245644  47.9297218  52.1725159  37.3606606  48.3958511
  18.9292545  43.4392052  40.4175682  18.6304569  43.7616043  39.5672684
  18.7786274  42.4946022  40.3819695  47.0655823  16.4211483   4.5233288
  47.7959366  15.8274403   4.6974711  46.7120667  16.1262646   3.6841018
  47.8967209  42.9456520  71.1254120  47.3701859  42.1872787  71.3781357
  47.6242790  43.6378517  71.7278061  41.3595657  14.8196487   1.1062126
  40.8808250  13.9928951   1.1655153  42.1283989  14.6916037   1.6618452
  75.3283386  59.9300385  32.1858177  75.5094376  60.8488007  32.3840790
  74.6144028  59.6934662  32.7779007  52.8910103  63.0516167  25.4157314
  52.1337852  62.7519264  24.9127121  52.7374344  62.7198334  26.3003578
  45.7449837  21.4817009  70.5819778  44.8344688  21.5471058  70.2940140
  46.1639557  20.9238071  69.9266510  69.3916779   2.3187761  65.6840820
  70.2526855   2.0980401  66.0392990  69.3682480   1.8896372  64.8287888
  76.0738678  16.0811081  59.3280983  75.9772644  15.1820345  59.6420479
  76.7705994  16.4506550  59.8705215  23.0868568  70.7964401   4.1776767
  24.0440063  70.7879562   4.1823273  22.8387375  69.8764038   4.2682881
  53.0102844  49.4671783  55.9894943  53.3116570  49.5947380  55.0899773
  53.8143730  49.4092064  56.5055466  72.9645920  62.8152046  70.8093109
  73.0915527  62.6889877  71.7496185  72.7950897  63.7524643  70.7141876
  78.3989029  32.4597626  14.7280207  78.0311356  33.3391457  14.6404629
  77.9658508  32.0947838  15.4997034  11.0233231  19.2012501  68.5807190
  11.1826534  18.8586731  69.4601974  10.9615164  18.4223232  68.0278244
  29.5189953  30.3649826  87.3371353  30.2552490  30.7029610  86.8272934
  29.8617649  30.2823639  88.2270279  41.2019157  56.5717010  62.5082932
  41.5372620  55.7367859  62.8349342  41.4938850  57.2158966  63.1532745
  61.3995895  60.2727661  86.8707352  61.2046471  59.3361015  86.9005966
  60.8861923  60.6008415  86.1324844  47.2840958  28.4612408  79.5119629
  46.5906410  28.1242504  78.9446945  48.0365295  27.8979473  79.3309326
  80.4634628  31.0649147  60.8338394  80.5394440  31.7621517  61.4852371
  79.9383545  30.3906097  61.2648888  76.1057434  49.6213188  44.6508255
  75.1976395  49.4844551  44.9207420  76.5948715  48.9295464  45.0962906
  61.0009117  15.4491959  46.1162682  60.9327698  15.8649292  46.9757767
  60.1927567  15.6955042  45.6663246  75.8159027  10.5858078  38.2926254
  76.7552109  10.6621361  38.1249771  75.6115875   9.6709585  38.0988770
  67.9803696   6.7066340  63.0404549  67.4319305   7.3161898  62.5466003
  67.5434418   6.6241622  63.8881111  32.8989410  67.9154358   7.1810236
  33.6843872  67.4021149   7.3702626  33.2267189  68.7045898   6.7497101
  43.5926361  33.4065971  74.5084915  44.4793816  33.4933853  74.1586609
  43.7085457  32.9589310  75.3465805  37.8637695  42.0885925  26.1416798
  38.0275040  43.0262146  26.0402508  37.2926826  42.0266342  26.9073505
  57.7572479  44.0741081  39.7738075  57.7853241  44.1665688  38.8214951
  58.6615219  44.2140083  40.0547867  68.1045990  43.8948975  35.9495506
  68.6628876  43.1430397  36.1476746  68.0073166  44.3482552  36.7869492
  51.1741791  35.7621651  53.8613434  51.7121620  35.8758049  54.6448555
  50.5914383  35.0333443  54.0745697  33.9003944  39.7020111  14.5108023
  33.9919510  40.1871147  15.3308773  33.3835945  38.9310913  14.7449665
  63.7590523  27.1576347  71.9163742  63.7082214  27.2213478  72.8701019
  63.3697929  26.3073654  71.7120438  58.7837868   2.1776762  88.1326599
  58.9807701   1.2768501  88.3894501  59.5793228   2.6663220  88.3437881
  41.0337143  34.1306648   2.9766543  41.2000237  33.6462631   3.7853131
  40.3051987  34.7130623   3.1918435  13.5517082  37.6004372  11.2117319
  14.1435032  36.9016533  10.9329653  13.9629087  38.4039078  10.8930187
  83.8976440  40.0090561  88.9330292  83.3253937  39.7690277  89.6618271
  83.6824265  40.9237556  88.7507172  71.6315384   9.0118341   8.6971073
  71.0264969   9.0821037   7.9587207  71.0648041   8.9387445   9.4650297
  13.9221745  43.0700455  86.5373230  14.0729647  42.3013344  87.0873947
  13.9508657  43.8088951  87.1451950  14.3084116  66.1192780  51.1748962
  14.9556837  66.6562347  50.7177925  13.6856985  65.8636398  50.4943771
  84.1612244  22.1137466  69.2816925  84.0916061  23.0621319  69.1723785
  83.4362488  21.7594376  68.7668076  72.6009598  50.1676407  29.1388607
  72.8260193  50.3229752  30.0561676  73.1818008  49.4571457  28.8667374
  79.0712891   3.0827184  24.5572891  79.7908630   3.7139053  24.5643539
  78.8997116   2.9047494  25.4820175  51.7383995  24.0780392  56.3606071
  50.8860550  24.0275421  56.7932625  51.9693756  23.1669693  56.1794052
  62.1915970  37.4553795  32.5347633  61.8905792  38.3510399  32.6877861
  62.0211258  37.0011444  33.3598938  58.0178223  24.2993870  67.0153122
  57.7429581  23.6885548  67.6991043  57.7662354  25.1607800  67.3483887
  71.5363235  13.8823757  85.5955276  71.2424469  14.5059090  86.2596588
  70.7325592  13.4630117  85.2883911  54.2321434   6.7333989  18.4945087
  54.3677139   7.2154799  17.6787567  54.8790169   6.0284181  18.4664345
  45.0271149  15.7086716  44.9951172  45.9323196  15.8313084  45.2811165
  44.8666191  16.4333706  44.3907280  69.4632645  22.6371517  39.6793480
  68.6899490  22.6670666  40.2426605  70.1902390  22.4701424  40.2792206
  84.7294464   4.8240685  36.0870018  85.0142975   5.1106277  36.9547424
  84.6960297   5.6278648  35.5683250  84.2963867  67.7465134  34.8323135
  85.2248840  67.9576111  34.7345505  83.8814468  68.5830231  35.0428009
  50.1636391  13.8675165  60.3571320  51.1111069  13.9611044  60.4560318
  50.0350418  12.9427738  60.1460762  49.7921410  69.3999023  63.7231560
  49.2262650  69.0380478  64.4051208  50.6007233  68.8917847  63.7883034
   7.4872804  30.5488758  35.7528343   6.8879371  29.8042984  35.7016220
   8.1372471  30.2887020  36.4055862  28.3330345  52.4739647  59.8421135
  28.3124409  53.1789360  59.1949501  27.4167671  52.2171898  59.9458160
   2.2108626   3.9989359  22.2594929   2.3545568   3.3766780  22.9724998
   2.6144595   3.5858777  21.4961281   8.0131893  43.9016571  30.1324272
   7.4983459  43.1035233  30.2513885   7.3639655  44.6047592  30.1127510
  41.7647362   3.0765042  17.4611511  41.6275902   3.1426888  18.4061604
  41.5286636   3.9406090  17.1237717  79.5607605  60.5382729  49.4994202
  79.4741974  61.4203377  49.8609505  80.4467545  60.5134430  49.1379967
  22.8436127  48.3906326  52.5083542  22.3677330  48.3615532  53.3383713
  23.2171955  49.2713699  52.4771881  83.4114151  41.4757080   7.9930429
  84.1958542  41.6199188   8.5222807  83.5298080  40.6010246   7.6227121
  19.6816597  50.9228363  11.4890575  19.2638130  50.0932655  11.2578754
  19.0936680  51.5926437  11.1399784  40.1427116  56.5453377  45.3005562
  40.1714859  57.4820786  45.1058235  40.7756348  56.4284363  46.0090561
  80.8755875   2.7883050  88.9432602  81.7148056   3.0451896  89.3252869
  80.2859879   3.5132084  89.1509171   0.0315331  47.9576302  33.3814545
  -0.1462844  48.1402779  34.3040886   0.6206795  48.6604919  33.1073723
  18.9574585  49.6083450  71.0063629  18.5728741  50.0711403  70.2619476
  19.7663593  49.2302971  70.6614075  10.9865599  31.3476658  33.3264580
  11.3824015  31.9706078  32.7169609  10.1086426  31.1953449  32.9767532
   0.2590651  44.8369827  46.1772614   0.4954022  45.7393265  46.3920937
  -0.5088081  44.9186935  45.6116409   1.0820078  53.3424721  84.7373123
   0.7559929  53.9816055  84.1037064   1.2538537  53.8547211  85.5274353
  66.7409668  30.7006493  20.1036625  66.5558090  30.4950714  21.0200062
  66.8518143  29.8473110  19.6844273  61.9644623  61.3043442  83.2965546
  62.8593140  61.0637283  83.0566101  61.8564262  62.1930885  82.9578934
  37.9812241  25.3462925  15.3848419  37.1167831  25.1111469  15.0476742
  38.5944862  24.8729782  14.8226004   7.1827326  65.9214325  28.3696270
   6.4317536  66.4933853  28.2111073   7.9101734  66.3509979  27.9195862
  62.3281364  14.0223341  64.9472198  62.9358368  14.3285151  65.6204147
  61.7825775  13.3748064  65.3936615  26.5896893  51.2636147  16.0193539
  26.2274036  50.4482422  15.6727314  26.9943600  51.0120659  16.8495350
   2.5661674  67.9401093  70.1196518   1.9042000  68.4491882  70.5874863
   3.2536571  68.5733643  69.9132996  78.9155045   4.2036209  63.5129395
  79.3061371   3.9384158  64.3455887  79.1050034   3.4783583  62.9176941
  84.5487518  46.1710548   5.6252179  85.4656219  46.4455528   5.6404252
  84.5319290  45.3635750   6.1389508  85.2054977  45.0749092  75.0403519
  85.6857605  45.2788162  74.2378540  84.8554611  44.1962280  74.8932877
  28.9477673  30.6597080  66.5033340  28.7164268  30.9834061  65.6327362
  28.1319618  30.2971478  66.8486481   2.8380678  31.0253201  35.7543259
   2.4106081  31.7317410  36.2385559   2.2710965  30.8764000  34.9976234
  50.3811760  62.1291466  10.9367428  50.6597137  62.8997040  10.4418755
  49.4421539  62.2573166  11.0710621  72.2473068  18.6018715  81.7539597
  71.4684448  19.0057297  81.3712006  72.0921249  17.6605949  81.6755447
   5.8725023  33.9128265  56.1241875   6.5005727  34.3989220  55.5898933
   5.4603333  33.3021126  55.5131416  15.6936369  62.3873672  80.3451462
  16.1260796  61.5782318  80.0721512  15.9140501  63.0193748  79.6608887
   5.2896466  25.2768574   4.1576138   4.3340797  25.2933922   4.1042271
   5.5827780  25.5949974   3.3037443  41.1474113  26.2643642   4.1295948
  41.3319359  26.4332390   5.0535345  41.3665428  25.3407497   4.0065122
  35.1944275  60.8525963  44.9530945  34.6113815  60.8921204  45.7112007
  35.3367310  61.7680473  44.7123947  30.4190807  46.0314827  28.6138840
  30.6097145  46.9225349  28.3207588  31.2389660  45.7266579  29.0026035
  79.9754868   0.1311932  71.2980347  80.6145401   0.5006171  70.6886368
  79.2753601  -0.2030771  70.7374039   2.0188932  68.4334869  28.0809307
   1.8866450  67.5740051  27.6808949   2.9003911  68.3920212  28.4517059
  63.1481209  19.6429482  80.2986298  62.6878281  20.0615997  81.0260162
  64.0433044  19.5265160  80.6169357  35.8641930  31.8077660  86.8749695
  36.7212753  32.1646423  86.6419830  35.8740082  30.9155521  86.5284195
  85.5085144  59.5900955   4.8235650  85.3160248  60.4863739   5.0989938
  86.1588440  59.6877174   4.1280227  54.3144836  67.3380737  72.1609879
  53.4669685  66.9093246  72.2798233  54.9509811  66.6239548  72.1946945
  78.7501602  14.5538530   5.6227055  78.9619904  15.4572811   5.8576012
  78.2662506  14.6274271   4.8001146   5.0822573  62.7651215  40.9540405
   5.1037498  62.0629387  41.6042023   5.5965085  63.4706764  41.3464317
  86.8470383  34.4942169  87.2749481  86.0463638  34.9068871  86.9511337
  86.9049149  33.6707497  86.7904053  44.9121323  56.6912804  66.5423889
  45.8231316  56.4622307  66.7263565  44.9676285  57.3855705  65.8857956
  15.1481180  69.8417664  26.5256195  16.0155296  69.5922699  26.2069016
  14.5412216  69.3150253  26.0055733  78.6465225  70.8448181  30.6044178
  79.5983124  70.9192505  30.5353069  78.4008713  71.5064011  31.2511044
  64.9702072  66.0732727  49.0784264  64.4982605  65.5850906  49.7530937
  64.4784698  66.8891754  48.9850082  28.4099560  37.5508690   5.9467163
  28.0699806  38.4197159   6.1606231  28.6929474  37.6221733   5.0350895
  11.5303745  64.5039597  46.6785927  11.6830997  65.2806778  47.2167435
  10.5931940  64.3310242  46.7681389  48.4991646  65.3453140  47.2710075
  48.8115768  66.2224655  47.0491333  47.6355133  65.2881546  46.8622704
  44.7414703   5.4181633  14.6358471  44.2920609   4.6112356  14.3845863
  45.5815659   5.1246166  14.9884157  41.7780190  37.7380829  53.7636185
  40.9657440  38.2444839  53.7610779  42.4230423  38.3179588  53.3587494
  12.2752075  39.8423004  64.3211975  12.4592113  40.3821373  63.5524673
  12.8190870  40.2180443  65.0134735  78.8833237  41.8814545  42.4332771
  79.4460373  42.4607353  42.9471054  78.8772659  41.0582962  42.9217529
  43.4850235   2.6259115  64.5765762  43.2420044   2.4507082  65.4856796
  44.4421158   2.6388588  64.5827332  42.7977486  40.3604622  55.2712746
  42.8925819  39.9794121  54.3983269  41.8654213  40.5649147  55.3433723
  42.0685577  53.2593079  33.8369560  41.4163818  52.6615982  33.4713783
  41.7268906  54.1327286  33.6455727   3.1935606  29.3283844  60.3359184
   2.3048048  29.5744801  60.0794373   3.2414944  29.5412350  61.2679214
   9.4657612   8.5709496  27.8958645   8.9249592   9.3583126  27.9577065
   9.4476366   8.1980953  28.7772732  48.4828300  37.5520287  86.0738831
  48.0679932  37.9378281  86.8454437  47.7558479  37.1917381  85.5660248
  61.1050034   4.9410286  15.3879700  60.9571457   5.0103202  16.3311386
  60.2705002   4.6302509  15.0369024  56.4020538  36.8183708  48.4069939
  56.4353218  37.7006149  48.0371666  56.6190147  36.2428741  47.6735344
  31.2147293  57.9628906  11.0888710  30.9100151  58.1055145  10.1927452
  31.7038651  57.1411400  11.0475979  75.4685440  33.9343987  21.2848263
  75.5484772  34.4206810  22.1054192  74.6424332  34.2361832  20.9070740
  -0.2016078   4.7204146  77.6037598   0.5155649   4.8202934  76.9777222
   0.2314576   4.5274568  78.4352951  42.3423080  61.1611366  75.7151031
  42.0527229  61.9552193  76.1643295  42.3626442  60.4925194  76.3997726
   4.7852559  67.2534714  61.3107414   5.0878377  67.3252716  62.2160187
   5.3800716  67.8154221  60.8141098  81.8636475  23.7838612  76.4960175
  81.9522400  24.5190849  77.1025085  80.9271622  23.5858021  76.4949036
  50.2958260  39.7202759  70.3403320  50.5957222  40.3507919  70.9951172
  50.8768196  39.8573799  69.5920792  86.4314194  45.7391815  14.1474829
  86.3813400  44.9228134  13.6502209  86.3705521  46.4273224  13.4849205
  54.2335091  37.6404610  86.9949646  53.6096497  36.9266739  87.1273956
  53.8300247  38.3941727  87.4254913  41.1951828  44.4186020  83.7070160
  40.3748550  43.9262161  83.6779251  41.8052406  43.8987503  83.1837387
  49.9833412  70.2256165   4.4980927  50.7101517  69.7232056   4.1299014
  49.1991920  69.8123093   4.1368213  56.0003052   5.5903978  79.1393204
  55.3170624   6.0448494  79.6321487  56.7197456   6.2199264  79.0910263
  69.6570435  27.7473545  34.3605957  69.5600967  27.1093826  35.0675812
  70.6032562  27.8385048  34.2483215  21.3492298  26.1924820  78.9268951
  22.1171150  25.7185345  79.2462082  20.6954861  25.5111809  78.7697983
  42.1159477  53.9701195  62.9490356  42.3545380  53.2679405  63.5542221
  41.6100273  53.5338745  62.2634964   7.0866199  20.5224190  76.4251175
   7.9651513  20.1547642  76.3289795   7.0839996  21.2894688  75.8525314
  60.8540649   2.2588618   4.6867838  61.4059677   1.4816279   4.7736411
  60.1457253   1.9857007   4.1038013  62.0877075   2.0688202  73.3223038
  62.9840317   2.3281446  73.5358124  62.0891037   1.1148874  73.4013062
  37.2391777  36.9666138  36.1554756  36.8939972  36.3630600  36.8133545
  36.4713058  37.4452477  35.8432045   0.8811837  26.4700737  24.3777103
   1.5891292  26.1219444  24.9197903   0.6920874  27.3297329  24.7538185
   4.8897662   9.2998972  68.5789795   4.6248074   8.3818951  68.6364288
   4.8855953   9.4921560  67.6412964  70.0725021  67.2100372  25.0048523
  69.6815872  66.6230774  25.6520729  70.7391281  66.6778107  24.5705948
  42.1509132  43.5392494  26.4268551  41.3874512  43.3241768  26.9626732
  42.8111000  43.8296089  27.0562019  65.6324692  40.8997650  10.2506828
  64.7141113  41.0130043  10.4956675  65.8112106  39.9735222  10.4130411
  80.3393631  28.2681999  83.3744431  79.5903397  28.5845509  82.8693619
  80.2730179  28.7251320  84.2129211  59.0620155  56.7065315  28.1053925
  59.7343292  56.0340233  28.2147293  58.2421837  56.2633476  28.3237839
   4.2260504  42.2532806   4.0661573   4.3292890  42.3101540   5.0160728
   4.9658217  41.7194290   3.7763724  63.5648842  61.4426994  34.0543404
  62.6503448  61.1702843  33.9792557  63.9737663  61.1345215  33.2455902
   7.3646121  64.7527466  21.1348553   6.5596433  65.2706604  21.1389008
   8.0161114  65.3194427  21.5479317  62.5376625  44.7476921  30.0955830
  62.2186966  45.1337585  29.2798347  61.7593765  44.3633499  30.4990482
  40.4262505  48.9768410  51.6836128  41.0008621  49.3694000  52.3408394
  41.0134201  48.7290649  50.9694176  13.4407568  47.4938202  81.2173615
  12.7060251  47.1387863  80.7170105  14.0158186  46.7428055  81.3640213
   7.6177850  50.4282951  63.0206146   7.4119978  50.7600822  62.1466560
   7.0150609  49.6954460  63.1466446  37.2902069  17.4714584   8.8776932
  38.2353859  17.5815048   8.7739410  36.9467392  17.4961548   7.9845810
  50.1266594  20.0194969   7.9440103  50.5738487  19.6873283   8.7224169
  49.1960793  19.9683552   8.1622715  56.4569054  34.2218361  53.0617599
  56.4957047  34.3101501  52.1094322  55.7002716  33.6571045  53.2192955
  41.4257507  49.6250038  27.5163708  41.5447731  49.1589012  28.3439045
  40.7743645  49.1083565  27.0420208  24.5242882  52.0961761  18.1722260
  24.3230686  51.1610603  18.1362209  25.2175655  52.1669006  18.8284264
  27.6023483  56.5949173  29.2293262  27.9268150  57.1442032  29.9429340
  26.7157917  56.3531380  29.4972668  81.5357056  52.0592918  34.7557449
  80.7797089  52.1178513  34.1715622  81.5355606  52.8898125  35.2316322
  44.2894478  17.8964462  86.2622452  44.2980652  17.6518250  87.1876221
  45.0779457  17.4921265  85.9002762  68.3730545  24.3238678  16.8143768
  68.0624084  25.2125816  16.6414204  68.5420074  24.3082905  17.7564201
  37.2430725  50.7633820  60.0933914  36.4611702  51.0123520  59.6005707
  37.0729561  51.0707703  60.9837875  59.0709763   8.4147949  52.9228516
  59.5475426   8.1621552  52.1320992  58.1618004   8.1771345  52.7407761
  59.8797035  51.7874908  62.7092972  60.0270996  52.5505409  63.2680969
  59.6399879  51.0881081  63.3172722  63.6007385   7.0491376  34.4124107
  64.0289230   6.2624917  34.0746536  63.1840096   7.4428625  33.6458893
  42.4311142  55.2376404  21.8225155  41.8067932  54.7286568  21.3054199
  42.7075424  54.6417084  22.5187092  11.6742697  56.8462753  61.0673561
  12.2847300  56.5561676  60.3895607  11.1148205  57.4865379  60.6276855
  25.1029663  70.2890778  67.8694687  24.8215332  69.4765701  68.2900238
  25.5686436  70.0031662  67.0835800  82.1155472  36.3051529   5.5534415
  81.7576828  35.4863777   5.8966160  81.6361694  36.4530029   4.7382302
  34.8740158  65.7524109   8.0112753  35.6953926  66.1500549   7.7223969
  35.0832214  64.8250961   8.1232882  56.8518677  56.8133011  65.5847778
  56.4363403  56.2666206  64.9179153  57.7744713  56.5592995  65.5619049
  58.2007866  41.0021248  46.8595314  58.6833725  40.3700256  46.3268127
  57.9604454  41.6974335  46.2471466  57.8148613  28.7135811  62.3936424
  58.3640823  28.3167953  63.0697708  57.1285172  28.0662079  62.2321739
  34.1376648  53.8286972  14.4120541  33.5054665  53.9596901  15.1187334
  34.5658836  54.6790352  14.3131008  20.3407936  57.8207130  11.6833439
  19.6232586  58.2707405  12.1292696  20.1328411  57.9020233  10.7525501
  71.9228516  59.4923325  22.5201969  72.6022263  60.1485214  22.6753960
  71.9456787  58.9352837  23.2982769  79.5469055  62.5206757  63.5942917
  78.9135437  63.2246323  63.7340546  79.7583389  62.5703163  62.6620560
  22.2437630  57.8554916   8.7461367  22.7089920  57.5842514   7.9547935
  21.4083118  57.3902054   8.7041655  78.3738403  70.5574875  61.4846153
  78.6490021  70.9829178  60.6725006  79.1900406  70.2651215  61.8902969
   5.3759742  38.1944466  33.7736855   6.2006850  38.6252213  33.5489273
   5.5330138  37.2675705  33.5934753  73.1205368   9.5581865  40.9721832
  73.0649490   8.7720518  41.5154457  72.4254074   9.4503708  40.3230324
  54.7925949   8.3422680  31.9853344  54.4646072   7.8112569  31.2596054
  54.0448036   8.8801003  32.2456703  63.2595634  70.8847961  45.8442154
  63.4756889  71.8161011  45.8910484  62.5379372  70.8376312  45.2171097
  83.3912430  33.6773376  85.1571808  82.9725037  34.1674690  85.8647614
  82.7069092  33.5810890  84.4948654  56.2363739  53.9704933  31.1892605
  57.1102180  53.6931343  31.4643917  56.3013725  54.9220924  31.1088467
   0.7548401  12.3216286   2.8655894  -0.1723145  12.4622021   3.0575669
   0.9030441  12.7900810   2.0441151  52.4259644  71.2339096  50.9263840
  52.3457413  70.4813309  50.3403664  52.0972023  71.9725647  50.4140053
  22.6007767  31.9768181  20.7723122  22.1063805  31.4715633  21.4176960
  23.3582382  31.4284172  20.5680065  35.6793098   4.7960906  13.7969761
  35.8855438   5.5344472  13.2238026  36.1246376   4.9996762  14.6194534
  41.7272377  21.9308186  83.0740356  41.4744835  21.7497063  83.9793243
  42.6145744  22.2838402  83.1391602  76.3453674   5.2257180   6.4035301
  75.7153625   5.3089538   7.1193495  76.1116333   4.4032855   5.9731741
  84.2301636  57.1753426  48.1853905  85.0185699  57.1061630  48.7237701
  84.2868195  56.4348869  47.5814438  19.1391697  58.4154968  16.0391922
  19.3627872  58.5332565  15.1159582  19.7109928  57.7074509  16.3357067
  77.7687683  29.6261902  13.0543671  77.7817764  30.5799904  13.1339064
  76.9992523  29.4412117  12.5159836  74.7421036  28.8745308  88.5193253
  74.4991302  28.2699566  89.2205276  74.4648972  28.4336510  87.7161942
  32.1306000  56.8150253  69.2764969  33.0626984  56.7456932  69.0700531
  31.8623466  57.6509705  68.8950958  79.6144791  48.7685852  27.6178131
  79.7930374  48.9294624  26.6912785  80.2673492  49.2925034  28.0820408
  48.0141830  32.6607628  10.4133425  48.5346413  32.9131432   9.6506758
  48.1686058  31.7208862  10.5083036  86.8034058   5.7556944   9.0412321
  85.8550873   5.6269741   9.0599012  87.1647263   4.9160118   9.3251591
  63.3751068  63.5047722   1.9493296  63.9907722  62.9968185   2.4776990
  62.8685417  62.8468285   1.4731665  47.3004150  53.9102478  11.9289751
  47.5480194  54.7823792  11.6218767  48.1296272  53.4961433  12.1680508
  75.5502472  22.6946735  33.1780891  74.8446198  22.5868721  33.8158226
  75.8672333  21.8055992  33.0190430  83.1257095  13.6194019  61.6709061
  82.7227020  12.7558737  61.7610855  82.4743729  14.2257071  62.0235825
  17.4695721  45.6353416  63.5468521  17.1148815  46.1750336  64.2533646
  16.8266296  44.9351883  63.4344139  26.4670143  53.0953865  44.9312935
  27.0633774  53.8272705  45.0891762  26.1124535  52.8847084  45.7950821
  64.6936798  47.1299286  82.7130203  63.9197693  47.4804039  83.1539993
  64.3419952  46.5676308  82.0228271  55.8010178  64.9868927  72.4153519
  55.5727425  64.4915924  73.2019882  56.6131401  64.5851593  72.1066360
  25.4598198  43.5142365  31.0870152  25.2457829  43.2960320  31.9941025
  25.1800919  44.4241905  30.9871616  54.3146248  29.7366104  50.6922684
  53.5448036  29.9272156  51.2282524  54.0206146  29.0593319  50.0831032
  55.9836769  59.4153633  64.6742401  56.0035095  58.4587250  64.7003632
  56.9009361  59.6713982  64.5777435  44.2723999  25.3213615  73.0483017
  44.5969658  24.8557224  73.8190613  44.8879356  26.0445576  72.9285583
  79.4768677  35.5527763  41.6333084  80.2660599  36.0901260  41.7015419
  79.6556854  34.7931175  42.1875420  14.9015074  35.5563240  12.7635336
  14.3573694  36.3375549  12.6644030  15.1652279  35.3332710  11.8708239
  12.8787022  48.3123398  58.6278419  12.7343340  48.9016190  59.3682060
  13.0619240  47.4631653  59.0297966  50.0065575  38.6995735  43.3418159
  50.3644371  38.0945778  42.6920929  50.0238838  39.5532913  42.9092674
  78.7063217  47.6904602  16.7337666  78.7664032  46.7842598  16.4314098
  79.4990082  47.8224983  17.2538013  18.2730732  63.5423203  13.9830675
  19.0226212  63.1411133  14.4228878  17.7763691  62.8025322  13.6334543
  46.2909164  13.2434502  38.4430847  46.6685143  12.7348928  37.7254333
  46.0731316  12.5919247  39.1096535  10.9257812  56.2311630   3.8110807
  11.1004066  55.8723373   2.9410341  11.7793226  56.2350197   4.2443061
  44.2280731  43.0629082  75.6158447  44.0381584  42.2119064  75.2209244
  45.1511726  43.2188759  75.4163589  42.0456085  57.0744019  18.4521408
  41.5168724  57.8480721  18.2569313  42.9499664  57.3848228  18.4073486
  42.9434319  14.9965801  70.0924454  43.6506233  15.4932728  69.6808472
  42.8719711  15.3660774  70.9725571  14.9096403  44.2006989  38.9476509
  14.7912006  45.0781975  39.3112450  14.3579731  43.6392746  39.4923477
   8.3838491  36.9869652  63.9876404   8.6898689  37.7824554  64.4232788
   7.4589772  36.9239578  64.2261276  14.3690529   6.2986670  74.8040543
  15.1213884   6.8603640  74.9903870  13.6182337   6.8922701  74.8157654
  85.9679184  59.4869995  59.8265343  86.8771362  59.4796524  59.5273743
  85.6501007  60.3624115  59.6054535  25.6628799  54.2242622   8.7025995
  26.0730915  55.0634155   8.9118328  25.1076527  54.0339394   9.4587297
  40.4232559  65.2808533   3.7700374  40.3425179  64.3724518   4.0607615
  39.5328178  65.6284561   3.8202841  31.7632732  49.6254692  12.7900715
  32.0974159  49.1587982  13.5560980  31.6412849  48.9441261  12.1289167
  86.1841354  71.2914047  15.6505013  85.9269943  70.6374817  15.0005045
  85.6591263  71.0808868  16.4226933  11.8666372  59.4783669   9.2498436
  11.9047518  58.5931244   9.6119461  11.2981052  59.9589806   9.8515205
  26.1259441  57.1210136  18.6285248  25.8846607  57.3292694  19.5310993
  25.3005123  56.8759193  18.2104073   4.2283850  32.7805176  33.2361908
   3.5583456  32.0993919  33.1783638   5.0287781  32.3099785  33.4689903
  36.6866226  47.0902481  84.7069244  36.2490311  47.9233131  84.8822861
  37.0315628  47.1831703  83.8188858  43.9948044  20.3707447   9.4585476
  44.4264336  20.2339439   8.6152124  43.1703186  20.8041782   9.2381086
  28.6927605  56.9281044  17.6647186  29.2748814  57.4957008  18.1698933
  27.8603115  56.9582558  18.1362610  24.7583408  56.3516159  75.4197159
  23.8454342  56.6308708  75.3500977  25.1098785  56.4595184  74.5359726
  24.6642666  30.9922409  13.8899965  24.1954136  30.4559078  13.2506571
  25.5130577  30.5607719  13.9880886  83.3986282  13.5664520  19.8416405
  83.3665695  13.3980999  20.7833748  84.0935059  12.9924879  19.5192432
  62.3147392  63.9710541  82.6099167  61.5462685  64.5276718  82.4839783
  62.9248428  64.5143509  83.1087494  65.1633530   3.5393434  37.9030762
  65.9199677   4.1187315  37.9929237  65.5375748   2.6586478  37.8792839
   4.3881841   3.0626504  63.9874191   5.0915437   3.2260313  63.3590698
   4.7601600   2.4329226  64.6049194  49.7581406  23.5519104  25.6102581
  49.2716904  22.8879719  26.0989113  49.7366943  23.2456532  24.7036266
   1.9884608  56.0172386   7.8706183   2.5520756  55.4851875   8.4323044
   2.2942517  56.9142303   8.0052767  44.5719147  53.4155998  27.0032406
  43.7477875  53.8957214  27.0840111  45.1899872  53.9081650  27.5432396
  54.9659882  62.6951981  67.8002548  55.4850655  63.3718338  67.3655701
  54.1659660  63.1448669  68.0722885  31.6072407  46.2833824  43.1834755
  32.0435638  45.7706985  43.8639221  31.9679451  45.9481392  42.3626633
  44.1135178  61.5476036  59.5032768  43.9279823  60.7356720  59.9750557
  44.0949364  61.2974586  58.5795250  36.7516479  50.0065460  53.4440727
  37.3675003  50.5502357  52.9527855  36.6820526  50.4347191  54.2973328
   2.8770444  44.3960114  11.4546232   3.0167091  43.9840126  12.3072548
   3.7514496  44.4510841  11.0691166  66.9828186  51.3232193   2.3780129
  67.8742065  51.5165443   2.6683280  66.6704178  50.6575356   2.9907982
  63.5328712   4.5649405  13.9826803  62.8823586   4.5132966  14.6829643
  63.2316360   5.2849770  13.4285717  83.6813583  30.3213081  77.1125336
  84.4514236  30.8670101  76.9530411  83.8910522  29.8390312  77.9123306
  63.0033798  30.6195183  18.2700062  62.1108131  30.2742901  18.2506657
  62.9564629  31.4330444  17.7678032   4.4699244  44.1236992  24.0632610
   4.5996494  44.9414101  23.5828972   3.7080569  43.7199898  23.6475582
  36.6639595  57.3949509  76.2502518  37.4862404  57.8379250  76.0408173
  36.0280800  58.1037674  76.3475494  39.6006317  13.5151405  13.6968136
  39.9135551  14.4149370  13.6036587  38.7613144  13.5990839  14.1492844
  12.0159416  54.3846397  64.7735977  12.5544987  54.5319939  63.9961205
  11.2015095  54.0136757  64.4340134  42.5110321  28.2757664  67.3781357
  43.3783073  28.2568893  67.7827454  42.2118912  27.3670807  67.4103241
  31.7892437  61.5763893  67.5861435  31.1250591  62.2568474  67.4762726
  32.6152115  62.0559464  67.6496735  50.0830879  30.0471859  66.0211868
  50.9739456  29.6988773  66.0570450  50.1885414  30.9889812  66.1558380
   5.5405989  54.8742294  18.6571541   5.1882062  55.0149460  19.5359325
   5.5573683  55.7464943  18.2633209  61.8037300  30.5081692  57.7202492
  62.2326965  30.2216282  56.9139519  61.0340843  29.9440765  57.7955856
  21.3984890  23.1282196  22.5037403  21.5336132  22.1906052  22.3664379
  21.9520359  23.5488567  21.8458023   0.5578070  29.3180676  60.2384338
   0.1783729  29.4053822  59.3639984   0.2429525  28.4704838  60.5526009
  81.9115524  49.8571854  63.9129028  81.6975784  49.6101875  63.0132141
  82.4264450  49.1226540  64.2469254  85.2937851  12.1773863  66.0688248
  84.6172791  11.8622665  65.4694366  85.1094513  11.7298641  66.8946457
  72.1537628  58.2360382  60.3600464  72.3396149  58.2659035  59.4215355
  71.8008270  59.1025696  60.5620117  70.7386475  67.4114151  20.7306538
  71.6277466  67.0571671  20.7149353  70.2633286  66.8388977  21.3327599
  60.2222748  22.9017925  22.3841000  60.6989326  23.0951271  23.1913490
  59.3252220  23.1843491  22.5621109  68.9221802  68.7743988  76.8596191
  69.3222046  68.0996552  76.3110428  69.2062607  68.5601349  77.7482300
  49.5594597  61.8779488  51.6579475  49.2112122  62.3074188  52.4393005
  49.6440468  62.5821571  51.0151672   1.2146444   2.2557178  42.7648773
   1.8243595   1.5399736  42.5854607   1.4631011   2.5697427  43.6342964
  16.5519753  19.5230770  84.9890518  16.1766605  19.0090218  84.2741241
  17.3682632  19.0723572  85.2052917  76.4345779   2.2752576  12.6032810
  76.9696960   1.6411648  13.0805693  77.0531311   2.7262912  12.0286551
  80.5058517  25.1881752  22.4446030  79.5852814  24.9370155  22.3691578
  80.5821381  25.5570621  23.3245659  20.7829342  65.9972763  32.9260330
  20.1007004  66.5179443  32.5021324  21.2174854  66.6096497  33.5196609
  36.2913895  29.2053299  85.8931503  36.2446327  28.4323483  85.3305283
  37.2072525  29.4798031  85.8474350  56.0790138  46.3414955  63.2008629
  55.1285477  46.3947372  63.3008995  56.2333183  45.4685631  62.8397331
  30.7916603  56.4920387  87.4771881  30.4455433  57.1791878  86.9077530
  31.7304211  56.4768219  87.2908325  76.0817566  37.3369179  64.8331223
  76.8957138  37.1967621  64.3493195  76.0680466  36.6375542  65.4865265
  19.0751686  44.7927551  31.2294521  18.1791573  44.8895950  31.5519695
  18.9766617  44.6479797  30.2884064  16.8983765  57.2299156  17.8250885
  17.5173531  57.5328217  17.1607475  16.8199959  56.2889328  17.6681137
  80.7234573  15.2386332  41.4283066  80.4804688  16.0983505  41.0846901
  81.1537170  15.4269323  42.2623672  43.4843941   2.4668899  61.5810127
  43.4017601   3.3658423  61.2627563  43.3774147   2.5378425  62.5295677
  85.4899826  21.4635353   1.6090281  85.3174667  21.4768028   0.6675967
  85.1061401  20.6404133   1.9112920  58.1401405   8.5163097  75.4898834
  59.0749893   8.6089573  75.3062897  57.9372597   9.2468195  76.0742035
  86.1216431  56.5273018  19.3387508  86.2767639  55.7142410  19.8194828
  85.5383148  56.2748184  18.6230602  85.7726440  42.4328995   3.3690469
  86.1400833  41.5803986   3.6024103  85.5179749  42.8211861   4.2060709
  48.8505249  26.2026787  87.4698410  49.7831345  26.4145451  87.5095825
  48.7882423  25.5200691  86.8017120  62.7876015  21.0029697  23.6355667
  63.2879181  21.6498642  23.1381302  62.5289726  21.4627666  24.4342709
   6.3342433  59.7612343  77.7471619   6.5972524  59.8351593  78.6645432
   7.1176910  60.0029221  77.2531662  82.3614273  21.1035805  64.3809128
  82.6060715  20.4992771  65.0817719  82.3073883  20.5541782  63.5989532
  32.6960564   9.7498636   2.7020874  32.1207886  10.2773743   2.1479855
  33.5797882   9.9679031   2.4059243  68.2862091  71.4497375  76.1446686
  68.6459808  70.5944824  76.3798904  68.7392731  72.0665131  76.7195969
  79.5151596  49.8452339  39.8554726  79.9409866  50.6664162  40.1015739
  79.7997360  49.2189980  40.5211143  29.0682831  68.6177216  21.5257454
  28.3236713  68.7989502  22.0992813  28.6742020  68.4282227  20.6742630
  73.0664749   8.2732134  44.4907150  73.9396667   7.9446287  44.7047119
  73.0555801   9.1662560  44.8350830  46.9886894  27.3462658  75.7123489
  46.5944748  28.2102814  75.5927505  46.5683899  26.9980049  76.4986649
  30.5455856  36.7257538   1.3557734  30.1026936  35.9015579   1.1538402
  30.5594063  37.2001534   0.5245171   7.1724672  65.7240601  44.7937622
   8.0300531  66.1431122  44.8656540   7.1373820  65.1213379  45.5365524
  50.0152512  26.5547657  70.1851883  50.4238091  25.7233753  69.9441299
  50.0268288  26.5587025  71.1423111   8.3892527   5.1622238  73.3690033
   8.7930822   5.9402242  72.9844666   8.9407034   4.9540782  74.1231995
  82.8667984  38.4433899  68.3801346  82.9412994  39.0370331  67.6329575
  83.7602158  38.3665276  68.7149811  25.9296474   7.9558206  66.8041534
  26.2931309   8.3786249  66.0261078  25.7669621   7.0526557  66.5320129
  63.0568581  54.4718933  29.3696957  63.1367493  53.7838440  30.0303307
  63.8895111  54.4489822  28.8981094  66.7190857  32.6736755  37.0701752
  67.5397034  32.3946495  37.4763336  66.9431381  32.8154640  36.1504326
  82.9221191  27.9797955  12.0559225  83.2998734  27.8871689  12.9305382
  82.1012344  28.4510918  12.1982565  15.4493732  55.7006531  83.0779724
  16.3169250  56.0530052  83.2765503  15.4593077  55.5590210  82.1313629
  58.0646019   1.9974350  50.6529961  58.2862091   1.3615047  49.9727631
  58.4947853   1.6651064  51.4408607   5.3059111  71.4717102  74.4591370
   6.2040792  71.2643890  74.2011795   4.9497633  70.6413574  74.7752151
  44.6167870   3.5964036  35.7150383  44.2992210   2.7021403  35.5898323
  45.2008553   3.5394824  36.4712486  20.9344769   2.9144876   5.2426071
  20.9205341   2.5699449   4.3496747  20.4909286   3.7603972   5.1798844
  77.6589813  51.3466797   7.3127480  76.9410400  51.0442505   7.8689141
  77.9476929  50.5620956   6.8465900  86.0071869  42.4097404  64.1634598
  85.3460159  42.7653656  63.5696487  85.5920105  42.4327850  65.0256195
  70.6650848   0.4354045  14.9217548  71.3925247   1.0298657  14.7382183
  70.3771210   0.1358831  14.0594349   3.6308699  33.5968933  72.4408417
   2.9842949  33.9843712  73.0307846   4.3475385  34.2311096  72.4211349
  84.2737579   9.7246561  74.7350769  83.4719772  10.0712872  75.1265182
  84.3728333   8.8549728  75.1224594  45.7970657  21.1244869  66.1218414
  44.8514252  21.1218319  65.9735413  46.0175591  22.0477333  66.2452545
  55.4220161  48.4295197  56.9689713  56.2762604  48.0285263  57.1293030
  55.4980431  49.3101196  57.3363953   0.0088103  20.3026905  49.3089218
   0.4328373  20.0220585  50.1198959   0.6439408  20.0970116  48.6229630
  54.5555992  19.3378887  13.0184193  53.6358147  19.5913239  13.0958357
  55.0417900  20.1417332  13.2019539  83.0320892  63.9981956  17.1648159
  83.3517151  64.7553024  17.6555920  82.6412277  63.4300728  17.8286648
  56.5447006  62.3098793  86.3029251  56.5093842  61.8341675  85.4730606
  55.6733017  62.1951370  86.6820450  53.9941139  21.4807205  47.4596519
  54.7924995  21.4010220  46.9376717  54.1356583  20.8965034  48.2045593
  46.4310265   4.7340651  55.4597130  46.1863327   4.0543213  54.8317757
  46.5560226   5.5190277  54.9263840   1.7139753   9.9692717   3.9398043
   1.6164035  10.2752190   4.8415294   1.3908894  10.6941566   3.4046509
  39.1926498  35.6682587  63.1972275  39.7263451  35.0581932  63.7063675
  38.3494263  35.6842079  63.6499443  18.1465664   2.3437057   5.0137367
  17.7037086   3.0898724   5.4178963  18.5134411   1.8551030   5.7505550
  41.2134247  65.8541718  26.7602291  40.6814766  65.3006363  26.1885147
  40.6829147  66.6395187  26.8944683  47.0850716   3.9994328  86.7125168
  47.7358589   3.7666421  87.3747253  47.4544868   4.7649679  86.2723770
  40.6252823  43.7530594  58.8077087  39.8843422  43.5317268  59.3718491
  40.7942085  44.6781845  58.9861450  21.1804466   6.1597786  15.7756834
  21.0181789   6.6549730  16.5786037  22.0185547   5.7234206  15.9286489
  18.6374855  70.1502838  58.0204201  18.8565407  69.6349335  58.7967262
  17.7428188  69.8880920  57.8034935  78.9002075  33.4101906   8.2605495
  77.9871445  33.3542709   8.5423450  79.2053375  32.5029411   8.2556181
  49.1576195  11.4296188  63.0506821  48.6159210  11.7853642  62.3462372
  48.5841026  11.4294157  63.8170433  76.4932861  63.0354729  44.5045013
  76.1544495  63.4441261  43.7079926  77.4301910  63.2312622  44.4942207
  58.3934059  35.1520348  67.6971054  57.7705383  34.4437180  67.5341415
  57.8594742  35.9464645  67.6916809  77.1745300   6.4355288  68.5108109
  77.6906357   7.2218657  68.3332062  77.3642883   6.2259889  69.4253159
  83.3335342  46.5024681   2.9022596  83.4367447  47.4278870   2.6804910
  83.7390366  46.4162636   3.7650273  79.7532578  67.2188721  39.9368057
  79.7615433  66.2621841  39.9668159  79.5233078  67.4844513  40.8272133
  12.1370573  43.6825523  37.8379326  12.4176884  42.7903595  38.0415726
  11.7683706  43.6223984  36.9566383  85.2571793  22.0212746   4.3243089
  85.9046402  21.8335762   3.6447570  84.4903183  22.3343163   3.8445613
  23.4693871  59.6597786  37.6905212  23.1622238  60.0813599  36.8879280
  23.1015244  58.7768784  37.6531906  41.2933922  62.1306343  11.3243580
  41.3225365  63.0679741  11.5161295  41.3506088  62.0794716  10.3702402
   5.5972447   4.2851439  70.1425629   5.9000888   4.0962324  71.0307236
   6.3364625   4.7288713  69.7267532  74.1718216  23.6881809  11.4467096
  73.9136276  24.2655697  12.1651726  75.1007996  23.5157623  11.6000223
   0.4297631  64.7579803  77.5647964  -0.2234665  64.6312485  78.2528839
   0.1043638  64.2414246  76.8275604  19.0668659   5.6491880  78.8472977
  18.2350521   5.4715385  78.4082565  18.8510380   5.6455874  79.7798462
  80.5605850  48.4642982  13.4522152  80.2168121  47.9204025  12.7435322
  79.8080826  48.9771042  13.7471819  43.0841484   0.1549344  68.6966476
  43.0202675  -0.2702606  67.8414536  43.7724419   0.8110482  68.5871048
  83.1932373  33.3885651  46.4481659  82.4509811  33.0282173  45.9629478
  82.8324661  34.1448402  46.9109001  29.1227665  44.8734360  49.5138054
  29.2260780  44.1496773  50.1316490  28.1918411  44.8672523  49.2911568
  31.9476395  70.0534058  23.8101273  31.0878620  70.1048889  24.2276993
  31.7564507  70.0042114  22.8735065  25.1745052  34.6508522  83.8188934
  24.3557892  34.6771507  84.3141098  25.4412613  33.7319641  83.8457565
  82.7722473  39.1247559  36.7190590  82.3426743  38.7872124  37.5050354
  82.0972748  39.0852470  36.0414963  66.5596848   4.0511060  18.1093998
  67.2316895   3.4351826  17.8173695  66.0068817   4.1852031  17.3395557
  71.9797974  64.2299881  30.1961861  72.7377014  64.7542953  29.9374886
  71.5732803  64.7296982  30.9041862  13.5197906  55.3883171  18.0778904
  14.1627159  54.7646179  18.4153500  13.2414970  55.0162315  17.2410297
  33.4376373   0.3875456  17.2162495  33.2005157  -0.5014733  17.4801674
  34.0330276   0.6901756  17.9019260  78.8854904  60.7440300   1.7068509
  79.0029526  60.4460907   0.8048157  79.7568741  61.0313110   1.9795923
  29.3291912  47.0003395  11.2735109  30.0212250  46.3968124  11.5438356
  29.7728596  47.6388969  10.7152691  36.2109985  28.5069084  83.0501404
  35.3170853  28.4577312  83.3888702  36.2128334  29.2837715  82.4909363
  55.5727615  46.1874008  67.9707947  54.7622910  46.6629105  68.1531830
  55.3282318  45.2641411  68.0342636  85.7705994  32.5960274  53.6841087
  86.4616318  32.0091705  53.9911957  86.0432739  33.4637756  53.9822540
   3.2855332  55.1473351  58.2794991   2.5556340  55.4250832  58.8329735
   3.9365399  55.8425446  58.3749237  69.6023331  44.0385742  25.3164291
  69.2159500  43.5097542  24.6183662  68.8582230  44.2994499  25.8590889
  69.5361099  69.2986526  66.8192902  69.4384384  68.7997055  67.6303101
  68.7777786  69.8825531  66.8044968  49.4784203   5.2299886  62.6023712
  48.6472931   5.0720882  62.1545677  49.6312599   4.4338856  63.1113815
  43.9966164  10.3049431  73.1278458  43.9203606   9.6269255  73.7991943
  44.6402092   9.9586391  72.5097046  38.7442322  65.0163879  80.0000076
  39.2933960  64.3046799  79.6711884  38.3741646  65.4165192  79.2131348
  81.9451218  51.5237656  45.1651001  81.8565216  51.3012314  44.2383537
  81.1164474  51.9467010  45.3901520  28.4253006  62.0314026  84.3468246
  28.5361481  62.5407524  83.5440140  28.1449280  61.1672401  84.0454025
  61.7513504  33.6982574  29.0433884  61.1292839  34.3595161  29.3467064
  62.0307541  33.2485962  29.8408661   1.4706507  39.4095345  16.0286179
   0.6782999  39.2625427  16.5451508   1.5424705  40.3619804  15.9659834
  59.3325615  45.1387520  24.0448761  58.4671440  45.4154854  23.7437000
  59.2621307  44.1884384  24.1352768  21.6648712  54.9849548  33.4259987
  21.8864994  54.6086388  34.2777596  22.3773899  55.5970383  33.2418671
  66.8811188   6.2495484  80.9675140  67.2308044   5.9715691  81.8140793
  66.0433350   5.7926445  80.8927307   2.1219475   6.7283015  28.3817177
   2.1863329   6.9891496  27.4629974   2.9497027   7.0119286  28.7698002
  19.0276127  55.2217445  58.3075943  18.7436924  55.1837425  59.2209282
  18.2420311  55.4750786  57.8229103  57.2690773  48.1898727  60.3317566
  58.0144348  48.1947861  60.9322968  57.5002518  47.5396957  59.6683922
  13.3725815  54.7584229  80.0340958  12.8927135  54.7895737  79.2064514
  14.1307631  54.2036858  79.8506241  72.5404510  64.1163025  42.9262047
  71.8718872  63.9977913  42.2515182  72.4884262  63.3215637  43.4571609
  36.1310005  19.7404480  76.4306488  36.0160980  20.4500389  77.0627136
  36.2834167  20.1848831  75.5966949  60.5237999  32.5701485  26.7829475
  59.9822922  33.3070297  26.5000877  60.8698730  32.8398933  27.6336536
  67.1791077  25.1753082   9.6313820  66.2889023  24.8744240   9.8136959
  67.6230164  24.4067307   9.2729607  30.8982391  56.5321808  73.7995453
  31.8203697  56.2853050  73.7291183  30.7651062  57.1648903  73.0937195
   7.5723166  36.1493111  58.9440079   7.7842584  36.6383171  59.7391090
   6.6953912  35.8005180  59.1039352  83.8483200   3.1373632  33.2980461
  83.6623535   2.2526424  32.9835358  84.7755127   3.2714193  33.1016388
  19.0006657  46.8800240  41.6907158  19.4353714  46.7597122  40.8464508
  19.7171173  46.9393883  42.3227005  73.4906387  33.5632896  75.8424683
  72.9969406  34.2787209  75.4416580  73.5561523  33.8055420  76.7661896
  16.8479805  60.7927628  76.8151398  16.8453732  61.5333099  76.2086639
  15.9232817  60.5732994  76.9291534  32.6008720  57.2914009   4.2911849
  32.9080734  57.4418221   3.3971870  33.0668831  56.5051117   4.5754666
  45.2135086  58.1865997  33.3472214  45.1692734  57.2365837  33.2388306
  45.9495163  58.3256531  33.9431953  71.5576019  56.9992638  41.4479370
  71.6468506  56.1249275  41.0687180  71.3903122  57.5697670  40.6977577
  34.5897942  47.5532684  21.1386356  35.0736656  48.3528175  20.9316978
  34.7857742  47.3865547  22.0606060  46.1200829  66.8744049  60.6665688
  46.9893379  67.0704651  60.3170166  45.9129562  66.0063324  60.3204727
   1.9601674  39.1824150  37.2441902   1.3223706  38.9805069  36.5595894
   1.6850487  38.6518288  37.9918671  32.5507011  55.5168419  45.7828445
  33.4429626  55.7308731  46.0554047  32.1793633  55.0446777  46.5280952
  33.0424461  45.6127014   8.1715879  33.7054977  45.0754089   8.6050711
  33.5212173  46.0754280   7.4839158  85.4835663  60.7662430  30.7678146
  85.6096115  60.9159622  29.8308353  86.0766220  61.3867798  31.1914272
  70.9059830   8.3447685  55.2843323  71.3960419   7.5609984  55.5328903
  69.9873123   8.0911064  55.3733597  45.8533058  32.2908020  33.2880669
  44.9393654  32.0495796  33.4389191  46.2257042  32.3789558  34.1654358
   8.0701618  67.7977753  83.4078369   7.8974280  68.6855164  83.7213821
   7.8383183  67.2338104  84.1456909  26.8974648  52.9382515  69.3827744
  26.4994831  52.1697235  69.7916870  26.2692299  53.2047653  68.7115631
   3.9060872  45.5386925  17.7807598   3.2520115  46.0779610  17.3362293
   3.4089618  45.0533829  18.4392242  52.6020775  57.6038513  73.7992783
  52.7381592  56.6691971  73.6439285  53.2032890  58.0373497  73.1935959
  21.5796280  61.4281158  52.9074440  22.4350967  61.7033958  52.5778580
  21.6139755  61.6123848  53.8461113  83.1832657  22.6653290   2.7194345
  83.0542221  23.0311718   1.8443700  82.3588028  22.8365459   3.1745954
  33.3328133  59.4934464  65.5797806  33.9256020  58.8869095  65.1359863
  32.5209160  58.9982719  65.6886597  85.4874115  52.6795349  88.6991730
  86.2047348  52.0655479  88.5420151  85.1867447  52.9255829  87.8243561
  17.2614441  32.5396690  87.2993317  17.2902641  32.6422997  88.2505798
  16.3612595  32.2718391  87.1144867  15.5575151  48.5144081  58.3709221
  14.7926426  48.1438751  57.9305725  16.2789841  47.9350281  58.1259079
  25.0108604  38.6352921  66.4420547  24.3416405  38.6209450  65.7578278
  24.5170288  38.7109566  67.2585373   9.0289526  71.3259354   2.1813805
   9.2564812  72.2477112   2.3029783   9.3043814  70.9020081   2.9941897
  10.9601173  42.4786453  35.6005783  11.4403419  42.9321327  34.9077797
  10.7097015  41.6414490  35.2099075  33.0070915  39.5072289  17.4528198
  33.6329308  38.8706360  17.7982273  32.5383530  39.0336761  16.7656059
  46.0680618  41.0978699  47.1635780  46.4653893  41.9160805  47.4617271
  45.2606392  41.0243530  47.6723938  27.8598747  62.3843803  74.0584717
  28.1543770  61.5326233  73.7359619  28.3068619  62.4901161  74.8982620
  27.3850384  12.4701490  83.5730820  27.1838646  11.6867151  84.0849380
  26.8076134  13.1446629  83.9306335  38.7608223  30.3662910  86.4805374
  38.7515717  31.3234081  86.4720840  39.1519203  30.1379852  87.3238373
   7.6235332  46.9426270  74.0508499   8.3130159  46.3090515  74.2494049
   7.9746776  47.7808151  74.3514633  65.5572891  21.9640064  81.8684006
  65.8064270  22.5510769  81.1546021  66.3897018  21.6718273  82.2398148
  11.6141930  67.7531815  69.6351089  12.5683947  67.6856308  69.6009293
  11.3458738  67.8205643  68.7187576   0.2086302  18.2065792  24.7932816
   0.9439864  18.4635220  25.3495770  -0.5637515  18.3305187  25.3449135
  36.9884491  36.1392059   8.2156658  36.9978752  36.9809113   8.6713800
  36.2994423  35.6382256   8.6521521  53.8721237  53.2398071  71.0053101
  54.7594910  53.4687653  70.7289200  53.3337860  53.9769096  70.7170486
  46.7455063  47.4984055  86.9646454  47.4780579  47.1284637  86.4719543
  46.3753586  48.1613808  86.3818207  68.8274612  24.8272915  78.3698120
  69.7014771  25.0679817  78.0625610  68.9120636  23.9130554  78.6404495
  50.4751167   4.1530499  42.6400833  50.5397530   3.2568514  42.9700546
  50.5929146   4.7026348  43.4148788  51.7462425   0.9927223   4.8785095
  51.4471359   0.0993090   4.7094564  50.9520683   1.5247052   4.8283701
  63.6103592   5.4518805   8.9529076  63.1825981   5.9328017   8.2444124
  64.5082550   5.7834954   8.9594765  82.0309601   2.2307029  20.3317719
  81.1565933   2.4864171  20.6255627  82.5624390   2.2368457  21.1278400
  45.0637741  25.3454075  88.1327286  45.4244041  24.7142487  87.5099869
  45.7653503  25.4811268  88.7695999  42.0434456  55.2413635  26.7100697
  41.2999725  55.6741066  27.1298466  42.2511292  55.7970734  25.9588795
  13.4619093  68.1484985   7.8721752  14.1422958  68.2783966   7.2115455
  13.5458851  67.2290878   8.1249056  79.2146454  31.7703533   3.3896639
  80.0710373  32.0799103   3.6846075  79.0056076  32.3245049   2.6376982
  63.4387512  63.2881050  55.6138802  62.5088234  63.1347618  55.7810555
  63.4735794  64.1712189  55.2462807  14.2891340  18.6701908  -0.0352144
  13.4198551  18.7526951   0.3569319  14.5034142  17.7412376   0.0505995
  56.3776932  39.9393921  20.3928623  57.2835159  39.6300545  20.3982105
  56.0655060  39.7817497  21.2838840  54.3307076  46.0964890  10.8084335
  53.8357010  45.7559471  10.0632944  53.7678185  46.7759666  11.1795120
  57.2159729  22.2966022  23.5229187  56.6822777  21.7370300  24.0870819
  58.0433006  21.8241272  23.4305668   4.4447670  31.5331383  21.8115501
   4.6982298  31.5811100  22.7333336   4.6286535  30.6282520  21.5593643
  35.8217392  34.6416702  10.4441805  35.7362099  33.7205772  10.1982040
  36.5184555  34.6506119  11.1004858  47.7867622  57.7139206  77.2637024
  47.5635834  56.8199654  77.5230637  48.5964737  57.6225090  76.7614594
  16.3091660  46.3550301  89.0121918  16.4082355  47.2772064  89.2488556
  17.0720901  46.1645317  88.4664001  63.0838966  54.3300438   4.1782331
  63.8623962  54.7940788   3.8702738  63.3955650  53.4481964   4.3817902
  26.3379421  27.7999840  78.5843430  26.5441380  28.2918949  77.7895203
  26.2054119  28.4711723  79.2537994  28.1223469  50.4425545  18.2475357
  28.3565445  49.5188980  18.3383141  28.7861099  50.9089928  18.7555580
  49.0627136  50.5850830  17.9101810  48.4708481  51.0782166  17.3420734
  49.8159828  51.1632385  18.0308208  60.4003105   8.3414783  10.6612902
  60.0649643   7.9202285  11.4526958  61.3170319   8.5311317  10.8610001
  12.3877163  48.3867035  83.9526596  12.8431625  48.3934708  83.1107864
  12.1632080  49.3036499  84.1109009  80.9690018  42.3468590  21.4894047
  80.0412598  42.5707932  21.5627670  81.0969696  41.6443825  22.1268864
  68.4301529  55.9583473   8.0414076  67.6134720  56.0885048   7.5594068
  68.7805252  56.8409538   8.1617384  67.6705246  60.5875740  43.1209450
  68.5927887  60.3383865  43.1807098  67.2346115  59.8104172  42.7713203
  26.8118935  37.2929764  18.8842087  26.9756794  37.7301636  18.0485821
  27.3230190  37.7931671  19.5204411  15.3454332  50.0657005  60.4319534
  15.4945002  49.4950066  59.6780815  14.4080172  50.2574883  60.4055138
  14.4355869  54.2916985  13.0036478  14.9169922  54.9813881  12.5466909
  14.8316374  53.4773407  12.6934843   7.4517713  47.7532730  56.4271011
   6.5310640  47.9713249  56.2822380   7.5160866  47.5996475  57.3697014
  73.8807297  60.9475784  50.4402237  74.5060272  60.2686005  50.1868019
  74.4036865  61.7476387  50.4916801  85.0584030  41.8433800  75.3344116
  85.9406204  41.9814949  75.6791382  85.0323257  40.9135551  75.1086197
   7.3970528  47.5142441  68.1786957   6.7028403  47.5409470  67.5202179
   7.2922153  48.3287659  68.6704178  27.9285793   4.6651897  80.5083160
  27.5186024   5.5301280  80.5139389  28.7873268   4.8097572  80.1109695
  73.6698532  38.4568024  50.8359489  73.7537918  39.3820190  51.0665016
  74.5583801  38.1859932  50.6048355  84.2614975   4.6949801   0.7515161
  83.8085785   5.1588039   0.0472717  85.1746521   4.9705849   0.6712987
  78.1941910  57.1753960  70.0426941  77.5769348  57.8185081  70.3914642
  78.1984253  57.3348160  69.0988770  29.1754322   1.9603336  23.0143127
  28.5514622   1.8196259  23.7264194  28.9477043   1.2979311  22.3619366
  80.8976822  33.7957611   2.2735565  80.6528244  34.4431000   2.9347904
  80.9051285  34.2848587   1.4507798  38.5555038  51.5302315  48.9223251
  37.6903381  51.7456474  49.2706299  38.7139549  52.1915398  48.2486801
  46.5375252   5.6256118   5.2088380  46.5042114   4.7213674   4.8966451
  46.0757523   6.1279368   4.5375223  72.9130402   4.9791417  59.9438896
  73.2694702   4.6098709  59.1359100  72.6971283   4.2167139  60.4808426
  82.7051697  66.8133469  79.1690750  82.7650299  66.9914322  78.2304916
  82.4464798  65.8933029  79.2222748  73.3260193   7.3571162   6.6392794
  72.8060684   7.8233156   5.9846482  73.7009659   8.0488939   7.1843433
  33.5610046  52.1845398  12.1131554  33.5048828  51.2636070  12.3680468
  33.6187630  52.6594315  12.9422340  40.7095795  22.1555500   7.3295078
  41.4451332  22.6847725   7.0210924  40.8386040  21.3020020   6.9159398
  71.6327209  36.9255066  85.1828079  71.1646957  36.6467857  85.9698944
  72.4637070  37.2716179  85.5082245  77.8970032  13.5100718  80.1077576
  78.6132278  12.9724951  79.7697296  77.9897079  13.4617720  81.0592346
  76.8656082  31.9688587  28.2322254  76.6703186  32.0342598  27.2974453
  76.4202957  32.7206154  28.6231117  64.1696167  48.3104591  71.2577896
  63.6066360  48.2622070  70.4851608  65.0581894  48.3528328  70.9044113
  85.2487488  38.0524254   2.2492318  85.6931992  38.2436485   1.4233203
  85.6927109  38.6039276   2.8934164  46.6318130   1.8220171  83.8972778
  46.1036606   2.5739803  83.6292572  46.4695511   1.7380676  84.8368759
  43.7410088  28.2761955   6.2239132  42.9690208  28.2392750   6.7886305
  44.4230347  27.8242741   6.7207432  83.3521805  22.6165409  34.9739914
  82.5866089  22.8379326  34.4437866  83.1663666  21.7390709  35.3082886
  79.8740311  63.9499626  49.7775879  79.8609161  64.3493347  50.6473923
  78.9947739  64.1017761  49.4310417  52.6619606  60.6404953  36.9564171
  52.6640434  59.7041512  36.7577057  53.5864220  60.8886223  36.9506378
  68.7916794  27.5328064   9.9796658  68.1336212  26.8483543   9.8583651
  69.4914246  27.1071987  10.4750929  49.6180687  35.8759651  10.9283352
  50.0172348  36.7341347  11.0712986  50.1080971  35.2855492  11.5006266
  11.4720078  21.7894287  67.7879715  11.4384775  20.9200935  68.1871796
  12.2765837  22.1791782  68.1300049  21.6158333  34.5907593  83.4362640
  20.7740898  34.9255409  83.7454910  22.1246262  35.3750572  83.2307281
  33.1529961  55.5865402  72.1629639  34.0239449  55.5627556  71.7665863
  32.5593414  55.3470955  71.4512939   3.2856688  54.8683281  15.2110415
   3.8325586  55.4546509  14.6881971   2.6047170  55.4353065  15.5730791
  59.8928185  69.1880569  28.6480045  60.0546646  69.9931641  28.1562252
  60.4751282  68.5420456  28.2482338   0.0123505  61.4415283  79.1495361
  -0.1181395  60.6897697  79.7275238   0.9618509  61.5001564  79.0435028
  80.6496811  60.9866219  69.9961014  80.5942764  60.5796661  69.1314926
  81.1423569  60.3591423  70.5250320  73.1168823  66.9963684  52.7546997
  73.3673706  66.1676941  53.1630859  73.9479980  67.4053268  52.5133858
  47.3753815  23.1569195  67.7092209  47.8049583  24.0106239  67.7629242
  47.7763634  22.6425285  68.4098206  81.1452103   1.4695747  73.3850479
  81.7064590   0.6997102  73.4774780  80.4415588   1.1844095  72.8021393
  44.2649689  24.0378056   2.6518466  43.8394089  24.1204567   3.5052528
  43.6837578  24.5008831   2.0485327  83.2180862  46.8985291  88.1208496
  83.6315002  46.2368202  87.5663605  82.9863815  46.4288406  88.9220581
  71.4902649   2.3594737  84.7818832  71.9100189   3.1676118  85.0767593
  71.9197998   1.6686200  85.2863159  14.5278091  35.1775818   7.2719359
  14.9981194  35.9723816   7.0202794  14.9316664  34.4847031   6.7493935
   0.2751009  15.9088163  86.3303833   0.9347870  15.3721666  85.8910065
  -0.2506988  15.2824316  86.8277893  85.2927704  25.9801636  77.6024246
  85.6636124  25.9245243  76.7217331  85.6206207  26.8102741  77.9483490
  48.3644218  65.5037537   0.1290869  48.3210945  66.4585876   0.1805842
  47.8175888  65.1997681   0.8535147  68.6389923  70.4404297  62.8604851
  67.8523788  70.4113617  62.3158455  68.3100967  70.4010086  63.7585411
  82.1997986  26.0944691  54.8894691  82.0875092  26.6554470  54.1220551
  81.3475418  26.1108837  55.3249207  72.7197647  25.1429939  80.8314362
  72.1455154  25.4766350  81.5207520  72.8930893  24.2356815  81.0823898
  73.4507751  12.7624302  43.8337555  74.1082306  12.1504421  44.1646042
  73.7220993  13.6139107  44.1766815  83.9502792  42.3226242  62.1654434
  84.0673904  42.6814003  61.2857857  84.0508347  41.3772812  62.0538902
  29.2580147  66.4485245  77.8251877  29.0704517  67.3856735  77.7721634
  28.5148430  66.0822678  78.3045502  75.3291931   3.3518186  52.7644806
  74.5723343   2.9121120  53.1518555  74.9947968   3.7339680  51.9530792
  77.0229568  25.9232025  74.2443390  77.5707397  26.7054939  74.1796036
  76.4679260  26.0819683  75.0078583   8.6623240  57.2380524  85.3860321
   9.4604464  57.6985779  85.6451645   8.7878857  57.0454559  84.4568558
  49.7330551   7.1879187  13.8051243  49.0132713   7.8163896  13.8613710
  49.3663330   6.4461889  13.3238935  52.7609978  55.5367622  65.7091675
  53.5614891  55.2733994  66.1631317  52.4564285  54.7382965  65.2779846
  58.3127327  22.4966984  43.7085915  58.3668633  21.6427536  44.1376343
  59.1697464  22.8953800  43.8596268  59.3047867   2.7939942  15.2433100
  59.2821617   2.9633126  14.3014755  58.9822922   1.8972573  15.3332653
  83.6249542   8.0811157  88.4123077  83.5910645   8.1374722  87.4573669
  84.1354904   8.8454819  88.6793747   2.1314344  22.7813797   4.0683527
   2.7061796  22.4026546   4.7335343   2.3643832  23.7096386   4.0509267
   5.3208709  38.8172340   4.5290537   6.1312051  39.2809296   4.3179183
   4.9564166  38.5724258   3.6784813  64.3400269  16.4620361  66.9033051
  64.1156769  15.7179079  67.4620361  64.6984329  16.0657597  66.1091156
  62.5619736  10.7021847  60.1138878  62.6194534  11.0108633  61.0181236
  63.2485199  11.1836948  59.6523323  47.2256584  48.4719124  72.0900803
  47.2902794  47.7692490  71.4432983  47.2600327  49.2769432  71.5733871
  85.0938644   4.7240381  70.6766510  84.5020294   5.1775179  70.0763779
  85.0294876   5.2171173  71.4945450   2.6957099  30.3865242  62.9521141
   2.7487941  30.1855564  63.8864746   2.3085611  31.2612286  62.9168816
  27.3869534  54.1210556  51.3903160  26.7864685  54.8316765  51.1652107
  28.2580566  54.4831772  51.2282066  71.8603363  13.9394817  66.7147751
  71.4969254  14.8028011  66.5176773  71.8158340  13.8729563  67.6686249
  42.0741005  43.2098541  70.0987930  42.7087364  43.4331207  70.7796936
  42.5422173  42.6038094  69.5245056  47.5850830  15.8309212  36.8935814
  47.8016281  16.2190094  36.0458031  47.6416664  16.5593948  37.5119324
  42.9769325  70.1270981  12.7646990  42.9216156  70.2276077  13.7149992
  42.0674744  70.1553955  12.4675169   8.3484602  63.3035278  78.6293182
   8.5428553  63.2078285  77.6969681   9.0352144  63.8831596  78.9589081
  28.8655472  53.4015350   9.9916201  29.0365067  54.3259621  10.1717329
  28.5465336  53.3883476   9.0892401  28.7443867  50.7657967  77.9349442
  29.3228245  50.7485542  77.1724854  29.2744770  50.4056053  78.6459274
  71.0698318  21.4158459  44.5475197  70.9671478  21.7550182  43.6583366
  71.0663834  22.1953201  45.1030731  83.3737717  28.8146820  14.7229147
  82.9701385  28.0145473  15.0592165  82.7540359  29.5085220  14.9481983
  83.0595322  45.5670013  11.9236040  83.5340271  46.0767365  11.2669067
  83.1155396  46.0929222  12.7214136  69.8230438  70.7840042  17.0511608
  70.3689194  70.9519577  16.2830181  69.9477234  69.8528671  17.2346325
  21.9104118  62.1800385  84.1890793  21.4853802  62.7619629  83.5590439
  21.4886818  62.3822403  85.0242386  71.7666931  27.6908588  69.3629379
  71.9376373  27.2409439  68.5355453  70.8268661  27.5795860  69.5063553
  26.0069580  53.7113190  71.8450851  26.7124443  53.6271133  72.4865189
  26.4353123  53.5797348  70.9992599  36.1648445  68.9688034  80.4931946
  36.7824516  68.2627792  80.6837845  36.5873260  69.4759674  79.7999954
  34.2249336  -0.1909806  45.8743172  34.2478027   0.7425358  46.0846863
  33.2940598  -0.3920554  45.7779884  55.1721306  49.0625725  87.5872955
  55.1435699  48.1895027  87.9786682  54.3505592  49.1342125  87.1013718
  77.9041748  33.8332939  73.4817963  77.4353943  33.6796875  74.3020935
  77.8356400  33.0044441  73.0079346  40.8184853  38.4728279  16.5646286
  41.5370293  38.2971230  15.9571314  40.0596848  38.6234856  16.0009327
  79.1917419   3.0299609  84.5189819  79.1099625   2.1102793  84.7714310
  79.1986923   3.5064883  85.3491058  80.2942657  34.6314354  11.7884150
  80.3958282  34.8711929  10.8673096  80.9878769  35.1130638  12.2391558
  71.2043686  56.4564018  19.1671124  70.4389648  56.1023865  19.6199551
  70.9103241  56.5864792  18.2655296  15.8629913  58.4695015  87.8095016
  16.2945766  59.1251259  87.2616730  15.1771135  58.9546394  88.2682419
  20.1844902  49.7068977  87.2864685  19.7101746  49.4275665  88.0695648
  19.5304832  50.1696014  86.7626266  59.2705956  49.3055840   7.0067720
  58.5711975  49.9588165   6.9878511  59.2954102  48.9553947   6.1162758
   7.0600009  27.0769634   5.0124917   6.3904920  26.6123447   4.5103779
   6.8432407  26.8946304   5.9268231  16.5076199  40.2955894  60.7528038
  16.6419334  39.5383224  60.1829453  16.0601597  40.9355545  60.1992149
  47.8452911  51.5753021  66.7735977  47.6685104  52.4438591  66.4122314
  48.7558441  51.6181793  67.0656433  81.7862015  23.5018997  89.1022873
  81.3991547  24.3292789  89.3884201  82.3681641  23.7459469  88.3825684
  33.1200523  19.9836636  82.9320526  32.4185677  20.6252937  82.8204117
  33.7263412  20.3962383  83.5472107  14.1856146  60.2097473  19.9616032
  14.4287815  59.5318680  19.3310623  14.0345430  60.9899979  19.4281044
   6.6585913  42.6288834  60.8338509   5.7913084  42.3317642  60.5585823
   7.1939201  42.5710793  60.0424500  10.1235390  43.8390617  55.0299950
   9.9126539  44.3270950  55.8259735   9.8650064  44.4219398  54.3161011
  23.0475559  64.7776108  75.7506027  23.7806110  64.3714447  75.2881165
  22.8880272  65.5938034  75.2766647  69.8433838  49.0558815  78.4893646
  69.1729355  49.4377975  77.9229050  69.4371490  49.0272675  79.3556137
  10.1257982  46.3913307  29.3773499   9.9086905  46.4308929  28.4459362
  11.0340118  46.6899300  29.4244747  22.4697475  51.2511406  73.2132568
  22.5005722  51.8455620  72.4636307  21.8103352  50.5994263  72.9751968
  28.2903118  68.4882584  32.1825867  27.7464657  67.8005524  32.5666771
  28.7477589  68.8764420  32.9284325  50.8485146  51.7082443  83.1018372
  51.5233116  51.6075172  83.7732086  50.7647858  50.8372231  82.7138367
  56.3245277  24.2079926  42.9603539  56.9292793  23.7054100  43.5061760
  56.8036041  25.0086823  42.7467880  30.0573559   5.8944931  70.1804199
  29.3899765   5.7492981  69.5097809  30.3253078   5.0148015  70.4460831
   6.0400777  14.2833843  67.6380615   5.4920816  14.7799768  68.2457886
   6.9141631  14.3099442  68.0272980  52.9029274  21.9973297  69.2407532
  52.1207733  22.5447865  69.3097153  52.5682030  21.1005650  69.2389145
  33.5260086  43.6056213  36.9019012  32.7888260  44.0274200  36.4604530
  33.1654816  43.3050690  37.7361183  85.6530685  65.9628906  22.9011478
  84.8072128  65.8597794  22.4651051  86.0797424  66.6785812  22.4300098
  15.3960419  40.3488388  39.2316246  15.1081171  40.2334061  38.3260841
  14.6640034  40.7914085  39.6611404   7.3356400   5.7397127  61.7267380
   7.2305198   4.8560181  62.0792503   6.7642570   6.2834487  62.2690506
  41.1174545  64.7347031  55.5181465  41.2888031  65.6655807  55.6607437
  41.0503082  64.6464233  54.5673943  62.0382843  14.3112555  26.7337627
  61.2831306  13.8455982  27.0931206  62.7962914  13.8715029  27.1188297
  15.0404444  21.3558998  87.0627975  15.1070080  21.0821991  87.9776154
  15.7372704  20.8740196  86.6173172  54.2061462  40.3782349  11.1648254
  54.9384384  40.1368065  11.7320070  54.4340401  40.0118141  10.3104076
  48.9147110  65.5142059  73.9086990  49.1930351  66.1547318  74.5632935
  48.9603119  64.6726685  74.3625259   9.5115709  41.2578468  50.0749016
   9.9073439  41.1364708  49.2118454  10.1580429  41.7652817  50.5656319
  48.7440453  51.2667427  72.6637955  49.2457695  51.5869904  71.9141617
  49.3183212  50.6233711  73.0791397  37.6736069  38.4177437  77.0925751
  38.5318604  38.7670517  76.8525314  37.3863678  37.9347000  76.3177185
  46.7474136  61.6453323  32.5173721  47.3687973  60.9788246  32.8104286
  45.9922791  61.1475182  32.2040253  73.5707474  64.9940796  26.4436073
  73.7375107  65.8729248  26.1029472  73.8633423  65.0306854  27.3542576
   0.8090702  66.3687439  32.2718353   0.4836739  65.4702911  32.3278122
   1.0836291  66.5800781  33.1641273  29.3830090  65.7723999  83.3905563
  29.6748104  66.1600418  84.2156754  30.1177635  65.9035339  82.7912521
  83.8559647  69.2054062  23.3605080  84.6855927  69.1002731  23.8262348
  83.7879944  70.1469193  23.2018642  14.7196865  70.0602341  84.7500992
  14.5705118  69.6163025  85.5849075  13.8842926  69.9889526  84.2882919
  72.9677811  30.8405190   2.0441318  73.8275681  30.9984150   2.4340844
  73.0794601  31.0630226   1.1198748   7.4839773  66.3096161   0.3119042
   8.4195862  66.4993591   0.2421367   7.0999260  67.1190338   0.6489341
   2.6881866  19.5522652  54.8640366   3.5012784  19.1826897  55.2083130
   2.7753034  19.4789162  53.9136353  21.3101635  63.0169601  10.7960510
  21.5713634  62.1738510  10.4256811  21.2067585  63.5904350  10.0366669
  80.9340515  61.8816528  34.9633102  80.0541306  61.5589333  34.7688217
  81.4275818  61.0988846  35.2081108  10.6069965  64.7095032  79.1194305
  11.4085941  64.1866074  79.1355438  10.8890982  65.5882416  79.3733368
  39.0256348  48.5834198  11.8595171  38.3034096  48.0043106  12.1029377
  38.5990448  49.3525162  11.4817019  31.0671883  57.3775406  77.2330017
  31.2747917  58.0297241  76.5638351  30.3265762  57.7515373  77.7103424
  84.7325134  37.5203247  60.7182922  85.6485291  37.2875900  60.8698578
  84.7043915  37.7985497  59.8028488   3.5559387  64.2418518  31.0175762
   3.3565032  64.1052704  31.9437504   2.9937518  63.6188431  30.5571041
  54.9718437  15.1098747  45.2088242  54.8914871  15.5728788  44.3749199
  55.3893471  15.7416544  45.7942963  50.7503166  54.5483932  11.4371214
  51.2212601  54.0509224  12.1056795  50.9432373  54.0915680  10.6183872
  83.3861618  10.3559914  12.1758289  83.7659988   9.4799137  12.2425032
  82.5992279  10.2360401  11.6442461  65.5713043  59.2323418  72.4133911
  64.7329254  59.5710449  72.0993271  66.0842590  59.0878868  71.6182556
  16.5965080  10.2586498  81.0455933  16.0185089  10.9850988  81.2788773
  17.1300354  10.1164703  81.8274918  58.7050056  33.9790611  12.3632097
  59.6229401  33.8523445  12.6031485  58.2408409  33.2707634  12.8094120
  71.8990250  12.0764399  15.5156326  72.7770996  11.8160124  15.7938375
  71.6549988  11.4282179  14.8549576  11.9543047  71.4753189  24.6878853
  11.1575212  71.3540497  25.2042770  11.6401110  71.6804123  23.8072891
  84.2087097  32.9315414  27.8572369  84.4787445  33.5195961  27.1518974
  83.3954010  32.5372276  27.5421524  48.1599731   9.1889086  14.6517296
  48.5703964   9.2618761  15.5133905  47.3247185   8.7528753  14.8204298
  23.8650417  37.1488838  13.1445093  24.1792908  37.4052849  14.0115376
  23.9966698  36.2013130  13.1125984  46.7437019   8.8077497  84.4401169
  46.5922470   7.9938407  83.9596558  47.2401543   9.3558216  83.8323441
  21.3663731   1.7802379  22.3216515  21.4724884   2.3517575  21.5611668
  20.9472294   2.3337271  22.9805908  25.4533596  17.2863312  74.8383484
  25.9903240  17.7546425  75.4775543  26.0821209  16.7865849  74.3176270
  52.9641724  38.4834976  62.0824394  53.8321953  38.4755135  61.6790733
  52.3622665  38.3086815  61.3589897  27.1381378  68.7125320  53.3957176
  26.4948997  68.5730667  54.0907211  26.6823807  69.2562408  52.7531471
  72.0570068  69.9583435  58.2551994  71.2676773  70.4074249  57.9526787
  71.9672928  69.0655746  57.9218292  17.2073345  58.2293701  29.7543640
  18.0488319  58.6848068  29.7806568  17.0597839  57.9465065  30.6568336
  43.4933777  41.1430702  34.3287773  43.6011353  41.7861366  33.6280022
  42.7271767  40.6316299  34.0687866  36.8516388  35.3565521  13.9358053
  36.5707436  35.9532318  14.6295671  37.0003319  34.5230751  14.3823910
  10.9232273  58.5312386  81.6284332  10.8620825  59.3521652  82.1168671
  11.2521429  57.8972855  82.2657318  34.9334831  49.6846657  51.4573212
  34.1932869  49.9090919  52.0212097  35.6799126  49.6264877  52.0537186
  24.9325199  45.6979599  60.3290405  24.7705364  45.1395454  59.5686646
  24.4747334  45.2623329  61.0479927  73.4725571  42.1123505   1.0987899
  72.7933121  42.3354797   0.4623388  73.6980896  41.2036438   0.8997370
   8.3820686   1.1121185   5.6574059   8.2545214   1.8889095   5.1128335
   9.3136120   0.9095421   5.5712566  73.2151337  13.9919577  10.1576033
  72.9167862  14.5174065   9.4152231  72.7741318  14.3759480  10.9154310
  73.3874283  11.5612917  38.4460182  73.2763977  11.9543037  39.3117218
  74.3324127  11.4358835  38.3593254  59.1251831  66.2501144  14.8769932
  58.6048203  65.8836365  15.5919428  58.7886047  67.1394348  14.7672052
  55.1892586  55.2894669  83.1757889  55.2202072  55.2141800  82.2220535
  55.9564972  55.8162842  83.3994827   8.3240986  53.2699623  33.7695236
   7.4222741  53.1496010  33.4721031   8.3673906  52.7969055  34.6005287
  49.5419846  42.8133240  36.2792053  48.7579651  42.9518051  35.7478218
  50.2634735  43.1060333  35.7224236  53.6274719  34.7363472  55.8497849
  52.7577972  35.0262489  56.1251945  53.9069023  34.1311684  56.5367470
  82.5165176  26.3440075  72.2987976  82.0576172  26.9167881  72.9132614
  82.5553665  25.4974480  72.7438431   3.8212669  42.6417923  49.6731071
   3.2102780  43.0402756  49.0533218   4.6869469  42.8936081  49.3515167
   7.6546164  50.1656418  52.9210892   7.7157893  50.3511505  53.8581467
   7.5409250  51.0243950  52.5138435  86.7085876  55.5495682  39.9132957
  85.8441620  55.9598198  39.9397850  87.2498779  56.0943832  40.4846153
  45.3418427  50.3675957  17.9598179  45.9219246  51.0581932  17.6391735
  44.6767502  50.8307457  18.4691086  35.4398270  43.4726982  42.7181168
  35.9342651  42.7109032  42.4157486  34.6669235  43.4959373  42.1539268
  35.9069633  60.1458855  55.5108261  35.7903862  59.5990601  54.7338905
  35.4333191  60.9528351  55.3090286   2.3450887  67.3606415  54.4822693
   1.7468828  67.9504929  54.0235176   2.7311530  66.8246918  53.7894897
  45.6989861  38.8163986  81.9102402  45.7220001  38.4112816  81.0433044
  46.6174431  38.9858551  82.1198883   2.6032197  20.6261215  32.0609627
   1.9291387  21.3053665  32.0392342   3.3808160  21.0710640  32.3980103
  79.6460953  58.5316238  79.0570755  79.8657990  59.1383324  79.7640839
  79.7544556  57.6630592  79.4444733  80.3162231   6.1911263  35.5130119
  80.8897476   5.9945931  34.7722816  80.6322632   7.0317717  35.8441696
  37.0466042  58.1351204  21.3158989  37.8759079  58.1586914  21.7933178
  36.8414192  59.0546341  21.1467075  35.4644356  33.4467125  81.5559998
  35.3304634  33.2577438  80.6272507  34.6756020  33.9201164  81.8203201
  21.4255238  70.3844376  23.2118492  21.4242592  70.7803268  24.0833435
  21.6069508  71.1129761  22.6180954   0.8581817  21.5915947  22.9316139
   0.1215844  21.8861065  23.4672623   1.6323440  21.9267082  23.3839455
  76.7849274  56.9488144  80.3443069  77.6143570  57.0502396  80.8112106
  77.0296860  56.9468079  79.4189301  45.1848221  51.5748177  39.2286377
  44.4832954  51.3181076  38.6301422  45.0693016  51.0071144  39.9906082
  37.4053307  67.6131897  35.3070030  36.5518036  67.2015305  35.1718559
  37.2015038  68.5262756  35.5093842  80.5385513  31.4563808  73.1690826
  80.4373627  32.3700218  72.9021530  79.6858292  31.2170963  73.5321960
  19.3752728  10.6152754  21.9492817  19.3149509  11.5450945  22.1684399
  19.4876423  10.1771641  22.7928829  38.4323349   2.1879671  64.0944290
  37.7138405   2.1416450  63.4636726  38.2832756   1.4472446  64.6820908
  16.7694302  52.4447136  38.6769447  16.0852642  52.5306587  39.3408470
  17.3436298  51.7562752  39.0124702   8.7294941  35.4510574  56.5309715
   8.2037611  35.5470238  55.7368507   8.2085524  35.8711967  57.2153206
  83.0454330  49.2754669  46.5906868  82.3174973  49.0676651  47.1764832
  82.8310013  50.1396828  46.2394257  48.9200249  24.2113495  85.6403732
  47.9921989  24.2113400  85.4050674  48.9851952  23.5809593  86.3577271
  74.6389236  58.7570343  88.9655304  75.4156494  58.7163963  88.4076004
  74.4945602  59.6926003  89.1073151   6.2935195  21.1686707   8.7191200
   5.8939505  20.4565220   9.2185411   6.0247264  21.0071812   7.8147397
  77.8884506  58.3906174  57.2009468  77.6731186  59.0063400  57.9014816
  77.2907791  57.6552849  57.3362694  23.0550041  67.2080688  63.0861931
  23.3409481  67.7485504  63.8226395  23.3439903  67.6883011  62.3102417
  25.5552540  24.8748989   7.2522883  26.4350128  25.2410145   7.3429413
  25.5626564  24.0938969   7.8056531  25.6880360   7.5963669  33.8183784
  26.1309795   7.6731577  32.9733124  26.2948532   7.0939865  34.3620872
  46.9954262  21.6885872  60.4772682  46.6490593  21.3360748  61.2970238
  47.8579483  22.0323715  60.7098694  45.9715805   0.4071363  69.7593002
  46.7440567   0.9650648  69.8500214  45.5797043   0.3967972  70.6325455
  18.9295998  18.7072964   6.9090724  18.5950546  18.6384563   6.0148845
  19.2724152  19.5990200   6.9685531  45.9526634  60.8998337  53.4165802
  45.6662331  61.8129311  53.4375229  45.2303848  60.4130745  53.8135834
  70.1115341  65.4788589  67.9663773  70.4844208  64.8756943  67.3234329
  69.2586823  65.7183151  67.6036987  20.3131275  20.7273769  58.1846046
  20.0526772  20.7824974  57.2651711  20.3321991  21.6366577  58.4830627
  22.2917557  21.4770584  85.7733917  22.8788815  20.8141708  85.4099426
  22.6340332  21.6446438  86.6514511   4.3782001  23.9419250  73.6235657
   4.1350379  24.5806675  72.9534073   4.0162649  23.1139488  73.3078308
  77.7224503  64.4466782  64.1412888  76.8666153  64.0201187  64.1839676
  77.6976852  64.9525604  63.3290672  56.6944237  58.8258133  10.7097702
  56.0554962  58.4301682  11.3026180  56.4027214  59.7324104  10.6137133
  75.1229172  24.5708599  49.7043800  74.4019318  25.1498661  49.4570580
  74.7415390  23.9757004  50.3498001  79.1200867   8.8300591  74.9195786
  78.9621811   7.9123917  75.1413574  78.3627090   9.2958727  75.2740250
   9.0968542  13.0432262  15.0844841   8.2516680  12.8271809  14.6905107
   9.7303925  12.5185833  14.5949831  37.1926155  16.8555813  15.1577959
  37.0541000  16.3157253  15.9359989  37.9704056  17.3748455  15.3618612
  58.3319931  34.2110901  26.1013412  58.2341957  34.6544838  25.2586842
  58.5979080  34.9032097  26.7067299   2.9236026   2.4631062  88.7926407
   2.9238274   2.4441454  89.7496490   2.0751643   2.0949399  88.5459824
  40.4006424  67.2995377  50.3624954  40.9642258  67.9118271  49.8895187
  40.2891197  66.5632248  49.7611351  59.8379669  65.4218063  82.7468338
  60.0508385  66.1699142  83.3047256  59.0920029  65.0055542  83.1787033
  86.5477219  28.9968796   2.7671645  86.4338608  29.1414337   3.7065108
  86.0974197  29.7341881   2.3550549  70.4022675  53.9479828  80.0628891
  71.2861328  54.1555099  80.3661118  70.5356216  53.3508759  79.3267441
  40.0405579  43.1772346  13.9303656  40.6993065  42.4874115  14.0105085
  40.3443871  43.7147484  13.1989279  30.8886375  11.5130386   5.6793103
  31.8372459  11.5772085   5.5685968  30.7654076  10.7607365   6.2581782
  47.5764351   1.6280063  66.6428833  47.3082771   2.5159225  66.4063950
  46.8877373   1.0668744  66.2864304   3.2724798  31.4678211  68.2765274
   3.1976016  32.2633705  67.7495346   2.7559667  31.6509056  69.0613403
  42.2547798  43.9581718  88.3482132  42.0820770  44.6942062  87.7611313
  41.7977219  43.2191849  87.9466858  76.9887924  14.2811556  26.7188320
  77.6840515  14.8067837  27.1145115  77.4221191  13.4687262  26.4572601
  67.0261383  45.7625580  17.2308083  67.2003403  46.0716324  18.1198292
  67.8146896  45.2778511  16.9869232   3.9679451  64.6101913  44.7758789
   3.4103470  63.9340210  44.3910294   4.1887069  65.1845245  44.0426445
  59.5935440  54.7155991  68.6366348  60.0397491  54.2504044  69.3442535
  58.7798882  55.0288773  69.0316696  43.9059715   1.2037098  72.1985245
  43.9284134   1.7040433  73.0142441  43.5766907   1.8226961  71.5468674
  82.2625351  44.2812996  43.7256775  81.5639114  43.7923164  44.1604767
  81.8756943  44.5668983  42.8980217  60.1569786  18.2521229  20.0624542
  59.2427635  17.9684944  20.0626144  60.2628708  18.7195797  20.8910084
  47.4127235  51.0339394  20.1626167  47.1338501  51.9450684  20.0714989
  47.9291191  50.8616371  19.3752918   4.4220319  61.2624702  86.5496292
   4.8698950  61.5846062  87.3318558   4.2960143  60.3278732  86.7135849
  20.4340820  49.2915077  79.9162292  20.6277828  49.2767944  78.9789505
  19.7298584  48.6524467  80.0253296  69.3119812  64.4764328  28.6683083
  69.3760834  63.9028893  29.4319611  68.6738129  64.0466537  28.0988712
  53.1854210  60.2802010  70.8715591  53.9843636  59.8034821  71.0966339
  52.4760818  59.7259445  71.1969376  43.8442421  65.4830017   2.1532259
  43.3917694  65.0154343   1.4511696  43.6197281  66.4027100   2.0119550
  77.3432770   2.4259706  71.3911209  77.0565338   2.4704223  70.4789658
  77.5775375   1.5074480  71.5240555  34.5267906  52.5645370  81.1756744
  33.6917992  52.6514282  81.6355362  34.7537193  53.4586716  80.9202194
  44.5324059   5.9515553   7.9721451  44.5823936   6.8541260   7.6573443
  45.4286919   5.6231337   7.9011226  38.0008812  60.2387009  25.0546913
  37.4683380  60.3883286  24.2735100  37.6332932  59.4467735  25.4470711
  52.3554230  13.4796934  18.6177540  52.2259026  13.8165188  19.5043240
  53.2851906  13.2552881  18.5802460  83.1176758  71.0480728  73.1507416
  82.6924515  71.0257797  72.2934723  84.0026932  70.7219009  72.9876709
   6.7099671  65.5912857  69.8181610   7.6543097  65.4535370  69.8921585
   6.4960885  66.1787643  70.5429688  84.0882874  55.8919830  77.5964127
  84.7472839  55.1997833  77.6494904  84.0453949  56.1109772  76.6655884
  59.3880386  53.5487785  23.2441692  59.6786957  54.3299675  23.7147999
  58.4758568  53.7307892  23.0182724  33.4745026  23.6362953  77.5302429
  32.7741699  22.9917908  77.4283752  33.7047195  23.5951424  78.4584351
  86.3327866  56.8499832  13.2495432  87.0952606  56.2869492  13.1159267
  85.6315079  56.4245796  12.7561083  65.0757523   0.8509942  72.2555771
  64.8610382   1.1217985  71.3629456  65.6205978   0.0718013  72.1449738
  67.8224411  45.9487572  62.4634628  67.1757050  45.3240051  62.1353569
  67.3025284  46.6866226  62.7820244  81.8998108   6.8127742  82.1315231
  81.8490219   6.3402352  81.3006439  81.6648254   6.1613250  82.7923050
  85.2253265  24.5443287  17.9081230  84.6014557  24.5760250  17.1828556
  84.7951889  25.0251637  18.6152401  29.7498627  22.2642632  17.8742638
  29.5295811  21.9663944  16.9916630  30.6990147  22.1556396  17.9337864
  67.8881149  34.4751015  54.6891670  68.4583130  34.4557686  53.9205780
  68.4865952  34.5798149  55.4288177  22.3229237  50.5458679   2.8188872
  23.1933136  50.6119919   2.4261026  21.7739048  51.1175156   2.2822065
  72.0897903  54.2454453  33.1884155  71.6448822  54.6213379  32.4288101
  72.8277435  54.8335457  33.3490219  11.5200186  70.6819839  62.3659058
  12.4595032  70.4990845  62.3537216  11.4617872  71.6373062  62.3516388
   1.7096130  60.2784843  55.9723740   1.9774977  59.3730278  56.1292686
   1.4860928  60.3043442  55.0419998   4.1660523  36.4834099  78.0129852
   3.8542991  37.1504517  77.4013443   3.3982439  36.2653122  78.5413132
  41.8725243  44.5567856  75.8060303  41.3505249  43.9330368  75.3013611
  42.7760086  44.2632713  75.6885681  34.2581444  54.9043159   7.6768284
  33.9202881  55.0137978   6.7879529  34.7038841  54.0573807   7.6610141
  64.8401489  37.8773270  51.1734581  64.4966202  37.0171318  50.9320374
  65.7866058  37.7484512  51.2355003  27.2954540  34.2104492  12.5928020
  27.5502396  33.4058380  12.1412268  26.8317261  33.9098930  13.3743744
  76.6880112  51.9463158  17.9871120  77.3616714  52.3849869  17.4675198
  76.1115189  51.5414200  17.3390732  36.1038437  70.9762268  56.1699715
  35.2080879  71.2206573  56.4025803  36.6407394  71.3319473  56.8780937
  69.8934174   3.6799111  27.6257362  69.9315491   3.7185211  26.6700764
  70.1766357   4.5482779  27.9120178   0.9710909  68.8431931  16.0616627
   0.9584278  69.6991501  15.6333971   0.6162831  68.2422867  15.4064827
  44.1901665   2.8792050  13.5401087  44.8384323   2.1931620  13.6992493
  43.3782043   2.5317459  13.9091921  58.8931656  10.6621046  39.6131325
  58.0921669  10.2013988  39.3633652  58.7648163  11.5555763  39.2945938
  10.5954170  66.1967926  20.6628990  10.8287449  67.0623245  20.3272896
   9.6884594  66.0686417  20.3849792  25.4384956  11.1291513  71.3085938
  26.2783031  11.4618683  70.9919586  25.4447002  10.2011690  71.0739822
  23.5491390  27.5978203   1.4740523  23.9135399  28.4815426   1.5238307
  23.3718395  27.3602371   2.3841903  79.1841583  26.7079220  34.1306000
  79.4847870  25.9903507  33.5729713  78.6871414  26.2782383  34.8267136
   1.5464772  68.5590363  84.9836426   0.7672185  68.0387421  84.7879791
   1.6338731  69.1500244  84.2357559  14.1071291  58.4261475  51.9100533
  15.0009193  58.6057358  51.6183052  13.7270737  59.2910728  52.0639687
  27.1634560  58.5176888  75.5350037  26.2404099  58.7137680  75.6955414
  27.1534576  57.6789398  75.0738831  19.7676258  56.0282249  31.7578373
  19.4105129  55.3469391  31.1881409  20.3588047  55.5611534  32.3482437
  40.3785744  48.4388008   1.9914533  40.4945831  47.6510010   2.5226264
  40.7753601  49.1382828   2.5106063  75.4479218  12.5717649  71.0293808
  74.5529785  12.2924795  70.8362045  75.7428970  13.0023975  70.2270203
   2.4199297  25.5017815   4.1435094   2.1655195  26.0329762   4.8980551
   2.2563450  26.0656757   3.3875363  59.6449318   8.8865852  26.9027004
  59.3111610   9.2706938  26.0919647  60.5868721   9.0549259  26.8774509
  53.5754585  68.7036285  59.4095726  52.8384476  68.8203583  60.0090866
  54.2226486  69.3474655  59.6974220  12.6029787  64.5440674   4.2906561
  12.8740301  64.4622040   3.3762922  11.6590090  64.3861694   4.2756958
  33.4920082  52.5995560   3.8587143  32.7950172  52.2259369   3.3194170
  34.2983170  52.2332230   3.4955354   5.3871598  52.3201332  30.5455456
   6.1014252  52.7991142  30.1252689   4.6112223  52.8568459  30.3840122
  72.0014191  61.0382881  38.2513504  71.8632050  60.9176865  37.3118896
  71.1772079  61.4067993  38.5693359   0.3719630  23.8077793   1.4593192
   0.9686818  23.5129738   2.1472499  -0.1716141  23.0430222   1.2698354
  53.8955269  60.5556984  74.3323669  54.4847679  61.1150169  74.8385239
  54.0406570  59.6765289  74.6819763  69.2183609  53.0182877  60.1248283
  69.9249344  52.7616348  60.7173729  69.6035309  53.6995773  59.5737190
  29.9457455  26.3421478  11.5248318  30.1275387  25.8626537  12.3330822
  29.6931572  25.6655617  10.8966103  60.7392273  32.8676987  15.5602798
  61.2589569  33.2345657  16.2754879  60.4535789  33.6297646  15.0564013
  66.9403305  69.9338989  11.7103329  67.0337372  68.9844360  11.6327467
  66.5825577  70.2091370  10.8662500  45.1845932  29.6532192  69.3004532
  45.2012596  30.6102371  69.2919693  45.8884506  29.3961239  68.7048721
  38.0775757  60.8385963   7.4678841  39.0280991  60.8686905   7.3591208
  37.9458923  60.8039055   8.4153481  54.4452171  63.9811363   0.7754557
  54.3464584  63.3768005   0.0397562  55.0810394  63.5559845   1.3509647
   4.9844112   4.6120362  16.0524273   4.5199237   4.8905454  15.2631769
   4.9315691   5.3658247  16.6400013   2.2917056  40.4687614  71.2382202
   2.3313165  40.9769478  72.0484161   1.4022584  40.1154976  71.2203217
  25.5813599  44.4043999  51.0247116  25.7965164  45.1979294  51.5148659
  25.7696667  44.6275101  50.1131210  18.6767292  60.7215080  82.3835754
  18.2035580  60.8477745  81.5611420  19.5953541  60.8645973  82.1557922
  63.6887741  24.5621071  50.4157944  63.2377968  23.7265835  50.5372581
  62.9853477  25.1954937  50.2735214  19.4951382  21.6470680   6.7138791
  18.5562210  21.7957401   6.8259602  19.9103127  22.3454342   7.2199893
  39.7024689   9.5322723  15.7910833  38.9083900   8.9995108  15.8339729
  39.5805359  10.1987686  16.4672089  31.5829029  57.6769753  15.2137365
  31.2329731  58.5678596  15.2034702  31.0408077  57.1994705  14.5857620
   3.2220714  57.6517982  44.4092026   3.7330313  58.3871269  44.0709076
   3.4668360  56.9133606  43.8514977  47.3509750   5.6263485  30.2811623
  46.5395393   5.9223146  29.8685970  47.3515205   6.0498414  31.1395817
  82.0384750  66.0272064  10.1409206  81.5238571  66.3567657  10.8776636
  82.5524902  66.7810669   9.8515720  55.9261322  43.4325294   3.0084569
  56.2040596  43.7137718   3.8801751  55.1564751  42.8860245   3.1671631
  31.2743607  44.9005203  36.2565804  30.6438560  44.6652184  35.5758972
  31.6409435  45.7353668  35.9652405  79.1114349   2.5072825  21.3181610
  78.9997864   3.4495790  21.1922874  79.2134247   2.4024289  22.2641182
  55.3027611  45.0133629  57.3321724  54.9901085  45.4320259  56.5301743
  55.0670547  45.6253624  58.0294037  21.4569511  55.3405724  56.3280106
  21.7067947  55.9732018  57.0014992  20.5494690  55.1167793  56.5344658
  27.3218384  18.0294781  13.8282719  27.2579231  18.7495060  13.2008114
  26.4220638  17.7187710  13.9287586  77.0903854  13.1757832  34.9847984
  76.5986633  12.4244976  34.6531181  77.9797287  13.0438728  34.6563301
  11.2147150   4.3179469  23.5765171  12.1162710   4.2824998  23.2568722
  11.0211191   5.2529302  23.6440315   0.9060177  34.7951431  27.4835548
   0.2693596  34.2715645  26.9969692   1.1292961  35.5125999  26.8905697
  20.4736443  56.1545677  81.2079544  20.7737370  57.0327682  81.4423447
  21.0827980  55.8668365  80.5279770  29.9139366  55.2105255  15.7295465
  29.2700710  54.9213524  15.0829821  29.4288960  55.8060341  16.3008060
  37.4189720  32.7259903  65.9043503  36.5531845  32.3183937  65.9268875
  37.9620781  32.1654739  66.4585037   9.4989948  52.1186523  44.2171860
   8.8756533  52.5200348  43.6117363   9.6191120  51.2297935  43.8829155
   8.4374723  56.0946732  69.7024002   7.6362486  56.3970146  70.1300201
   8.3615017  55.1404991  69.6985550  13.2531252  40.1341782  49.7078896
  12.8727522  41.0124474  49.7218857  13.9615049  40.1696930  50.3506737
  58.9250145  29.9209309  26.5136280  58.1048164  30.1540623  26.0787086
  59.4985580  30.6720753  26.3617764  71.2112579  59.8369865  76.0810471
  71.6530151  59.8200035  75.2320557  70.5429764  59.1546898  76.0170059
  50.3646049  33.6810493  83.7392731  49.4304276  33.8763313  83.6657486
  50.4879036  32.8959885  83.2056885  21.3803425  58.1459389  78.0633545
  21.3755226  58.2327156  77.1101074  22.2409744  57.7793007  78.2661362
  16.5917606  52.2003555  76.9641418  15.9401875  52.5754356  77.5565948
  16.1218033  51.5088387  76.4981155  76.8119202   9.6904430  83.7527313
  76.3437195  10.5185614  83.8587646  77.5089188   9.8877773  83.1270447
  71.1667404  61.6398277  50.3419800  71.9745483  61.1419449  50.4676361
  71.3416977  62.1918030  49.5797844  77.9242859  27.5074329   9.0520477
  78.0892410  27.5057335   8.1091709  77.7486038  28.4244633   9.2628107
  10.2503452  63.3034363  14.3001232  10.5315847  63.8349609  15.0448503
  10.8784237  62.5817337  14.2701817   4.8638506   5.8261414  55.8050270
   4.3536263   6.1521764  56.5463829   5.2682652   5.0210071  56.1282005
  34.1931877  45.4071312  65.3050842  33.8135605  44.5299988  65.2526245
  33.5317421  45.9275169  65.7610703  72.9341125  38.8194084  74.5663071
  73.4180450  37.9965935  74.6371078  72.4120865  38.7224846  73.7698669
  55.4618568  66.7542572  46.0969696  55.6199837  66.6035538  47.0289116
  55.1808929  67.6678925  46.0463791  56.4039078  31.1400394  62.7491302
  56.8826752  31.5266533  62.0159607  56.7667503  30.2583351  62.8338318
  61.5026665  69.3118134  21.1207905  61.1023178  68.7047195  20.4983883
  61.6209450  70.1211700  20.6236076  67.0629654  39.9785767  72.2116776
  67.5056763  40.7034721  72.6529999  66.9150314  39.3323174  72.9021072
  50.0686035  64.5549393  18.1861935  50.4878807  64.5589828  17.3257160
  49.1996117  64.9250488  18.0309391  67.3214188  31.0030079  80.0969391
  67.0563736  31.8105793  79.6567078  67.2638245  30.3303223  79.4184036
  54.4264832   3.7807078  78.1566010  54.2313766   3.3389790  78.9830627
  55.0646935   4.4547806  78.3901443   7.4799008  54.0044823  39.5895920
   6.6859822  54.4375076  39.2758827   7.6005731  54.3398628  40.4779549
  76.2404938  36.8573456  50.7486534  75.9326706  35.9833069  50.5087967
  76.5920410  36.7531891  51.6328468  22.2085323   4.7200370  13.0658789
  21.7024288   5.2876792  13.6471481  22.3625221   3.9272692  13.5797253
   1.6503354   3.9542675  79.3816833   1.6175972   3.1495631  79.8989944
   2.5688224   4.2219138  79.4129715  69.4828720  39.7300186  33.0497246
  69.1710434  38.9594040  33.5242233  69.0099335  39.7066803  32.2178497
  57.9597702  53.1565514  73.7873306  58.5785904  53.0689545  74.5123215
  58.3351173  53.8410530  73.2334290  77.6172714  40.1304398  77.7042542
  78.1934052  39.7477379  77.0425644  76.7848663  40.2614555  77.2501907
  30.4345779  13.7108288   0.8938227  30.8536606  12.8538980   0.9730198
  29.7862263  13.7263536   1.5978335  85.0864944  13.1715183  56.6650124
  85.9325638  13.4699717  56.9986687  84.4615402  13.4093132  57.3499336
  11.8234043  56.6338692  32.2680359  12.7709312  56.7195091  32.3733406
  11.5866003  55.8921661  32.8248367  37.1660309  51.0692024  23.0581207
  36.8653603  50.9892235  23.9633446  37.4734726  51.9728775  22.9868126
  27.7604389  31.1777935  80.0664215  26.9209366  30.7243481  80.1429443
  27.5614777  32.0884590  80.2839813  47.1584206  36.9827309  11.0418301
  47.9443932  36.4780540  10.8326015  46.4608765  36.5574570  10.5430269
  70.8475037  59.3042603   5.5216885  70.5538330  59.3429909   4.6114731
  70.0436630  59.1866951   6.0279055  56.4826164  40.3120613   6.4202704
  57.1961594  39.8771667   5.9534178  55.7905312  40.4062920   5.7657714
  58.4345436  49.2479591  23.4708195  58.6011963  48.3350983  23.2360058
  58.0525246  49.2038879  24.3473759  32.9757690  50.7826347  88.6397476
  33.7323723  51.2623405  88.9768906  33.2574806  50.4627419  87.7826996
  61.6908989  34.8639374  71.9358368  61.5329933  35.7050819  72.3645248
  61.9611740  35.0950394  71.0471420  60.4126511  48.4011650   4.6871786
  60.4102364  47.8190918   3.9272974  60.4846115  49.2802277   4.3152905
  32.2804871  58.7705841  17.7238674  32.6076088  59.5984230  17.3718643
  32.0827141  58.2428207  16.9501858   0.7665108  34.5901070  22.4686871
   0.1411711  33.8698502  22.3885994   1.1453903  34.6767235  21.5939426
  41.0988388  16.7736244   3.4572544  40.3324890  17.0614510   2.9611754
  40.7574883  16.1198273   4.0673876  34.6419411   8.2134466  13.4125109
  34.4635773   8.6689873  14.2352514  33.7784271   7.9575567  13.0883341
  78.6541138  69.1024170  64.5312729  77.7646408  69.3971939  64.7266541
  78.6093216  68.1482925  64.5934906  23.7135830  21.1225033  80.5493164
  22.7935867  21.3843842  80.5847931  24.1165237  21.7446690  79.9436874
   7.3583980  57.5963783  22.7876110   7.4007802  57.8497124  21.8655167
   7.2662010  58.4241066  23.2594128   8.7877798  65.6701736  54.0038643
   8.7198305  66.6249542  54.0030289   8.8702841  65.4367371  54.9284935
   8.8541250  15.3014536  64.4638443   8.9550362  14.8628340  65.3086243
   7.9189367  15.4971094  64.4057541  81.8426208  19.1892967  12.4087496
  81.8181000  19.4473190  11.4873085  82.6288452  18.6487198  12.4852638
  83.3994370  49.4701614  29.9566765  84.2022705  48.9859428  29.7637768
  83.7031250  50.3074875  30.3072338  82.5476456  15.6122093  50.7986641
  82.4806671  16.0289154  49.9395332  82.9601669  16.2736282  51.3541641
   8.6808271  37.4846497  61.1761589   8.6934061  37.3210068  62.1191826
   9.5562048  37.2370758  60.8784103  39.4018669  19.5559177  63.7516632
  40.1307335  19.1873569  64.2508087  39.7649384  19.7163391  62.8806419
  46.4494743  56.5371361  69.1514816  45.6829491  56.9769135  69.5192719
  46.1557999  55.6409416  68.9876938  71.3703690  16.1372013  30.4779892
  71.9718323  16.8708878  30.6051712  71.6397781  15.7480974  29.6459713
  70.1993332   9.7797956  65.6545181  69.8913727   9.5041189  64.7911606
  71.1426926   9.6187744  65.6349869  15.7347584   2.5748398  29.8337154
  16.5866833   2.2012432  30.0592823  15.1223755   1.8442632  29.9201794
   3.5952790  59.3857536  69.9718399   2.9996972  59.6905518  69.2872849
   4.2688413  58.8941727  69.5018463  39.3267059  27.1735058   2.1904151
  39.9388123  26.9634552   2.8957059  39.3457146  26.4050655   1.6200018
  79.7866135  12.6237736  34.5006561  80.1937714  11.7718458  34.3435936
  80.3812027  13.0652514  35.1071091  46.6796989  26.3365059  62.9073486
  46.2914276  26.5864887  63.7457924  46.7851868  27.1630840  62.4363174
  48.1019974  59.0663605  69.7665405  48.1115265  58.3585014  70.4108047
  47.9507332  59.8580856  70.2828064   9.0409117   9.3153229   0.8395021
   9.5269775   8.9881687   0.0825728   8.8438978   8.5326624   1.3541472
  23.1861172  67.3018494  74.5911713  24.0689507  67.6509476  74.4688416
  22.6826286  68.0392532  74.9360809  63.5622559  15.2538214  56.9989052
  63.2320061  15.0770197  56.1180458  64.3238907  15.8168592  56.8606110
   6.1806564  34.2614975  52.0788383   6.6191626  33.6500435  51.4871750
   6.1721125  35.0915375  51.6021881  74.4835129  15.2350054  13.7328320
  73.6591797  14.8304663  14.0031319  74.9141235  15.4729052  14.5539351
  58.7543678  23.1360798  18.5755596  58.0888939  22.6273155  18.1123791
  58.4091072  23.2300472  19.4633656  43.0136108  37.7830467  15.2884607
  42.9357948  37.4596138  14.3909273  43.9565163  37.8585548  15.4349394
  38.4646492  58.3927803  53.3717384  37.5088768  58.4167595  53.4181404
  38.6858139  59.0050850  52.6700249  17.6623383  40.5279045  14.5171299
  17.0138836  40.4415932  15.2159071  17.3545437  39.9364357  13.8303556
  51.8995552  22.3805599  50.6339417  52.5000954  21.8305969  51.1370583
  51.5090866  22.9652519  51.2834816  47.7605629   2.0096126   2.3684440
  47.2009506   1.3614314   2.7961447  47.1901321   2.4320667   1.7262810
  69.8593216  63.0921402  61.3131905  70.2527237  63.9509010  61.4681053
  68.9341049  63.2102242  61.5282555  43.2032280  49.8732300  70.0864105
  42.5236015  50.5227737  69.9063110  42.7947998  49.2632561  70.7006989
  63.7110863  10.5486965  49.6156273  64.3982773   9.9525957  49.3178558
  63.9975090  10.8293095  50.4847946  37.3553162  70.3014450  27.9545670
  37.1674614  71.1941147  28.2445412  36.8057899  69.7485352  28.5100384
  74.3583527   8.1498575  87.5300674  74.9699478   8.8023396  87.8713150
  73.9523697   7.7712183  88.3098373  83.9656296   1.9570328  42.2091026
  84.0886841   1.6742513  41.3029442  83.4475708   1.2588735  42.6096268
  58.7505798  27.8581638  30.1052761  58.8753967  26.9963531  30.5026894
  58.2649307  28.3568344  30.7623196   6.4438438  48.2530708  12.9781113
   6.2330294  48.9321175  13.6189575   5.8082800  48.3824806  12.2741632
  46.2408447  16.3961964  85.2236404  46.0310059  15.7619410  84.5381393
  47.0648689  16.7919197  84.9397049  64.7219543   5.6900973  74.5857544
  63.7706146   5.6888208  74.4800186  64.9415283   6.6038933  74.7674026
  51.8591270  29.6649227  40.8284607  52.1396103  30.1445522  40.0490265
  52.0522842  28.7489910  40.6284828  20.5887737  58.4929123  71.7721710
  21.4423161  58.5236969  72.2043228  20.3957157  57.5590363  71.6894989
  76.8068237  43.5728226  30.8063869  77.4982147  42.9332466  30.9771233
  77.0839310  44.0169029  30.0049896   2.6870823  33.5905418  48.9256248
   2.1957183  33.8446198  49.7068024   2.7633624  32.6385460  48.9897575
  31.3926086  45.0204010  22.1222324  31.2368279  45.7442017  21.5155392
  30.6033230  44.4823532  22.0608807  17.2918339  28.2108955  88.1100311
  16.7252617  27.5070496  88.4259949  18.0877037  28.1320686  88.6359711
  20.1467266  54.2480507  23.0338745  19.3908596  53.9275093  23.5259609
  20.5701103  54.8712730  23.6242771  19.4960136  59.2642250  68.8857574
  19.8115921  58.5338058  69.4178543  19.6958656  59.0084534  67.9852676
  82.5687485  42.1446762  47.2056770  82.1193008  41.5155754  46.6413498
  83.3701096  41.6954613  47.4744835  21.3759613  68.6007233  76.9292450
  20.6391048  69.1280518  77.2377930  21.0091534  67.7251282  76.8066711
  70.1301956  16.9967976  78.6292038  70.6230316  17.6178970  78.0929337
  70.5757446  16.1599922  78.4969864  44.6847992  63.4874229  32.9460526
  43.8111458  63.2586670  33.2632751  45.1478729  62.6512070  32.8956642
  55.1997795   8.4538946  40.2120018  55.9455338   7.8565011  40.1553726
  55.5889435   9.3274212  40.1703377  18.2843781  45.3926888  25.9131470
  18.2932224  45.2428207  24.9677925  17.9304142  46.2765007  26.0122356
  78.3607635   9.7273922  71.5169144  77.4269562   9.6100788  71.3423386
  78.7082062   8.8370562  71.5699768  60.1271629  47.9852371  43.5594482
  59.6562729  47.7115021  42.7723274  59.4981575  48.5236282  44.0397797
  40.4646988  63.4111977  62.6458664  40.1497726  62.5084000  62.6906929
  41.3768463  63.3611488  62.9317245  43.6321564  13.4761620   2.5255871
  43.7405777  13.2691870   3.4538312  43.2976036  12.6676893   2.1374123
   4.9163747  12.7069950  53.5040283   5.5085888  13.0908184  54.1507072
   4.7320518  13.4214449  52.8942604  83.4175720  62.9676132  60.2713509
  84.2458649  62.9746208  60.7510643  83.2576447  63.8864937  60.0561523
  78.8134918  63.3402481  55.7495422  79.5808868  63.7885818  56.1049767
  79.1139984  62.4469185  55.5825348  79.9395981  24.7140102  40.2815819
  80.5009079  24.2804832  40.9244003  80.4838257  25.4146671  39.9222412
  29.6186485   8.3110886  80.2487183  29.0900612   8.8821764  79.6913223
  29.2701569   8.4470406  81.1297989  63.1088028  36.1808968  65.6255493
  62.2620201  36.5635338  65.3958130  63.7514496  36.8234711  65.3249893
   5.9549327   3.6967649   4.7923579   6.2169113   3.4638596   5.6830621
   4.9982381   3.6708694   4.8095822  53.8967590  70.0114136   2.3725522
  53.3411751  70.5065079   1.7705216  54.5496368  69.5959549   1.8091921
  82.9115601  17.8747025  15.5172024  83.7017517  18.0252800  16.0360107
  82.1979523  17.9007721  16.1546268  76.3768005  21.8907413  39.4227448
  75.6553116  22.1361275  38.8435478  76.2339630  20.9615517  39.6028366
  37.8525276  26.1627235  75.7705765  38.6933174  25.8171635  75.4707565
  37.8340759  27.0629864  75.4458923  76.2745667  51.0358925  24.0194798
  76.4592361  50.9324379  24.9529819  77.0305176  51.5129967  23.6772175
  51.9416199  69.1489944  19.2339783  51.8020821  68.2194672  19.0530262
  51.3231544  69.3518524  19.9358234  56.6042061  30.1874485  28.6187420
  56.5108414  30.4877892  27.7146893  57.2170296  29.4540768  28.5654087
  70.2575455  13.6581259  47.4370880  71.2055283  13.6901073  47.3084641
  69.9962234  14.5750856  47.5215225  15.1086102  70.1192169  71.1357346
  14.6188879  70.7348480  70.5903931  15.7585411  70.6606369  71.5837021
  10.6364222  45.1507454  59.7849159  10.0641222  44.8131638  59.0959015
  11.5157919  45.1051025  59.4096069  75.7483368  30.8642426   3.1030152
  76.3231735  31.0025654   2.3502443  75.5553665  29.9268169   3.0879631
  69.5118637   2.6850953   1.4031587  70.2094116   3.1229141   0.9153322
  68.7122116   2.9008138   0.9233039   2.4998291  47.2544937  47.9974136
   3.0109341  47.5239029  48.7605782   1.9024014  47.9854164  47.8390884
  70.5818863  65.2439880  56.2711678  70.3994980  64.4076843  56.6996155
  70.9149017  65.0026779  55.4068146  20.4825764  45.1466370  81.2133179
  20.3124619  45.8699493  81.8167419  20.2616863  44.3607521  81.7131424
  15.5454636  47.1031685  26.3130417  14.9139910  47.4481773  25.6818161
  15.5312023  46.1563721  26.1730194  18.5439949  46.9785500   7.2108955
  18.4225311  46.0384598   7.3439760  18.0308971  47.1778564   6.4277992
  75.5705643   9.3191071  47.5130959  75.3459625   8.5956039  48.0981827
  75.6622772   8.9111872  46.6520348  19.3587074  62.2448006  67.9063568
  19.2550316  61.2936554  67.8779755  19.1609344  62.4803467  68.8127975
  52.1910896  14.7954998  57.6058540  52.8878632  15.0062141  58.2274132
  51.5848579  15.5337811  57.6663132   7.4962425  58.9644165  13.1627111
   7.0951014  59.3833389  12.4012508   7.9926462  59.6641312  13.5872326
  17.1274090  57.3814659  32.4234657  17.9641342  56.9232674  32.3448753
  17.1614628  57.7961502  33.2855072  56.7888641  23.1475716  26.8424454
  55.8635559  23.2700443  26.6302147  57.1687279  24.0233326  26.7718925
  63.0745964  39.8823471  69.6504135  62.5877762  39.5205345  68.9099197
  63.9003677  40.1823845  69.2705307  76.1062241  59.8386192  65.9472351
  76.7089920  59.9494476  65.2119751  75.6714478  60.6873016  66.0305328
   6.7270713   5.7869325  53.2135429   6.2013669   5.8177538  54.0128670
   6.6955118   6.6803832  52.8715172  41.9350090  71.0132294  78.9949722
  42.3409653  70.2138977  78.6595688  41.7798119  70.8322449  79.9220047
   9.8374691   2.9188919  65.9736023   8.9939613   2.4913421  65.8255157
   9.6213312   3.8455746  66.0774002  72.2984085  51.4796257  73.3941956
  71.5505676  52.0471306  73.5810471  72.4338760  50.9875488  74.2039795
  68.3248749   7.8108091  12.4910069  68.3913422   7.6182375  13.4262762
  68.9836426   7.2486367  12.0833082   7.3557405  58.3680191  48.4869614
   6.5330520  58.2066536  48.0250320   7.9738698  58.6107597  47.7975960
  37.5210724  50.5195465  44.5919380  37.6130371  50.9166183  43.7258492
  36.9385185  49.7729416  44.4524918   1.3748451   3.1640069  53.5146103
   0.8939263   3.8928144  53.9067688   0.7766995   2.4195726  53.5799637
  63.5744629  33.4887848  55.1234131  62.9438972  33.1158638  55.7394905
  63.4405861  32.9942207  54.3148880  54.8706207  67.4103775  14.8869715
  54.5118904  67.3783188  14.0001144  55.1124153  66.5046539  15.0804224
  69.5859756  45.3462830  34.2225494  69.0123367  44.8334999  34.7919617
  68.9942322  45.7511368  33.5883789  86.5683212  55.1793175  26.5160923
  86.2122803  54.3058167  26.3534298  85.9444122  55.5838356  27.1188660
  41.2530861  46.3023605  67.7104874  40.5052719  46.3878975  68.3018341
  40.9907684  46.7779121  66.9222794  19.0190220  10.2709312   1.4714826
  18.5101585  11.0346184   1.7436439  19.7388554  10.6342077   0.9556333
  81.8880768  29.5696754  85.5669785  82.2591934  29.9298553  86.3724365
  82.5311508  28.9236050  85.2749481   3.8110087   6.7629380  68.4185562
   4.1871529   6.0563059  67.8937531   2.8685551   6.5961604  68.4044800
  54.1227074  24.0724449  25.9883938  54.2714920  23.8523808  25.0687923
  53.2497673  23.7289295  26.1786709  57.7050285  19.5245342  42.1937408
  58.3752670  19.4384232  41.5158043  57.4417458  18.6245480  42.3859367
  66.9629440  12.7846498   1.3990964  66.3637009  12.7608061   2.1451361
  67.4564667  11.9669075   1.4620674  66.7032700  46.5596924   4.3035917
  66.2317886  46.3737259   5.1155963  66.8768616  45.6979866   3.9246986
  59.4674377  36.6260300  13.2679577  59.5587044  35.6745682  13.2167768
  59.4177055  36.8117752  14.2056456  65.0050507  46.4653931  27.8871861
  65.4179764  47.0575829  27.2586651  64.1678848  46.2346268  27.4845257
   3.1513891  52.1646309  47.5751038   3.7335353  52.2383537  48.3313484
   3.4415965  51.3707428  47.1259384  85.4285889  18.9511776  88.1503372
  86.2611313  19.1291809  88.5878525  84.7638931  19.2648430  88.7635422
  84.8838882  34.1916199  59.9752274  85.4982224  34.5589256  59.3396873
  85.1979523  34.5078888  60.8223228  75.7316666   8.9288206  65.6895370
  74.9358063   9.3442192  65.3574371  75.4720917   8.0258245  65.8724365
  79.2023544  18.2663040  34.8568764  79.7143402  18.1085567  35.6501083
  79.4676514  17.5684433  34.2578430  34.7128983   2.4852993  12.9563866
  35.0927353   3.2572711  13.3759279  35.0683784   2.4963758  12.0677118
   7.7428093  21.6596146  73.7214661   7.2763991  21.3521137  72.9442062
   7.7901425  22.6093864  73.6122818  82.3841782  39.9671555  56.5630646
  83.1954269  40.4741974  56.5312004  82.4865417  39.3992119  57.3267403
  66.3167648  43.7657356  64.2396698  66.7645187  42.9293175  64.3667526
  66.1542892  43.8096886  63.2973900  40.4612312  20.6027336  60.9433250
  40.7954979  21.4488373  61.2409935  41.2457352  20.0782986  60.7828445
  82.6386795  61.5879021  21.2687321  81.8792801  62.1704597  21.2556210
  82.2991638  60.7594032  21.6071815  58.5487480  26.5374680  47.7689400
  57.9990807  27.2896500  47.9887619  58.9409294  26.7655869  46.9260941
  41.5257187   5.5245504  18.7283058  41.7863426   6.0912356  18.0022373
  40.6282234   5.7899504  18.9290447  30.9573116  56.3383102  21.0053673
  30.8154545  55.4941216  20.5770512  31.7060585  56.7175560  20.5451698
  43.2341309  68.8358383  84.6550140  43.5124359  68.4125519  83.8428497
  43.8886986  69.5176773  84.8062363  60.7018127  53.7632179  81.1314850
  59.8132896  53.5337296  80.8592834  61.2680473  53.2191925  80.5840836
  45.9369621  23.9083290  86.1057434  45.2004128  24.3214760  85.6551514
  45.6530457  23.0058422  86.2511520  19.9337978  41.1125870  16.2615929
  20.4003906  40.3420029  15.9379826  19.4585781  41.4425926  15.4990339
  73.3511429  28.3317966  64.7943649  74.1471710  28.1228237  65.2831345
  72.9524231  29.0521107  65.2826309  43.5185204   2.5470994   6.1986094
  43.1313400   2.5399384   5.3232393  42.9479141   3.1224012   6.7081857
  14.2644567  25.5675125  10.3161802  14.4479313  25.7501850   9.3946600
  14.8971395  26.1013584  10.7967567   4.9110594  48.1674767  55.7996788
   4.5619969  47.6569862  56.5302887   4.8538179  47.5787048  55.0471497
  23.6677589  43.1192131  25.1874084  22.9436207  43.7142715  24.9930916
  24.3071632  43.2858925  24.4948673  41.9310074  33.4844475  16.7356148
  42.7130165  34.0003815  16.5393772  42.0706291  33.1679230  17.6281090
  79.0448914  46.5257339  19.6443501  79.5735168  47.2599106  19.3316612
  79.2237015  45.8200264  19.0228710  58.6640587  23.9838696  39.4356728
  58.7385559  24.6403961  40.1282425  58.0685425  23.3252010  39.7930908
  57.8281937  13.8416634  81.1867523  58.5969734  14.4118509  81.1966248
  57.5035973  13.8927946  80.2877274  23.9356441  39.4943199  78.2602692
  24.5032864  39.6469040  79.0157394  24.4574585  39.7741928  77.5082016
  59.4922600   9.1625681  46.0680313  59.5017052   9.4684114  46.9750061
  60.1394806   9.7102976  45.6238136  66.3159485  60.3596458  64.4166336
  65.6612778  60.2725754  65.1094894  66.4827576  61.3005905  64.3615952
  14.3719425   3.0789306  81.4938049  14.4560661   2.6083145  82.3230667
  13.4393930   3.0292809  81.2837677  63.3237724  68.9501572  28.0563126
  63.9374466  68.2945480  28.3877010  62.7528801  68.4645233  27.4609356
  73.4635925  43.1693764  22.0632420  72.5447693  43.3548393  21.8693352
  73.8621445  43.0126877  21.2071819  76.9749832  43.3734093  18.4881248
  77.2589417  42.7430344  17.8261356  76.7815094  44.1696053  17.9932823
   8.9114799  53.7497520  79.7893372   9.2812004  53.3465347  79.0038757
   8.0118532  53.4247017  79.8246231  43.0008354  35.6091461  82.6767120
  42.4804764  35.2275696  81.9697037  42.9186134  36.5545235  82.5512772
  84.0733032   5.0602574   8.7027531  83.3085022   5.5960364   8.9131136
  84.1262970   4.4269605   9.4185448  62.4266472   6.7741060  77.0879974
  62.0625572   6.1720791  76.4389725  63.1765823   6.3058786  77.4548645
  54.8351669  26.5532856   2.4216626  54.4346695  27.1175480   1.7602701
  54.3088837  26.6956367   3.2084253  14.3685741  24.1961498  20.3454857
  13.8271904  23.8860359  21.0714092  14.1470356  23.6163845  19.6167717
  83.0748520  36.5040092  32.6825447  83.9019775  36.2539787  33.0943489
  83.0892334  36.0664940  31.8313065  65.9656219  43.5762405  20.8043575
  66.0824738  42.6546440  21.0350780  66.8342514  43.8651085  20.5246067
  36.9802170  32.9769554  15.1563301  36.6371498  32.2890816  14.5859213
  36.5145302  32.8562851  15.9838591  85.9560776  53.2287788  58.3045197
  85.9986572  54.1747017  58.1643372  86.1300049  52.8508263  57.4424706
  85.0536499  66.7229309  26.3190269  85.7757187  66.3438492  26.8201714
  84.5979156  67.2863693  26.9443913  81.5279694  51.6876106   5.4690466
  81.6585922  50.8663864   4.9949527  80.6561813  51.9809990   5.2042255
  58.2500687  61.4563446  55.3681793  57.3907242  61.0348282  55.3773155
  58.5916672  61.2848053  54.4906158  62.3428459  23.6265221  75.5617752
  61.8385544  23.1452789  74.9057770  61.9078598  23.4283047  76.3910675
  15.8508158   9.3222494  84.6166687  15.7662420  10.2301474  84.3254623
  15.1569805   9.2137194  85.2670822  61.1727753  38.6997986  18.6663361
  61.2249794  39.3799477  17.9948406  61.9808502  38.7979012  19.1699429
   1.6425074  11.9126558  85.2304153   1.2636224  11.2745905  85.8350296
   2.3944898  11.4616747  84.8465347  52.5030136  24.8619022  69.8293457
  52.9176025  24.6133823  70.6555328  53.2157249  24.8495674  69.1904984
   1.1988590  24.2677879  19.2278996   1.1101440  24.8393135  19.9906044
   1.2230693  24.8665276  18.4814682  20.4301262  57.6839828  37.6512680
  20.4180546  58.1167793  36.7975883  19.8685799  58.2279434  38.2035408
  47.9644737  35.7609444  19.8006039  48.2290649  36.2612915  19.0286751
  47.5679474  36.4096375  20.3821526  69.9750824  35.8720627  87.3511353
  70.4228058  35.0432930  87.5211792  69.3672867  35.9707031  88.0839996
  34.5537834  41.6773453  20.8128395  34.5445633  41.8955956  19.8808994
  33.6388626  41.4919891  21.0244865  67.3689804  63.9102402   4.3758769
  66.4844818  63.5887413   4.2011456  67.4268417  64.7304688   3.8858728
   0.0782349  38.2403946  50.6579285   0.9711637  38.0168991  50.3953285
   0.1405492  39.1408882  50.9764595  58.2718086  49.9601135  44.6323891
  57.6660461  50.0473022  43.8963966  58.3953629  50.8552132  44.9482346
  60.3855286  64.0225525  76.1488419  60.8695221  63.2999420  75.7490616
  61.0602646  64.6546631  76.3966217  53.7355766  66.5975342  38.0442085
  53.3761597  67.4650116  37.8583908  54.6830177  66.7089691  37.9656715
  41.2662354  35.0083427  54.3542404  41.3662796  35.9407921  54.1625061
  40.7736931  34.9840126  55.1746330  63.5450478  40.7692871  57.4091530
  62.9777756  40.1427727  56.9598007  64.2583847  40.2368660  57.7611542
  34.5902405  15.6797428  78.0133133  34.1398735  15.1154709  77.3848267
  35.4098015  15.9158697  77.5788040  47.3932419   1.3669022   6.8649573
  47.1026154   1.9339210   6.1506338  47.1441040   1.8371818   7.6605697
  73.1339569  28.3639927  72.8318558  72.2275391  28.3554802  72.5243301
  73.6583633  28.3796825  72.0312424  42.9541168  54.9595757  80.7881622
  42.3035202  54.2645378  80.8875351  43.0816460  55.2968254  81.6748581
  56.0783463   6.1629319  64.7130432  56.3367195   6.6773734  63.9483032
  56.3179092   5.2637177  64.4888687   4.4179349  41.2014961  62.4142990
   4.6902962  40.4684830  62.9663315   3.4642704  41.1297340  62.3742218
  13.6334229  24.7146873  76.1469727  14.1399803  25.4896221  76.3900986
  14.2338028  24.1936741  75.6137543  21.8175087  53.6391373  77.1056976
  21.9789848  52.8157539  76.6450500  20.8662148  53.6751213  77.2055969
  34.2958221  70.7104568  20.1214886  34.1776505  69.8120728  20.4299812
  35.2213173  70.8977814  20.2783489   2.9074068  41.6295280  36.4619904
   3.7009110  41.5656242  36.9934959   2.4003465  40.8515587  36.6941185
  25.3663502  68.5487976  50.4110947  26.2329140  68.9496078  50.4792786
  25.0342617  68.8392944  49.5616455  51.8870697  66.5594559  51.3594589
  52.1334000  66.9629822  50.5271606  51.4516716  65.7441025  51.1107445
  44.3246613   0.0696573   7.3797250  44.1370316   0.8340553   6.8350029
  44.6199036   0.4361735   8.2132301  20.8193264  33.7190552  14.1480293
  20.9637852  34.6605225  14.2429152  21.6493626  33.3216438  14.4113369
  81.8703766   7.8296895   2.0440419  82.3372345   8.1236038   1.2618091
  81.0613785   8.3413057   2.0465267  17.5591373  53.9484901  24.5408192
  17.1420727  53.0924568  24.6382504  16.8546467  54.5261078  24.2470798
  25.6131268  65.3918304  74.1281967  26.4609241  65.0802994  73.8113098
  25.8004684  66.2494812  74.5097351  80.6516113  37.3829002  14.4107647
  80.9437943  36.6115074  13.9251661  80.0510635  37.8286858  13.8133879
  26.6852055  36.5827217  55.3334656  26.5222664  36.1785927  54.4811974
  27.6389561  36.5969086  55.4133987  10.9868746  59.1874390  35.3030319
  10.4236221  59.2240715  36.0760994  10.4124613  58.8780746  34.6026192
  76.9385910  15.9593372  78.8568497  77.8417587  16.1969128  79.0668106
  76.8559723  15.0512104  79.1479034  11.0617237  31.3566628  36.2271080
  10.4531441  30.7767220  36.6848564  11.1006470  31.0081482  35.3364601
  61.4405327  38.1779671  39.6287041  60.6416512  37.7247658  39.8981972
  61.8500595  38.4502678  40.4499054  79.8377380  60.6648216  39.8006134
  79.3730469  61.2145958  39.1697044  79.4111099  60.8478432  40.6377068
   7.5090113  65.8579407  49.6428375   6.7814226  65.2665176  49.8353539
   7.4438958  66.0193024  48.7015839  57.8612938  36.3803749  72.9156876
  58.4646835  36.0244293  73.5679550  58.4214783  36.8690071  72.3126450
  38.0421486  19.7452717  66.2272263  38.4615440  19.9041977  65.3815994
  38.1316490  20.5736465  66.6984100  51.0991592  29.0327320  57.1493492
  50.6296387  28.7979546  56.3489342  51.8569756  29.5319328  56.8448181
  72.4970932   9.5454674  73.7356644  73.1843872   9.1433096  74.2668228
  72.5186005   9.0617399  72.9099655  86.1459808  63.4268265  75.1712646
  85.8698578  62.7233353  75.7587051  85.3524017  63.6632080  74.6910629
  44.0657234  34.6371002  88.4170685  43.8790550  33.7066422  88.2920380
  43.2990913  34.9750938  88.8799591   5.6527910  70.2810593  83.3099289
   5.0589571  69.7193985  83.8080521   6.3793101  70.4524994  83.9091110
  31.1941261  64.7399750  64.8063812  31.1511841  64.2366943  65.6194611
  30.2872639  64.9922867  64.6326981  48.5673714  19.7520447  65.4071198
  47.6994553  20.1260471  65.5590286  48.4087563  19.0057545  64.8290863
   7.4936218  34.5259895  37.2337151   7.8274112  34.6838989  36.3506050
   7.1222425  35.3660507  37.5031662  45.9473724  53.9910393  15.2053833
  45.3787422  54.6187325  15.6513615  45.3814774  53.5753670  14.5548353
  27.2643700  53.9400673  23.8903408  27.0605431  54.2869720  23.0218105
  27.6422291  53.0770760  23.7209377  68.3792038  14.7602139  44.5767441
  67.8674240  13.9691267  44.7455444  69.2858047  14.4554539  44.5389938
  83.0273438  63.3882828  52.0224915  83.8872223  63.4469299  52.4389076
  82.4245834  63.7650223  52.6635628  79.3447952  13.7225628  28.7438450
  79.1968842  13.2386131  29.5563393  79.3352585  13.0522013  28.0606480
  74.4900360  67.8400650  18.6644592  75.2907791  67.7336578  19.1780014
  73.9898682  67.0414124  18.8324280  18.5151234  55.8154793  75.1890106
  18.1034107  56.6040993  74.8357391  18.1032085  55.6928596  76.0443039
  22.0862198  58.8566856  17.7646446  21.5127373  58.3137207  17.2237759
  22.8635998  58.9964714  17.2239304  22.1444092  48.7255096  35.4409447
  22.3530807  49.5035667  34.9239235  22.3500347  48.9744797  36.3420372
  13.9409218  70.0398254  88.1877289  13.3018770  70.3340378  88.8368073
  13.4435349  69.4661789  87.6048355  21.1841927   1.3444166  76.1081924
  20.3639545   1.6077514  75.6909485  21.6858864   0.9270108  75.4079742
  69.5846024  41.7998123  36.8230476  69.4165649  40.8646469  36.7070274
  70.4786911  41.8422356  37.1622086  48.8716011  50.3828506  36.5039558
  48.8505783  49.9032021  37.3320427  49.3806305  49.8242798  35.9164848
  47.0343132  30.1100292   4.7216926  46.4833488  30.6584892   5.2801375
  47.8187103  30.6366196   4.5678744  78.6261826  70.7873459  58.1073380
  79.4724503  70.8575974  57.6656151  78.0753098  71.4397507  57.6747398
   0.9914770  25.6979656  75.5922394   1.0298088  24.8694935  75.1143341
   0.7900040  26.3516312  74.9226456  10.6413765  24.5116940  14.4630146
  10.9791641  24.9866982  13.7037363   9.8474674  24.9865685  14.7088470
  74.8017349  12.1293192  62.8377037  75.5702515  12.1225777  63.4082870
  74.9049835  11.3527708  62.2876625  50.7400017  36.4610596  20.7342930
  49.8014984  36.2729225  20.7275543  50.8087997  37.3490067  20.3835106
   0.6927775  37.7520180  39.0687485  -0.1191566  37.2460594  39.1003761
   0.7123836  38.2256584  39.9003181  80.5941849  50.9666557  75.1590652
  80.8759460  50.1202202  75.5060349  80.8575287  51.5991707  75.8274994
  66.3295822   0.2757931  61.9646835  66.3875580   0.6159096  61.0718269
  65.3946228   0.1243344  62.1030502  53.4690475  42.2509804  53.6398239
  54.2834587  42.5988464  54.0030823  53.1161194  42.9681396  53.1131783
  70.7331390  10.0536995  33.7175903  71.4435501  10.3152599  33.1318130
  70.9977112  10.3826046  34.5766907  26.6525154  43.1873055  26.4644508
  26.2008438  44.0283127  26.3942318  26.0006390  42.5960350  26.8408623
   1.6440542  53.8656578  63.7481689   1.8095247  53.2221222  63.0591736
   1.0633131  54.5084763  63.3410339  13.9634371   3.7541525  74.1835709
  13.1199150   3.8089950  73.7344666  14.0964603   4.6279917  74.5509109
  14.2221746  47.5962105  74.6526794  14.3785839  47.7397041  73.7193146
  13.3675346  47.1666756  74.6890564  47.4088249  69.6220856  43.3855667
  47.7257614  68.8480606  42.9201012  48.1891060  69.9865036  43.8034172
  42.6621933   5.5806818  43.4019432  42.3936882   4.7233405  43.7322502
  41.8423080   6.0123224  43.1617317  68.9595871  44.0475388   4.9583440
  68.5719986  43.5040169   4.2723513  68.8385620  43.5415649   5.7618203
  18.1532822  51.6786041  86.6741562  18.1863747  52.5775757  86.3470688
  17.8143406  51.7603989  87.5655899  23.0592899  62.1633873  15.0593500
  23.6883469  61.9967651  15.7613163  23.3607655  61.6176453  14.3330507
  22.0650387  38.3744049  87.6205368  21.2826805  37.9590034  87.9832840
  22.4928608  38.7793808  88.3749847   1.0892237  58.9883537  75.7063217
   1.7793729  58.6204910  75.1544189   1.0775244  58.4267807  76.4813919
  75.1474915   5.4335208  40.9909325  74.6360703   6.1590495  41.3491135
  76.0515900   5.6361670  41.2312737  40.4972343   1.7644110  79.0250015
  41.0601654   0.9905966  79.0014572  40.6165466   2.1735635  78.1679230
  36.8086662  43.9028015   7.6355243  36.7138863  44.8020630   7.3215594
  35.9107971  43.5800743   7.7124357   4.4171863  52.3697548  13.9927988
   5.1009259  52.1525269  14.6264734   4.4264231  53.3259010  13.9488125
  63.5233994   8.1533833  60.5700188  62.7215729   7.8935013  61.0236320
  63.2513313   8.8663158  59.9921417  34.7940025  46.2822990  86.4977493
  34.1099434  45.8110275  86.0221481  35.5992012  46.0813866  86.0207520
  15.9416733  54.7904625  85.5932693  15.4128189  55.2705345  86.2305145
  15.7024488  55.1710930  84.7482147  12.7670832  31.7853775  55.4938660
  13.6063328  32.2380753  55.5772629  12.3623524  31.8702316  56.3571281
  81.7696686  10.8543167  26.2785797  82.6703033  10.5363750  26.3418293
  81.7768097  11.6888647  26.7473125  63.4826775  27.8108940  74.6819305
  63.4050941  28.6868534  75.0599670  62.5800247  27.5010338  74.6082153
  73.7639084  41.2402496  24.9753799  74.4458237  41.8993645  24.8457870
  72.9495163  41.6911507  24.7524700  30.8479366  34.8101540  65.4704132
  30.3146362  34.2498131  66.0341873  31.4491768  34.2071762  65.0331955
  85.5214462  63.9681587  53.2780304  85.9034348  64.5741577  52.6431465
  85.7098236  64.3630371  54.1293907  56.5984497   3.3765671  45.8105965
  56.1839790   3.1074069  44.9908447  56.2174377   2.7994430  46.4724045
  30.5930977  10.7491455  81.9975052  31.1991482  10.5418739  82.7088242
  29.7954254  10.2664375  82.2141647   6.7228608  39.3199501  50.0017319
   5.8045921  39.5900764  50.0085258   7.1980982  40.0782089  50.3414726
  66.4628754  56.7132111  60.8332558  66.8467407  56.3227806  61.6183968
  66.6424866  56.0797882  60.1384544  48.5301743  47.0026474  81.2525864
  47.8960457  46.9219017  81.9650345  48.1687851  47.6846237  80.6864243
  78.5015259  34.6983833  52.2559967  79.3795853  34.4147339  52.0014610
  77.9177856  34.0440369  51.8721848  40.3426971  29.5206375  77.9659805
  40.3997154  30.4549446  77.7658539  39.4848061  29.4157352  78.3773880
  33.1181107  40.8443832  87.2465591  32.4672165  40.3699265  86.7293854
  32.6023178  41.4226761  87.8084869   1.0481408  17.2112656  10.6244907
   0.2861626  16.6643047  10.4335604   1.0967878  17.2290020  11.5802889
  60.6119995  37.7847748  64.3943558  60.2917137  38.5683136  64.8412476
  59.9089851  37.1439743  64.5010147  31.4244957  22.0992241  82.4450302
  31.3285046  22.7203846  81.7231064  30.6216259  21.5785789  82.4213791
  35.5959740  30.6066895  81.3865509  34.6431274  30.6669483  81.4550018
  35.9016800  31.5065613  81.5006027  74.1789017  42.6464729  14.6049604
  74.4872894  43.5367737  14.7737598  73.7101517  42.7091179  13.7727432
   2.8431828  66.4883423  18.3178101   3.3312416  66.5074005  19.1410160
   1.9511535  66.7346268  18.5624733   6.4746947  55.0051155   7.5872464
   6.9982166  54.2175102   7.7350154   6.9427509  55.6954422   8.0569353
  43.2767296  22.0700207  27.3982925  42.6516838  21.4766273  27.8147449
  43.3829765  21.7228775  26.5126095  55.4108810  58.1136093  61.4397659
  54.5934753  57.6522331  61.2521172  55.2222633  58.6245346  62.2269173
  69.0160446  49.5336800  54.1055298  68.5792847  49.8418808  53.3115005
  68.4434433  49.8159142  54.8187675  54.9408646  12.8048515  18.7114544
  55.6823463  12.9293165  19.3038559  55.2393875  12.1404772  18.0903893
   3.0407007  68.3410339   0.4417112   2.4446068  69.0896378   0.4638723
   2.9558210  67.9934769  -0.4461138  51.6857109   6.1130681  15.4932785
  51.6747780   6.8864503  16.0571880  51.0104065   6.2854753  14.8371782
  11.6292305   0.6969862  65.2294540  11.8337679   0.3893651  66.1124954
  11.0760937   1.4661757  65.3659058  62.6544342  36.1749458  85.9816437
  63.0916862  36.9343071  85.5963974  62.8203239  35.4636421  85.3629684
  79.3693008  57.0245743  83.3869934  80.1829453  57.2009964  83.8593140
  79.1440201  57.8599815  82.9776306  72.3018951  26.0476265  66.9582596
  71.7610626  25.3154812  67.2544022  71.8488998  26.3823433  66.1843185
  59.1885567  15.8535528  31.4381943  59.2432327  16.4731445  30.7106323
  59.5721703  16.3209915  32.1802025  50.2312851   1.5467886   8.5803661
  49.8245354   0.8292137   8.0946980  49.8103905   1.5232217   9.4397402
  46.0430679  43.7042656   2.4637442  45.8313408  44.4948120   2.9601712
  46.9936867  43.7362862   2.3563738  41.5162010  20.0200539   5.7978806
  41.9649544  20.4731770   5.0840659  41.6132812  19.0907230   5.5901570
  14.5074062   0.0854269  58.7754745  14.2084780  -0.6846499  59.2590637
  13.7939386   0.7170640  58.8661995  65.9954147  36.0265579  18.6535721
  65.3871231  36.7648697  18.6868420  66.1211853  35.8617706  17.7190895
  38.2412872  34.6054535  11.7982492  38.0313034  34.8782196  12.6914091
  38.9469185  33.9671173  11.9024048  41.7348785  62.9888649  26.2828655
  41.5792542  62.4082489  27.0277805  41.9084435  63.8434906  26.6774864
  75.4965668  62.5634689  66.4284821  74.8207779  62.3629723  67.0760498
  76.2073669  62.9537621  66.9370651  23.6791325  68.9986572  61.0264244
  23.0673828  69.7300949  61.1100311  24.5446320  69.4071274  61.0436554
  67.3963242  15.0489864  49.4742126  67.8265228  15.6287127  50.1027603
  66.4719467  15.2939196  49.5162354  10.4042110  37.1318626  22.1702309
   9.4922981  37.3445778  22.3687229  10.8154325  37.0175133  23.0269985
  77.4539948  40.6936607  53.7669106  77.6061783  39.7538910  53.8664436
  76.6515656  40.8600616  54.2615356  83.6813049  69.5847397  54.2189293
  83.6521454  70.5139084  53.9908333  84.6146774  69.3745728  54.2485809
  38.6503639  37.3734283  21.9357014  38.0427322  37.7899971  21.3245640
  38.2719498  37.5381470  22.7993584  60.4414558  27.3337021  63.5373192
  61.2492752  27.4417572  64.0392990  60.2835503  26.3896179  63.5379372
   4.4904060  68.1045227  84.5809250   3.7109325  67.9035416  85.0988693
   4.4148474  67.5454636  83.8076401  82.3359833  53.6242523  38.1396294
  83.2280045  53.2840004  38.0705948  82.4470520  54.5705032  38.2318687
  37.7100983  46.0523376  15.4485464  37.2492828  46.8017845  15.0714397
  38.6322670  46.3087502  15.4392033  59.0823555  59.7395172  10.1767015
  59.5499268  59.4793854  10.9703913  58.2056007  59.3705482  10.2834225
  18.0360107  64.0698471  22.1524506  18.8435917  63.5832939  21.9871979
  18.2414494  64.9689941  21.8963985  59.6629715  14.0015192  12.7493553
  60.2700119  13.3732882  13.1405830  59.6917725  13.8104591  11.8118591
  86.0528641  63.9527931  11.7621393  85.3306503  63.5344582  11.2934866
  86.2499313  64.7360764  11.2484570  21.5144196  18.1409912  79.6373749
  20.5794411  18.2241497  79.8248062  21.9098988  17.9263439  80.4822159
  11.0447302  53.9875298  50.0083618  11.5365286  53.9083214  49.1909943
  11.5596037  53.4936523  50.6465034   3.1502419  59.8845520  37.6610069
   3.6711621  60.6670837  37.8413429   3.1969552  59.7794762  36.7107391
  71.7151184  58.4571266  13.9061556  71.6356583  58.0400658  13.0482635
  72.6558990  58.4648628  14.0824919  52.1212883  16.7948742  72.2701035
  52.9629402  16.6453342  72.7007904  51.6064987  16.0137005  72.4725647
  83.3405991   0.7584688  37.1787567  84.1504135   1.1161575  37.5427513
  82.8784409   1.5201018  36.8286743  62.0075188   7.2627692  28.6450615
  61.8257179   6.3552876  28.4008141  62.6965866   7.1993527  29.3064213
  64.6433029  33.7649193   3.0606816  64.9916763  33.1391563   2.4256313
  64.1888351  33.2233887   3.7059996   4.8503714  64.1586380  51.8969154
   3.9902425  64.5096588  52.1275558   5.3465610  64.1837769  52.7150803
  50.9651909  41.6879539  85.5802002  50.4999733  41.4395256  84.7813950
  51.0471802  40.8716583  86.0733261  68.3670425  25.5799999  62.8279190
  67.6891327  25.1884956  63.3787308  68.0304565  26.4507275  62.6163292
  41.9626122  37.0264893  12.9134378  41.5039902  36.9849205  12.0742903
  41.6729507  36.2446938  13.3836794  10.1569510  10.4373455  20.2105198
  10.6876383  10.7319527  19.4703789  10.7926836  10.2470274  20.9003429
  70.6531143  64.2311859  77.3916779  70.1029892  63.4478912  77.3851166
  71.5468140  63.8968506  77.3158417  43.3491516  28.1579609  18.7890434
  43.2478409  28.5627918  19.6504841  42.9951363  28.8038750  18.1777306
  79.8563538  62.1679993  78.4100113  78.9972305  62.0725098  77.9988861
  80.3575439  61.4157867  78.0950317  50.5585823   0.5404813  79.5498962
  51.0361938  -0.2453690  79.8155289  49.6470375   0.3542764  79.7749329
  67.1186218  44.8820572  55.8717422  66.4258118  45.5156631  56.0582809
  66.7265091  44.0323029  56.0727272  23.9266186   9.3455915  35.0723228
  24.4660854   9.4618158  35.8544350  24.4066181   8.7089205  34.5427208
  18.4400997  14.6057873  81.2012711  17.5041103  14.4258509  81.1130676
  18.8324547  14.2237968  80.4161758  81.2480087  68.9748764  68.3270874
  80.4065170  69.1971817  68.7254715  81.2316208  68.0209808  68.2492981
  73.7889099  42.4323883   7.5762362  73.0149231  42.0767441   7.1395473
  73.8128052  41.9858437   8.4225569  57.9708061   9.2827377  63.4480705
  57.7658768   9.7002649  64.2846756  57.1894264   9.4221554  62.9130516
  18.3492661  19.6039906  27.2636356  18.0602932  20.1837425  26.5589256
  17.7921696  19.8345547  28.0070839  57.8036842   6.7336607  84.3837891
  57.2924232   6.5425797  83.5974503  57.1504974   6.8280640  85.0770950
  32.3323250  18.0566635  13.8826418  32.9959526  18.7370892  13.7692814
  32.4332924  17.7726078  14.7911301  33.0151482  59.3100548  88.8647385
  33.3783035  58.5259056  88.4530869  32.8695259  59.9162712  88.1384277
   7.2634130  66.3475418  34.4518166   6.9220963  67.2260818  34.6188431
   6.5035934  65.7732544  34.5472183  36.4105148  61.1465073  75.8955612
  36.4010162  62.0998878  75.9804688  37.3395615  60.9178085  75.8673248
  69.6197739  10.1718311  42.7390175  70.4070587  10.6144791  42.4220276
  69.9334564   9.3269606  43.0615501  56.2070770  17.0611820  59.2143288
  55.3855247  16.5978355  59.3774147  56.0382538  17.5780334  58.4265518
  73.8436737  29.6265068  85.2046585  74.2468872  29.3975525  84.3672638
  73.8318939  28.8058109  85.6971512  60.8230324  57.3895988  69.6066437
  60.1487808  56.7453423  69.3908920  60.6242867  57.6524925  70.5053177
  27.8297920  38.8096848  32.2848625  27.9694595  37.9108276  32.5828247
  28.4786606  39.3245773  32.7645378  50.3128128  32.9630661  65.3429794
  50.1164818  32.6258163  64.4689407  49.9047432  33.8286972  65.3629379
  60.6523819   2.7003193  83.9993896  60.3916245   3.5275424  84.4042816
  60.0289078   2.5769746  83.2836380  14.0290012  41.3498306  34.3530426
  14.3365612  41.4398193  35.2550087  13.2483320  40.7999992  34.4199181
  63.1696587  51.8204994   5.4162707  62.2149277  51.8889771   5.4108768
  63.3577881  51.1469231   6.0698233  73.5225296  31.8351803  82.2589111
  74.3336792  32.0904770  82.6983261  73.7475281  31.8235054  81.3286057
  41.5199547   2.8223696  36.5580330  42.1716919   2.4530272  37.1539001
  42.0274429   3.3651400  35.9546394  16.9245319  43.6161003  55.8446732
  17.5423260  43.3234673  56.5146942  16.9768372  42.9470940  55.1620865
  17.6263924   3.0065331  67.5888367  16.7351608   2.6672752  67.5061111
  18.1356564   2.4984291  66.9574051   0.9537798  23.4267673  74.0993118
   1.2424101  23.3004150  73.1954498   0.9409724  22.5452366  74.4720993
  35.3891945  49.3971672  34.8808556  35.1871376  48.6150551  35.3943825
  34.7122498  49.4211235  34.2045403   5.3912668  58.1931572  46.6074104
   5.7919831  58.1055527  45.7425499   4.7732744  57.4640846  46.6600113
  15.2936449   4.2169852  63.3382034  14.6190157   3.5595937  63.5083313
  16.1164722   3.7761123  63.5499077  64.4861298  20.6286564  84.3705826
  65.0519485  19.8817406  84.5660324  64.9712677  21.1320267  83.7167587
  10.4158306  56.0937653   9.9367304  10.7858686  55.4258347  10.5139389
  10.2695351  55.6391029   9.1072044   0.3703312   5.7766643   0.9654987
   1.1368997   5.5498147   0.4390544   0.2515419   6.7157669   0.8233474
  57.7789192   2.9099815  73.7236557  57.2289848   3.1849251  72.9900284
  57.1828766   2.8809400  74.4720764  66.8707199  35.5804100  78.2274094
  67.6541443  35.8949966  78.6785278  66.5778122  34.8331490  78.7489853
  80.4793243  25.3999996  48.7630730  79.6127701  25.0025673  48.8488121
  80.9782791  25.0479546  49.5001907  36.7518997  65.1193542  53.6284180
  36.0507927  64.7503281  53.0912933  37.5373459  65.0351791  53.0878410
  84.3542175  31.2357616  34.8937035  83.8595963  30.7014217  34.2723618
  84.1554184  32.1383743  34.6447029  40.6111221   9.7977571  75.5584259
  41.2296791   9.1135654  75.8143539  40.3327370   9.5512352  74.6764069
  17.8009262  56.1383553  43.7953606  17.2887154  55.7793427  44.5199165
  17.8733177  57.0721664  43.9928131   4.7595863  43.7965813  15.9487562
   4.6529498  44.4627190  16.6278152   5.2505450  44.2377090  15.2555046
  32.1576271  66.6433334  67.3357620  32.5486031  66.0409317  66.7029190
  31.8189526  66.0762863  68.0285721  18.0883770  43.6938705  78.1150360
  18.1805859  43.0350113  78.8032455  18.9833946  43.9851227  77.9408264
  71.0240173  69.4212189   6.6076365  70.3432007  68.7736130   6.4251008
  71.7672729  69.1449890   6.0714350  62.0667038  36.3536263  34.9790916
  62.3207855  36.9206085  35.7072449  62.3192139  35.4743538  35.2607841
  52.8309097  52.8467636  57.1152725  53.5197792  53.2644539  56.5983391
  53.2601700  52.0946808  57.5231171  84.5053101  44.5347366  81.4705200
  83.9295044  43.7861900  81.3144531  83.9899368  45.2941399  81.1986160
  64.1554489  58.0672035  21.9939232  64.5199890  58.9439735  21.8730145
  63.3491898  58.0698013  21.4780083  20.7813492  56.8877182  23.9667988
  19.8976460  56.6407471  24.2393837  20.6581116  57.6800957  23.4441319
  77.5867691  65.0082397  76.3666687  77.1323166  64.2376862  76.7071838
  78.4305573  64.6737900  76.0626907  53.6559563  52.9395752  81.4197769
  54.3733025  53.3484650  80.9355621  53.0596771  52.6219749  80.7416763
  60.9166679   2.3874724  48.3495064  60.1059875   2.8923199  48.4139519
  61.4270058   2.8386912  47.6770515  74.5475540  39.9243317  48.0788002
  74.6352921  39.6690636  47.1604462  75.3413849  39.5908585  48.4969749
  55.1985817  45.2580719  51.0127411  55.7101784  45.1975403  50.2059975
  55.8533669  45.2779388  51.7106628  84.4239197  45.7552185  26.6943455
  84.4650269  44.8027039  26.7795448  83.5593872  45.9888268  27.0323544
  79.6058426  21.5007210  43.8340454  80.1851196  22.2606449  43.8904915
  78.7349243  21.8486977  44.0254822  33.3246880  43.5394859  47.8463936
  33.9825058  42.9324226  47.5073090  33.7266502  43.9152069  48.6296539
  -0.0081118  59.6819153  86.6563416   0.7250434  60.2400093  86.3970261
   0.3571064  59.1017342  87.3243561  37.4952774   4.9757376   5.7568474
  37.7517548   4.2423086   6.3158946  37.9156723   4.7945662   4.9162064
   2.7844186   3.3327556  85.5599213   1.9259906   3.6651692  85.8222809
   3.2642374   4.1093717  85.2720413  27.7627335  31.6031780  63.9361458
  28.5332565  32.0579872  63.5960388  27.0209332  32.0550652  63.5339470
  76.4131241  31.8072929  49.2528954  75.6534424  31.8483562  48.6720009
  76.5701904  30.8711224  49.3759689  39.3884430  16.3458271  82.5829773
  38.6425285  15.9016390  82.1798096  39.7281837  15.7151814  83.2178726
  26.1444626  68.5463181  58.2405014  26.2967167  69.2788925  58.8374786
  26.7145596  67.8496704  58.5659447  20.2645550  49.2454185  48.6127434
  20.9333782  48.7945671  49.1281433  19.4560356  49.1233978  49.1103745
  35.1265297   2.1756210  47.4366264  35.1915894   2.9705002  47.9659348
  34.5392990   1.6050748  47.9324837   3.3129470   2.3429995  67.0185165
   3.3640776   1.3872339  67.0299072   2.4997859   2.5337963  66.5509720
  51.9019852  52.3901367  61.0666008  52.5976028  52.7160950  61.6376495
  52.0719376  52.8053894  60.2210732  33.4586258  17.2414474  82.2938766
  32.7142372  16.7608147  82.6559601  33.3202286  18.1455193  82.5762405
   8.3809137  60.8106232  61.4121666   8.4984837  61.2409172  62.2590752
   9.2466183  60.4629173  61.1979485  12.8810110  26.4299488   1.7926229
  13.1721783  25.7887325   2.4409242  12.2607870  26.9844551   2.2659929
  14.6083307  71.0472488  56.0697823  13.7180004  70.7242050  55.9312744
  14.6793480  71.1545258  57.0182991  83.6873703  59.2799530  63.8118172
  83.1330719  59.8812828  63.3144341  84.5816116  59.5417061  63.5926361
  67.7738647  11.4450636  27.7967625  68.0769272  11.1426935  28.6528893
  67.5714111  12.3713856  27.9278030  50.5521317  29.0975494   7.2592125
  50.6060333  29.4040451   8.1644125  49.8580017  28.4385433   7.2704129
  15.9829416  65.0700607  46.9949646  15.5034313  65.7750702  47.4300041
  16.2626324  64.4953995  47.7075424  53.0091400  22.4197636  42.3194046
  52.2517242  22.8049278  42.7600899  52.6423912  21.7166061  41.7834015
  58.6302795   7.1665387  29.0913296  58.4069977   7.7813754  29.7901516
  59.2435341   7.6477509  28.5358257  38.6968269  57.6684303  63.4033890
  37.9381294  57.5358353  62.8350372  39.3538399  57.0559311  63.0726128
  21.1691475   2.4534540  72.2328491  20.6800900   2.5052142  73.0540543
  20.4950161   2.4288678  71.5537567  84.1309891  37.2452583  18.1598587
  83.5057983  37.7708664  18.6589642  84.4485168  36.5933952  18.7847404
  14.9917059  50.9204597  81.4997635  14.3789492  50.8611488  80.7667923
  14.4982491  51.3649101  82.1891098  49.4587059  43.2758980  68.8056030
  49.1897469  43.0393906  69.6932755  48.9434357  44.0556564  68.5989609
  76.8990173  20.8783779  57.3204079  77.1079102  21.1273346  58.2207489
  77.4428864  20.1088333  57.1523705  80.9404068  11.7368593  81.0557098
  81.3332367  11.1416798  80.4172134  81.2437134  12.6054916  80.7916794
  52.3736839  56.5693779  43.0164223  51.7520599  56.8558884  42.3473015
  51.9432068  55.8274956  43.4413071  52.6449890  17.4276829   1.0610083
  53.2064934  17.5479107   0.2951801  52.1793137  18.2592773   1.1494915
  58.1375465   3.3227053  33.5022240  58.6602097   3.7718899  34.1665192
  58.3857841   3.7419538  32.6783028  10.1262503  43.5327759   9.0420055
  10.0637903  42.7802429   8.4537706  10.7709732  43.2703362   9.6990356
  54.1511192  65.0966644  87.2374878  54.4918137  64.2037201  87.1844940
  53.3368492  65.0132828  87.7337189  71.1526718  16.1632729  19.7716808
  70.7440567  16.7456951  19.1313286  71.4377213  15.4065228  19.2595196
  25.9154453  21.4696693  82.3665695  25.0955162  21.4597569  81.8727646
  26.0794315  22.3966427  82.5399551  48.2162056   5.7243471  58.4128876
  48.1897049   6.3205256  59.1612892  47.3246040   5.7370496  58.0648651
  57.4565544  64.7157516  86.9765930  57.1096573  63.8239746  87.0017395
  56.7168846  65.2677231  87.2304611  67.7896042  63.6575623  12.8210840
  67.3797379  63.4995346  13.6715345  68.6848221  63.9226112  13.0322018
  74.1421509  45.3098259  15.2140274  73.2622681  45.2763863  15.5894156
  74.7221527  45.3967018  15.9705219  84.6843719  55.1637459  28.6670742
  83.9235840  55.1639900  28.0861778  84.3759232  55.5915222  29.4658852
  63.7550583  14.0130825  68.0246887  63.6992226  13.7235250  68.9353333
  64.2149506  13.3038197  67.5756073  24.4394875  54.5166588  32.3038979
  24.9224663  54.8032150  31.5287495  25.1169624  54.3414993  32.9570274
  75.6178284  17.6437302  23.2141190  75.5103073  16.7439022  23.5223103
  75.1052399  17.6832180  22.4066963  83.6540909  58.3642197  28.3184223
  82.7798080  58.5098228  28.6798878  83.9230881  57.5179176  28.6756973
   7.8929090  25.5991516  66.2215652   8.1191826  24.8637486  66.7909622
   8.6252909  26.2083874  66.3147354  77.4154205  63.2362823   1.7249101
  77.6288986  62.3064003   1.8022076  77.3147812  63.3815231   0.7841620
  39.9737053  18.8329563  87.8357849  40.5021744  18.6791344  87.0526581
  40.2017937  18.1129818  88.4238739  18.2382393  66.3464203  72.0564728
  18.8872700  67.0302811  72.2217712  17.5280170  66.7959290  71.5984802
  51.1111412   9.9302330  41.0151176  51.7456818  10.5956793  41.2811546
  50.5243835  10.3863754  40.4118919  23.2708302  39.2530212   0.5574933
  24.0518913  38.9858818   1.0420672  22.7529850  39.7483177   1.1921182
  15.8642712  68.3622284  64.3959808  15.2605333  67.7854691  63.9279137
  16.5226669  67.7724457  64.7632828  54.8365974  49.3623695  77.4111099
  54.4661293  48.4855080  77.3106079  55.7343102  49.2814751  77.0889282
  34.6614876  30.3524609  20.3302956  34.4026718  29.6533203  19.7299232
  34.7765694  29.9138775  21.1732845  18.6110744  53.0335693   7.3755279
  17.6771297  53.1336594   7.5598106  19.0441437  53.5862885   8.0260544
  24.9415779  54.1823959  81.9280777  24.3127804  53.7182579  81.3754272
  24.4991646  54.9987183  82.1607056  22.3096313  31.0420780  25.7766705
  22.7617378  30.2325439  26.0143337  22.0084152  31.4019775  26.6109219
   3.0529363  33.1113434  86.2234268   3.9078362  33.3342285  85.8550491
   3.0755863  33.4652786  87.1124954  74.1355209  19.0329914  10.8246326
  74.6387939  19.3006935  10.0556850  74.6205978  18.2888126  11.1811848
  30.1935406  33.2206421  10.7836618  30.0094223  32.4392052  10.2624254
  29.6673222  33.9091682  10.3771429  77.3736038  23.5055141  46.0684471
  77.2799301  23.3354797  45.1311417  77.9527512  24.2660732  46.1171913
  23.6836319  44.5013313  87.0816040  24.3575668  45.1025696  86.7644958
  22.9374542  45.0646591  87.2868271  82.6989059  66.0290070  70.2675400
  82.0165253  65.4343491  70.5789337  82.5461349  66.8420181  70.7490997
  40.5055847  36.7336121  85.2790756  40.2431526  36.7145500  84.3587494
  39.7299538  36.4375381  85.7554855  38.0875015  36.8897934  70.9171906
  38.4770813  37.7183533  71.1963806  38.2764778  36.2830467  71.6329956
  48.0368843  53.4902954   6.4683013  47.8485756  52.5522499   6.4973760
  47.8254623  53.7493401   5.5714030  37.3017197   0.2923006  73.4853134
  38.2336121   0.2425295  73.2723999  36.8813133   0.5442982  72.6631317
  67.8567963  31.6794872  59.6946411  68.7292175  31.3618164  59.4618301
  67.2573318  31.0624580  59.2749367  26.6420269  53.9937782  33.6671333
  27.0806236  54.3258095  34.4504738  27.1890965  53.2636147  33.3776474
  85.1815033  39.4904556  14.2688179  84.2880173  39.6235542  14.5853453
  85.5967560  38.9524879  14.9428997  72.5578537  60.9117622  41.5466766
  72.3888931  61.4514313  40.7743797  73.1773071  60.2477531  41.2440147
  32.4211845  23.1966152  84.7511673  33.3023300  22.8424587  84.8711166
  32.1828957  22.9485607  83.8579025  34.5000229   6.1693277   5.0508037
  35.0193405   5.4648070   5.4383454  34.4694443   5.9588308   4.1175365
  57.6677132   3.5988102  56.8516960  58.3831177   4.1773458  57.1157494
  57.5181541   3.8082674  55.9297447  64.1295166  44.2146149  18.9237213
  64.8508377  44.1530151  19.5499268  64.4973297  44.6935272  18.1810341
  81.3868408   1.8377068   6.8478370  81.0984879   1.0662782   6.3600025
  81.4138718   2.5374613   6.1952686  18.0524960  19.8815823  67.3168716
  17.2862854  19.9142609  67.8896561  18.7822666  20.1442299  67.8778381
  52.4293747  58.7096519  54.6212578  51.9848480  58.8106346  55.4629402
  52.5739059  57.7670708  54.5382919  24.9846878  29.2408409  63.2782898
  24.4286213  28.4757347  63.4253769  25.8710938  28.8846531  63.2178993
  83.3347549  50.9400673  15.4684372  82.5558090  50.9026833  16.0234776
  83.0707855  51.4767075  14.7210655  58.1483612  70.4055710  55.3579903
  57.6700096  71.2227859  55.2180862  57.4687767  69.7610321  55.5553932
  63.3667717  56.2548218  88.0549545  63.3524208  55.9288216  88.9548187
  62.5838776  56.8011780  87.9856339  79.5573120  70.0142593  84.5793991
  80.3245850  69.9452209  85.1475143  78.8265991  69.7292480  85.1280823
  76.5357285  49.9434738  39.8635979  77.4308777  49.6177063  39.7697334
  76.2030334  49.5070724  40.6478844  14.3455534  25.5918884  80.5084610
  14.2156849  24.6436329  80.4951630  14.2958241  25.8274784  81.4348831
  62.3264694  67.2896576  18.7618942  61.5504341  67.7890015  19.0161743
  61.9795189  66.5271454  18.2988205   5.0109119  11.3838921   5.7945113
   5.5106964  11.8167210   5.1023359   5.5056949  11.5619574   6.5943332
  56.7214661  61.5855331  41.3457184  56.7083549  60.8277206  40.7610970
  56.5937462  62.3369637  40.7666931  22.0547924  20.4405575  67.1961594
  22.1354694  20.0831966  66.3118439  22.2682323  19.7060909  67.7716904
  55.0017204  54.8954773  67.1722565  55.4237633  54.1314049  66.7794418
  55.6959724  55.5524139  67.2239838  52.5228882  19.7288265  87.6501846
  52.3120956  19.3018036  86.8198547  51.6871834  20.0796204  87.9580383
   4.9055648   1.6150821  55.5594826   5.4912753   2.3471620  55.7524452
   4.6503539   1.2795873  56.4188652  44.2113571  29.1812115  15.3786650
  43.4782562  29.5469189  15.8736963  43.8121185  28.8334026  14.5812502
  28.0686111   2.2085006  71.9667282  27.2229347   1.7627103  72.0150528
  27.9106846   3.0653355  72.3631210  15.2186689  41.4664230   1.4207411
  15.9149561  40.9747467   1.8562520  15.3784332  42.3774033   1.6673603
   1.3594873  50.3777962  32.1281586   1.0988439  50.2574005  31.2150307
   2.2675359  50.0766640  32.1597404  22.3340416  69.1491699  16.7080708
  21.5630112  68.6204910  16.9135914  22.9288235  69.0012054  17.4433060
  74.8535843  58.9479332  68.3524933  73.9260864  59.0750237  68.1529312
  75.2656937  58.8118820  67.4993362  30.7999897   0.8875688  38.9588509
  31.3840618   0.2362370  39.3472557  31.0195770   0.8809031  38.0272026
  48.3214302  71.3728409  15.6019793  49.0570869  70.7741776  15.7309923
  47.5459137  70.8419266  15.7834597  42.0650749  66.2441177  78.9603119
  41.2085609  66.5594254  79.2487564  42.1307030  65.3615875  79.3250885
   9.7082510   2.9594111  25.3874111  10.2919588   2.5863593  26.0479794
  10.2689409   3.5398793  24.8727131  79.7851715  33.8326187  37.0432396
  79.2386627  33.1189079  37.3721428  80.1529388  33.4957314  36.2262421
   8.0621119  32.4272575  72.5250778   7.7309408  33.1979446  72.9861526
   7.3139324  32.1113968  72.0184326  27.2627316  44.7549400  56.8484192
  27.8748016  44.6255150  56.1239510  27.6238441  45.4939995  57.3379288
  41.5740814  38.7563782   9.9611683  40.8892708  38.0892296  10.0077839
  41.9208031  38.6819954   9.0720778  11.8334341  61.7315063  73.0139160
  11.7436342  62.1185684  72.1430817  11.4523983  60.8576241  72.9280548
  71.5273132   9.7574358  29.0197811  72.2528839  10.0056190  29.5926495
  71.3069839   8.8646221  29.2854328  58.1438904  29.2883015  59.1556931
  58.4839096  28.5684566  59.6871452  58.7394371  30.0170345  59.3303413
  36.1906815  68.3823166  29.5902214  35.4005470  68.8744888  29.8131180
  36.3225441  67.7921600  30.3322201  33.7770386  40.1581726   3.6753561
  34.3654251  39.4063263   3.6063349  33.0693970  39.9657860   3.0601640
  13.3952856  35.3314171  20.8567257  12.9996281  35.5490532  21.7007160
  14.1297064  34.7584572  21.0771255   3.0285039  70.6263885  53.1345444
   2.9887323  71.4434891  52.6375542   2.8125508  69.9468689  52.4959183
  85.0072021  20.9847927  60.8077545  85.8802948  20.8491096  60.4396019
  85.0315323  20.5368042  61.6532974  73.7122192  52.6808090  55.5732803
  74.0524445  53.0936279  54.7795181  72.7962494  52.4906731  55.3706207
  72.3469925  30.2728920  69.0125122  72.4175491  30.5746765  69.9181519
  72.1393509  29.3413734  69.0859528  62.9240150  43.6151009  77.9879456
  63.5705299  43.8898697  77.3377533  62.6594429  44.4269447  78.4205551
  38.7311020  51.9080162  69.4351501  38.2407608  51.0860062  69.4450378
  38.4987602  52.3354263  70.2595062  62.1002579  41.7501297  50.2797318
  61.7194366  42.2973137  49.5928574  61.8892899  40.8542557  50.0167923
  80.2224884  54.1401596  17.4308357  79.9527435  54.4801865  18.2839794
  79.4926300  54.3494148  16.8479500  33.0196953  24.5046387  87.8073425
  33.4130249  23.6987553  88.1421280  32.4318314  24.2127609  87.1106033
  42.1605911  47.0315018  73.9951401  42.9693565  47.0365524  74.5071030
  42.2510529  47.7733955  73.3971100  64.9623871  28.1670799  43.2491531
  65.3303299  28.9563103  42.8517113  64.8392563  27.5645962  42.5156097
  50.7866516  43.7988815  59.2375755  49.9760628  43.8777428  58.7346230
  51.1975784  44.6604347  59.1662254  42.7574348  59.1828079  71.4791946
  42.2400360  59.3085175  72.2746429  42.9651146  60.0699692  71.1858597
  47.6505432  39.7358780  83.8632278  47.0402222  39.1808319  84.3486786
  47.1295433  40.4963722  83.6054688  63.0614891  16.4873810   8.1236858
  62.7314415  16.0210152   8.8916731  62.2910652  16.6112804   7.5693121
  49.8140907  35.2958984  34.2803802  49.9882317  34.6263428  34.9418945
  49.7916145  34.8150444  33.4530296  60.7079430  37.2960548  80.9975891
  60.9072914  36.3841972  81.2097321  60.3740883  37.6647568  81.8154068
  43.3076782  68.2377167  36.3133507  43.3917999  67.5064468  35.7014656
  44.2091789  68.5047607  36.4928169   3.3065677  33.1806412   4.9318752
   3.4331760  32.3836250   5.4466233   2.4152939  33.1064072   4.5907702
  61.5828056  60.7577705  71.3562622  60.8768196  61.1650009  70.8542862
  61.9548569  60.1066055  70.7614594  48.0972366   0.3272270  77.0832748
  47.3143730   0.6944057  77.4938049  48.6529160   1.0861260  76.9057236
  26.9572983  51.6020012  64.4017868  27.5415974  51.1325874  63.8064079
  26.1402302  51.6947594  63.9118614  19.3347607  33.4921265   2.4733338
  19.1837883  34.2634392   1.9269688  19.8762398  33.8120270   3.1949279
  73.8088531  36.0870056  33.0860138  74.5763168  36.6263466  32.8953743
  73.0836563  36.7100716  33.1318855  50.8803024  36.6311417  85.1222610
  51.1459122  36.1310234  85.8939896  49.9547539  36.8256340  85.2697830
   6.5478010  70.8006592  55.5033379   6.1204848  71.6492081  55.3866997
   6.0286174  70.1961365  54.9730339  35.5801125   4.7169709  87.5208435
  34.9179573   5.4081898  87.5215683  36.0030670   4.7913594  86.6653900
  41.3753700  52.7410164  44.1903419  41.0534134  52.0039177  43.6714401
  40.9442635  53.5070686  43.8114662  50.9248581  48.6346550   3.3173935
  51.4486618  48.3426170   2.5713522  51.5688782  48.9261742   3.9627523
  21.4393082   0.8917004   3.0772998  21.8997211   0.1452811   3.4608498
  22.1320572   1.5174862   2.8658223  62.6187897  64.8675919  60.4302750
  62.2141991  64.2771759  61.0658493  61.8839645  65.3454514  60.0456886
  15.1966667  58.2850494  64.2806931  15.1950178  57.5827713  63.6302795
  16.0024529  58.1481972  64.7789001  75.5134735  51.3348160  72.7195282
  74.8413925  51.9641380  72.9812393  76.0443039  51.2102509  73.5062561
  76.8291397  45.6875000  10.9512463  77.4066620  45.0310326  11.3407974
  75.9456329  45.3644485  11.1281366  59.9893913   0.9723185  80.6491852
  59.4760590   1.5101680  81.2520447  60.5899315   1.5888140  80.2302399
  65.5461960  46.0032997   1.0580300  65.8862152  45.5865173   1.8498088
  66.3076096  46.4318237   0.6670740  75.1811142   3.7503667  81.8369904
  74.6644745   3.5119445  81.0672684  75.9282837   4.2332625  81.4837494
   0.1006051  38.0135574  41.8250084   0.1056495  38.5938530  42.5862350
   0.5735450  37.2336159  42.1152649  72.3810577  53.8839531  64.3788605
  71.7704773  53.9200325  63.6425743  73.1960373  53.5564575  63.9983521
  45.0744057  46.8658295  62.1246223  45.8827515  47.3757172  62.0714226
  44.4467926  47.3557510  61.5932922  51.0016251  49.8619080  15.0119829
  50.8773766  49.3895531  15.8351946  51.9369125  50.0644493  14.9908667
  24.8341312  44.9966316  21.1524315  24.5091991  45.7657127  20.6842823
  24.0636406  44.6440468  21.5976963  25.1885109  23.0246372   2.5757248
  26.0212078  23.4325161   2.3380671  24.5845604  23.2918167   1.8828384
  57.5098343  11.4464617  29.1011200  56.8644066  11.5178547  29.8043671
  57.7107201  10.5117464  29.0543766  36.7538986  50.0758133  87.8338470
  36.0899734  49.4109421  88.0165482  37.3825150  49.9898643  88.5505676
  32.7768250  64.8970566  27.4769249  32.7863617  64.8318100  26.5219975
  31.8768826  64.6827087  27.7226658  70.1951523  47.2773094   2.5509341
  70.3686600  46.6554031   3.2575886  70.8006287  47.0234146   1.8543930
  86.0017624  45.1632996   7.9637809  86.2848434  45.9654388   7.5248389
  86.6144943  45.0596504   8.6918278  86.8653107   3.0581164   8.0807228
  85.9956665   2.6582592   8.0734291  86.8106766   3.7620919   7.4344525
  13.7923336  22.6093311  18.2675171  14.3264103  22.4678688  17.4858646
  12.8913250  22.6136360  17.9444122  49.5044212  22.1204338  61.5782394
  48.9886246  22.6063137  62.2217522  49.7898712  21.3345222  62.0441742
  73.2333755  61.6949921  18.0109310  73.1504440  61.6437798  17.0587063
  72.4138489  62.0951881  18.3015461  71.1218414  20.0472317  33.3960266
  70.5441284  19.5430527  32.8230629  70.5667419  20.7470551  33.7400436
  30.8309441  57.5374222  58.9851608  30.1910286  56.8497124  59.1689949
  31.6708393  57.1586227  59.2446175  42.8174515  10.5193596  65.0788193
  43.3456993  11.0288057  65.6933517  42.4557953  11.1700964  64.4771729
   1.6516778  34.8779068  60.0957947   2.3512819  34.2338295  59.9864731
   1.2872679  34.9871178  59.2174377  16.0852470  25.2882118  51.2388115
  15.6709461  24.8504028  50.4952316  15.6283350  24.9421864  52.0054436
  38.4924240   5.1531391  38.2879601  38.3726349   5.4342113  37.3808327
  37.9141235   5.7239342  38.7939186  60.2395096  65.7914734  42.3116417
  60.4259148  66.6521072  42.6868782  61.0992699  65.3831558  42.2100754
  86.6391907  50.3423843   9.6077948  86.8150253  50.9887047  10.2915964
  85.7759399  50.5803604   9.2695723  76.5969620  46.9702225  57.5377159
  76.4684830  47.6101418  56.8375511  77.5392380  46.9846840  57.7054596
  22.7068691   2.8107958   0.5315499  22.9508801   3.7334294   0.6052896
  23.5006752   2.3774288   0.2180275  80.9890060  40.6821861  30.3975029
  80.6043549  39.8265419  30.5876350  81.8857498  40.6201019  30.7264843
  64.4986420  59.0175247  46.7967949  64.6128616  59.9678116  46.8087196
  63.9526711  58.8515396  46.0282898  69.4385300  26.8878059  68.1118546
  68.7508545  26.7853088  67.4539566  69.6027908  25.9990578  68.4270935
   0.4277684  20.9591274  55.2349319   0.3208271  21.1131687  56.1735840
   1.2491714  20.4728050  55.1640816  63.1762733  31.3248405  89.0941010
  63.7641640  30.8745747  88.4875793  62.3082733  30.9776669  88.8884888
  42.4925690  16.1239719  16.0682087  41.5603714  16.3118496  15.9589434
  42.5156784  15.2737513  16.5073242  80.2188950  62.0834732  24.6689301
  80.0668411  61.9244499  25.6005001  81.1695709  62.0330696  24.5693989
   6.5313497  14.8349924  60.2047234   6.2515373  15.0773573  61.0874443
   7.0589499  15.5767298  59.9085884  59.9890823  13.9176302  71.1481171
  59.9318047  14.4189253  71.9615402  60.6156387  14.4029198  70.6113205
  21.5284653  11.2839441  17.8011990  20.7161827  11.7429237  18.0151310
  21.7038040  10.7376299  18.5673771  10.0455723  43.7164688  22.7614975
   9.2417927  44.1877136  22.5421906  10.2150888  43.1639938  21.9984341
  77.2428131   7.9767890  34.4973717  77.7280502   7.6724401  35.2642784
  76.3361893   7.7241321  34.6718025  35.8527412  64.7153244  33.7341499
  35.4614143  65.1366882  34.4993591  35.9056473  63.7895050  33.9714012
  31.1234703  10.9581461   0.8225184  31.2016335  10.4447212   0.0184550
  30.2094116  10.8524771   1.0862658  81.9484787  26.6137390  24.8445148
  82.3761978  26.9972553  24.0788765  82.4612045  25.8287354  25.0371647
  42.5380058  24.2069206   6.9617538  42.8064194  24.4969769   7.8335652
  43.3595161  24.0918674   6.4841371  83.0073853   8.0864353  59.9325562
  82.1366730   7.7163191  60.0778313  82.8845596   8.7158985  59.2219772
   1.8806514   5.1367650  34.2694473   2.5503352   4.4636989  34.1480484
   1.0526471   4.6568680  34.2510109  35.7585754  11.4846544  18.3151989
  35.0584335  11.7087116  17.7021503  35.9351654  12.2995405  18.7853146
  11.6100092  32.1179543  21.1279564  10.9370193  31.6886654  21.6561871
  12.3647633  31.5314541  21.1788845  17.5487728  15.5733747  86.8387146
  17.9209557  15.1664114  87.6210785  16.8679466  14.9643335  86.5527496
  41.5790710  39.1526108  33.7762108  40.9480247  39.7691231  34.1475868
  41.5530663  38.3989792  34.3657875  50.1962051  57.0550232  70.2038498
  50.9367332  56.4956055  69.9695358  50.5843201  57.7635651  70.7172394
  47.4814491  11.8425426  68.2680893  48.0619545  12.4190073  68.7650146
  47.4079170  11.0546455  68.8066483  33.9633141  69.1047668  41.7008972
  33.0097198  69.1857147  41.6824608  34.2442055  69.7331619  42.3660698
   5.0098028  58.0931244  20.1124821   5.1347599  58.9365616  20.5474873
   4.0887494  57.8802605  20.2627525  63.4719543  33.4386902  14.4890442
  64.3395615  33.4141769  14.0854530  63.0775490  32.5970345  14.2603617
  77.2784119  64.5790329  61.1552238  78.1933441  64.3598022  60.9789352
  77.0210495  65.1394196  60.4231262  63.4552612  21.0863304  46.9972725
  63.8548851  21.9287090  46.7806396  63.4283676  20.6130714  46.1656837
  85.7431259   9.2215462  10.6079149  84.9093933   9.3575010  10.1577702
  86.2415009  10.0203571  10.4354143  84.4571152  62.1224937  34.2424164
  84.3042297  63.0603905  34.1274872  85.4080505  62.0266304  34.1898918
  58.1814461  57.3960075  74.6588898  57.7387962  58.2293472  74.8196487
  57.8478127  56.8122520  75.3401794  27.7239761  25.8804855  69.8688126
  28.4830322  25.4205360  69.5103302  26.9935551  25.6053944  69.3146973
  39.8204193  28.8482189   9.0884495  40.2133636  29.0438747   8.2378349
  38.8770866  28.8744373   8.9282293  63.8027802  24.7131348  37.7058868
  63.3118668  23.9505997  37.3996582  64.5440216  24.7783909  37.1037788
  62.7439613  46.4180984  88.8975067  62.7617645  45.7749634  89.6062317
  63.6659584  46.5787468  88.6966476  22.3928833  67.5820770  57.1113510
  23.2941666  67.2880249  57.2434731  22.4234314  68.5258484  57.2681885
   4.6228690  68.1775436   7.0057435   3.9335430  68.7730103   7.2998137
   4.9968576  68.6057587   6.2356830  13.1327915  56.5772171  83.7224350
  13.9965181  56.2972717  83.4193802  13.3160238  57.2004547  84.4254532
  13.2482166  11.8182268  84.4229050  13.0172062  12.5880222  84.9427872
  12.4570770  11.2794294  84.4281769  28.1469822  53.7272339  36.0674400
  28.6072083  54.0691986  36.8339157  28.7912807  53.7730331  35.3610306
  54.2252541  57.7280884  70.8642654  53.9018860  57.5065422  69.9910049
  54.8382301  57.0247383  71.0782547   3.5803792  36.0945435  18.6497650
   3.2634532  35.7314491  17.8227501   3.4171960  37.0348930  18.5766602
  39.7523994  47.0098572   7.0531101  39.0817184  47.6063423   7.3857107
  39.8820076  46.3772507   7.7596822  60.0736771   4.7223811  31.9272461
  59.5399933   4.8216124  31.1388531  60.6238060   5.5055170  31.9442139
  55.4656677  40.0523300  51.4825325  55.1847115  40.2192917  50.5828552
  56.0765343  39.3189240  51.4104881  71.9094849  35.7073975  75.2053604
  71.1142502  35.9015007  74.7092133  71.7858810  36.1568375  76.0413971
  34.8463364  56.7387505  46.3360023  35.3937531  57.2218590  45.7169952
  35.4544334  56.4435043  47.0137100  55.1816559  21.1078892  24.8116703
  54.4592819  21.7246552  24.6933231  55.2459526  20.6505947  23.9732304
  61.1567688  47.8844032  54.0587044  60.7347183  48.1172829  54.8856697
  60.5486488  47.2729530  53.6433067  59.7094879  65.6717606   2.2472358
  59.6118546  64.8891296   1.7048398  60.3089027  65.4064941   2.9447763
  68.2188721  52.4567337  41.2285004  68.8537598  51.9298515  41.7138367
  68.2374268  52.0972290  40.3415718  52.2989388  42.1175919  66.3710785
  52.1937599  42.8443069  66.9851227  52.9129944  42.4459419  65.7143021
  49.3326492  53.5557671  84.4925537  50.1232681  53.8763313  84.9265976
  49.4833527  52.6168404  84.3833008  50.2913170   5.4988422  52.0435905
  50.2502747   4.5427713  52.0217819  50.7737350   5.6996312  52.8455811
  33.6208191  13.6343842   1.3352454  32.8559532  13.6806908   0.7616025
  34.3591614  13.8576164   0.7684549  57.6846313  13.2626972  64.9985504
  58.0224953  13.9383364  64.4106750  57.8398323  13.6100159  65.8769073
  27.5564442  47.9179573  44.1055031  26.8516998  47.3620796  44.4380150
  28.2636242  47.8147202  44.7422638  65.8552551  28.4976006  22.6181087
  66.0441208  29.1923313  23.2489109  65.8861008  27.6914501  23.1332798
   1.6682965  41.6867142  61.5432854   0.7625401  41.3771439  61.5449295
   1.6642764  42.4421692  62.1310806  74.1047440  42.7913551  68.9450760
  73.7585831  43.6671143  69.1166840  74.1209869  42.7230568  67.9904556
  31.1790142  66.7070999  47.1405792  30.4031315  66.1925659  47.3630600
  30.8320885  67.4943848  46.7209854  68.7101974  10.6638336  50.7934914
  68.3506927  11.3001194  50.1753235  69.2677002  11.1822338  51.3737335
  20.5925007  68.0469818   1.4035513  21.1805782  68.1408081   2.1529467
  20.3370686  68.9434128   1.1858352   6.8655863  61.7230873  54.0399437
   6.3795400  61.3171692  53.3221550   6.6371903  62.6512489  53.9891090
  62.9148560  24.9669437   5.1008329  62.4409142  25.7800751   5.2752719
  63.4637184  24.8389282   5.8745222  45.1789055   3.0932207  49.5430717
  45.0093613   2.5870845  50.3376236  44.6989784   2.6296101  48.8568001
  83.9366608  17.3878021  28.9110508  82.9795914  17.3840141  28.8959446
  84.1690826  16.6998634  29.5347118   6.7271538  11.3030376   8.6034594
   7.2879114  11.0769806   9.3455391   7.3327484  11.6204777   7.9335947
  57.5332184  12.8396711  20.4153976  58.2469788  13.2264338  20.9225445
  57.4853516  11.9339705  20.7214146  57.6981201  70.8447952  36.4039803
  56.7565231  71.0158691  36.4231262  57.9764824  71.1340408  35.5350266
  39.1854095  67.5526199  19.5263882  39.1783600  68.5097046  19.5391045
  38.3057060  67.3028412  19.8091679  64.6201019  15.8178062  24.5908146
  64.1131287  16.5750561  24.2979336  64.3402023  15.6775141  25.4953632
  57.6843147  23.1887417  89.2253036  57.3019943  22.4356461  89.6757584
  57.8748741  22.8689613  88.3434601  50.8049240  64.3940964   1.3494556
  51.4424553  64.6184616   0.6716306  49.9874802  64.7925644   1.0507265
  68.7113724   4.4688115  30.5485973  68.9682693   5.3062081  30.9346027
  68.8200989   4.5961061  29.6061516  85.1185226  30.3748016  39.1906090
  84.6993790  29.5149155  39.2244835  84.6288986  30.8537426  38.5219460
  49.2317657  11.5627394  53.9163589  49.3779411  10.6309261  53.7532997
  48.7205353  11.5870333  54.7252388  64.2466125  39.3221359  59.9464455
  63.6837234  39.8375130  60.5241776  65.0649643  39.2251968  60.4334221
  78.9111176   2.7465754  60.9796104  79.0174561   2.9135911  60.0431099
  78.0008926   2.9794581  61.1625938  49.4696236  35.0608330  76.9356079
  49.0374794  35.9106216  77.0212936  48.7656059  34.4568481  76.6994019
  58.2062836   1.3967167  76.3465347  58.2664795   1.3716762  75.3915558
  58.6621819   2.2010965  76.5942535  81.0945129  39.3270493  70.2004395
  81.5063248  39.5403900  71.0377731  81.8181076  39.0382271  69.6443558
  73.4058456  68.8396225  68.7870178  73.1190643  68.6980209  69.6892014
  72.8024673  69.4990997  68.4446030  47.2724915  20.6865501   3.2338338
  47.1404228  21.5637779   2.8743052  47.1214180  20.0990067   2.4934282
  47.5109978  42.0294876  27.7257328  48.2797394  41.5650978  28.0568066
  47.8424873  42.5505142  26.9943790  18.0484085  14.1735706   0.0131807
  17.7491322  13.3648643   0.4287038  18.9626465  14.2578382   0.2839180
  37.8132248  59.1074905  41.9222145  38.1876030  58.2360916  41.7928429
  38.5645294  59.6621971  42.1321640  65.6133194  35.5205460  59.9140282
  64.9508286  35.6978035  59.2462616  65.2019577  35.7870522  60.7362137
  58.7869682  10.3211603  87.1970444  58.2876015  10.2171259  88.0070114
  58.3182602   9.7863407  86.5563354  72.3449554  19.4342709  60.9401131
  72.3989410  20.0650845  60.2222023  72.9905014  18.7632046  60.7183418
  67.4886703  30.2931290  53.4867172  66.5844269  30.2318420  53.7946320
  67.9584198  30.7156620  54.2057686  42.8454514  55.5406151  15.2083788
  42.2006569  56.2480507  15.2111902  42.3473358  54.7615471  15.4556847
  82.3422165  39.7161713  45.5714722  82.7040863  40.2609062  44.8725090
  82.4831238  38.8178940  45.2723541  63.0988083   2.5332260  49.9356384
  62.6782379   2.2915199  50.7608261  62.3715515   2.7035861  49.3370514
  59.7104149  61.0430603  69.4792099  58.8378944  61.2832146  69.7910843
  59.5486450  60.5223274  68.6925049  18.4280453   8.9132833  83.4352112
  18.4617615   7.9770665  83.6316681  17.5800610   9.1989527  83.7751389
  77.2572174  65.8192444  16.5600605  77.6587296  66.6801987  16.4426727
  77.1005249  65.5046387  15.6697226  73.2753296   3.0245290  57.5392799
  72.3921509   3.2265139  57.2303581  73.6436539   2.4602396  56.8594666
   7.1395912  33.5930367  27.9642849   7.4462581  33.0002327  27.2781601
   6.6590161  34.2747383  27.4946423   1.9318439  59.4091568  21.7370434
   2.1285655  58.6306992  21.2159519   2.7279346  59.9382858  21.6870842
  30.7723522  51.0470238  41.2393990  30.4803238  51.5167274  42.0206337
  30.8088150  50.1298828  41.5109863  13.2606144  63.9938622   1.6562278
  13.9154472  63.6215401   1.0656312  12.6823378  63.2603912   1.8656286
  22.1373997  68.6869278  65.7079086  22.0881271  69.4402237  66.2964172
  21.4521408  68.8450546  65.0585632  58.6608200   4.5607967  36.0218620
  57.8299675   4.2203312  36.3535233  59.3282280   4.0356383  36.4634552
  74.8635178   4.5461888  35.8862801  74.7516708   4.6106682  36.8347359
  74.9717178   5.4517932  35.5957527  37.3823586  27.7328835  20.3022785
  37.3028336  28.0330219  19.3968353  37.8664322  28.4304581  20.7441978
  73.0913391  62.3366394  56.7026253  73.5157852  62.2203369  57.5526505
  72.2335892  61.9242554  56.8047981  73.9359818  48.4281578  17.1407394
  74.1560440  48.5690804  18.0615788  74.6850739  47.9493408  16.7860279
  82.8450089  37.1630821  44.3606529  83.7193222  36.7813301  44.2827988
  82.5528641  37.2789383  43.4565163   9.1126795  29.0564480  63.7943840
   8.7655458  28.5488052  63.0608788   9.0513363  28.4655457  64.5449219
  27.3930779   9.8153362  79.4311066  27.6284351  10.6426706  79.0111542
  26.8917999   9.3433123  78.7661667  78.7953262  37.6839104  28.7115479
  77.9366302  38.0066071  28.4381542  78.9298019  38.0660439  29.5787983
  39.2217827   3.9707923  21.2309418  38.6266975   4.1118970  21.9672794
  39.0211258   4.6809659  20.6213341  69.2126236   6.0881772  21.0532284
  70.1081009   5.7554431  20.9928951  68.7201385   5.3773766  21.4636631
  64.5553284   4.6950092  81.0716705  63.6181908   4.8807735  81.0125504
  64.6019058   3.8140302  81.4430695  71.3885269  67.3910675  66.4796371
  70.8697662  68.1900787  66.5728531  71.1469345  66.8588409  67.2376633
  10.1671028  17.0284672  55.5160065  10.1704779  16.6038570  54.6581459
  10.5356798  17.8970261  55.3547974  30.1843700  64.2624893  22.0012531
  29.3666439  64.6316910  22.3347874  29.9445839  63.8679047  21.1627808
  62.3552132  11.2959337  63.0608253  62.4977112  10.5405912  63.6312485
  61.4551506  11.5665760  63.2421341  50.7954941   6.7872896  83.6846848
  51.1637993   7.6573410  83.5310745  51.4825897   6.3161454  84.1560135
  46.0078773  32.6906357  78.6349182  45.2778473  32.4208717  78.0776749
  45.5991974  32.9256172  79.4679794  67.5669022  14.6249046  53.8702583
  67.6153564  15.5776043  53.9492912  68.4629745  14.3554163  53.6686058
  35.1289368  49.1638527  61.7003899  34.1862373  49.2683945  61.8292923
  35.3740997  49.8894730  61.1262817  24.8844395  55.1182137  86.9168777
  24.1861324  54.5783653  86.5465240  25.0605526  54.7278061  87.7729187
  48.8121147  28.1075401  58.6958466  48.0852852  27.9510574  58.0929718
  49.5650749  28.2673798  58.1268692   2.5366955  14.7106037  24.3373146
   3.4262173  14.7919035  24.6813679   1.9761107  15.0279455  25.0453186
  41.9792290  65.4800186   9.4763031  42.6525764  65.5789948  10.1493835
  41.1632881  65.3799515   9.9666700  22.5569706  46.0693970  79.7627563
  22.9840260  45.2515640  79.5077972  21.9169769  45.8090096  80.4252090
  44.9692039   0.2494411  35.9585953  45.7622490   0.6152242  35.5667801
  44.2734299   0.4665116  35.3381042  52.2546120  19.8390713  26.2715664
  52.4753609  20.7704678  26.2705574  51.9151917  19.6743202  27.1512718
  55.6197014  29.0481262  13.5694332  54.9235535  29.6865292  13.4143505
  55.1626167  28.2115574  13.6557932  43.1439819  33.0820694  11.3233089
  43.3357048  32.2313538  11.7179718  44.0032310  33.4789810  11.1805515
  83.8794250  57.2729492  36.0140991  84.7407379  56.8688431  35.9088860
  84.0396576  58.0379257  36.5666962  40.5980797  38.3349037  26.8714390
  40.6772766  37.9852600  27.7589684  41.4099388  38.0727386  26.4374008
  52.2327843  56.5804329   8.3358116  52.6274452  57.0543823   9.0678291
  52.7790298  55.8012047   8.2326326  25.4206429  40.9021378  12.6401930
  25.4731445  39.9611816  12.4726257  24.6724949  41.1965446  12.1207409
  45.3949013  29.0169449  27.8999786  44.4387436  29.0546303  27.8759289
  45.5952835  28.5262108  28.6970100  18.9898262  44.0735664  28.4494152
  18.7289524  44.7472038  27.8214111  19.7528172  43.6560707  28.0496960
  23.2381268  47.0693665  41.7288094  23.8778973  46.7506218  41.0921555
  23.3910847  48.0133667  41.7700043  30.5034695  43.0080338  81.6823502
  30.9881649  42.2108574  81.8963852  29.7802467  42.7080536  81.1317215
  60.1461563  11.1229200  18.6530323  60.4726257  11.9500370  19.0073280
  59.8097725  10.6519384  19.4154320  64.8594208  63.1842346   4.8409071
  63.9376030  63.4160042   4.9538879  65.2187271  63.1916618   5.7280803
   2.4424646   7.7761369  60.0208931   1.9942986   7.5951424  59.1946831
   1.8297938   7.4823074  60.6950798  45.2234726  21.3013954  75.5405807
  45.4714127  21.0753746  74.6441040  44.9972343  22.2305679  75.4994812
  49.8794403  67.4601593  75.9821014  49.2799110  68.0785599  75.5645142
  50.6668243  67.9740067  76.1616135   5.3720584  28.8422852   7.9431677
   4.5533624  29.0263271   8.4037085   5.5926995  27.9457912   8.1958466
  73.6808777  40.2190857  70.3710632  74.0298767  39.7566032  69.6091309
  74.0070648  41.1141739  70.2780609  21.3745880  48.9017601  77.2561264
  21.6125298  49.8031349  77.0390091  21.9020672  48.3655701  76.6641006
   4.5880132  49.3132362  22.4776897   5.1405129  50.0778732  22.6398659
   4.4729867  49.2980423  21.5275478   8.4130497  67.1474075  62.6886520
   8.8807974  66.9593735  63.5023384   7.4879346  67.0611191  62.9187584
   1.5957608   8.7994394  14.8457718   2.3332138   9.0072966  15.4195232
   1.5902470   9.5041208  14.1979866  81.3750992  37.3269806  27.8576374
  80.4551239  37.5491066  28.0009823  81.3805008  36.8544426  27.0252247
  58.2070541  68.0894699  26.0440063  57.2961807  68.0009918  26.3245678
  58.7164650  67.7146683  26.7625179  26.3579788   1.4645971  51.1604004
  25.6837349   0.8174880  51.3674698  26.7769184   1.6512208  52.0005760
   6.9208226  64.1868286  10.6924009   6.9100037  64.5991364  11.5561819
   6.6878095  64.8913574  10.0877752  73.9439316  48.0198555  28.3414936
  74.4984207  47.6906548  29.0488834  74.4774857  47.9206657  27.5530090
  64.0582581  45.8204117  59.0567398  63.6204796  44.9735298  59.1426048
  63.6296082  46.3784904  59.7056160   3.6352949  41.1370583  54.1173706
   3.8649442  40.9802170  55.0332832   4.4767957  41.2503128  53.6754646
  17.2409153  34.3907280  46.0567627  17.8700371  34.5461044  46.7612419
  17.6088276  34.8495903  45.3015671  56.8092651  66.1594849  69.4502182
  57.1771660  66.3003082  70.3225937  55.9151344  65.8590393  69.6129913
  38.7782097  43.3937340  82.2366486  38.5383682  42.4693146  82.1722031
  38.9992371  43.6468735  81.3403778  13.9248466  27.4874477  86.0808334
  14.2867136  28.1435909  86.6764526  14.6860313  26.9907436  85.7806473
   3.2495761   9.7130518  22.4016781   3.0822220  10.6170750  22.6680717
   3.7528455   9.7914343  21.5912418  55.4954948  20.1879005  43.6520195
  56.3198662  20.1618958  43.1662483  54.9032516  19.6290798  43.1488266
  56.5573769  70.7457504  84.0029755  56.5006676  70.5244217  83.0734406
  57.4710045  70.5777893  84.2338638  51.6995010  53.5487709  23.9335918
  51.2839241  53.0561218  23.2259045  51.8720970  52.8951263  24.6112251
  30.6282330  68.5272675   5.9075851  31.2556458  68.3408890   6.6060452
  30.7570171  69.4552307   5.7112851  67.2143173  37.8992805   3.2884502
  66.6932373  37.5810127   2.5512824  67.7628937  37.1541023   3.5334065
  65.2941742  47.5378571  41.2524109  65.6596451  48.2709923  40.7572632
  65.9431915  46.8401909  41.1614761  49.6773071  48.7084351  59.4239464
  50.0527344  49.0916519  58.6312103  48.7655029  48.5289268  59.1945610
  31.3781624  35.8163185  68.8103104  30.6453609  35.2266884  68.9879837
  32.1225739  35.2341347  68.6581802  78.1853180  26.3817368  67.7616348
  77.8854675  25.5435276  68.1133804  78.4694138  26.8762283  68.5303955
  68.9405975  47.0294380  57.7774162  68.4761734  46.6564331  57.0281448
  68.2508545  47.4084396  58.3222466  73.3626556  18.0958138  14.4221487
  73.7877655  17.3774376  13.9536896  72.8954620  17.6698284  15.1408253
  67.1684265  27.7178593  38.6007195  67.6385498  28.3829575  39.1035690
  67.8370361  27.0711002  38.3751373  27.1491776  13.9902363  35.1468735
  27.0639858  13.2631121  35.7635307  28.0483551  13.9270525  34.8248138
  81.9593887  52.7241974  51.4808159  81.3252258  53.0616684  52.1134224
  81.6764069  53.0867233  50.6413383  46.7384796  21.2418728  63.2486229
  46.3977928  21.2823582  64.1422272  47.1588593  22.0911961  63.1138535
  67.7832260  55.9435272  68.2749100  68.1906433  56.3269119  67.4982071
  67.2330017  55.2385979  67.9335022  25.2273808  39.0901718  87.8514328
  24.6998444  38.4756165  88.3615875  24.6915092  39.8817406  87.8014679
  49.5893440  20.6441479  39.0438232  49.4989471  20.9030037  38.1267319
  49.9034576  21.4331055  39.4855385  79.7721558  42.7003784  17.9548035
  80.5317001  42.3275948  18.4024124  79.5409012  43.4695015  18.4755764
  76.8048859  55.2009583  24.7042522  75.8553772  55.2424316  24.5904293
  76.9291763  54.6612244  25.4849377  41.5402756  53.0584984  15.5154285
  41.8691673  52.1596260  15.5057936  40.5903702  52.9667816  15.4412413
  17.0578060  63.5900726  60.6114693  16.5874729  63.8365440  59.8150597
  16.9025936  64.3160706  61.2156792   6.4599266  43.9997292  56.8586731
   5.5272312  44.1961250  56.7706985   6.5366826  43.0812263  56.6004219
  38.0404854  49.0588074  50.3010330  38.1858444  49.8696709  49.8135834
  38.8267708  48.9575844  50.8374481   3.4169185  39.5021133  40.3487816
   3.2548239  40.0728340  41.0999374   3.7161043  38.6784744  40.7339249
  30.6756744  48.5545616  18.0433445  30.8640327  48.6234436  17.1073914
  31.0456161  49.3523140  18.4214535  58.0272255  24.8784676  58.4692078
  58.4303741  24.8704166  57.6010857  58.6901131  25.2707100  59.0374985
  73.5170670  12.7992039  77.4666748  73.0706100  11.9899130  77.7155838
  74.2552567  12.8616800  78.0728149   2.7823825  20.1677189   8.4094725
   2.9371762  19.2704391   8.1142435   1.9576309  20.1218128   8.8931141
  50.9680328  35.9434395  81.3488998  51.5708237  35.3111343  81.7401352
  50.5834846  36.4017487  82.0960999  27.2844143  46.9424515  47.3095131
  27.1163082  46.1281471  47.7837296  28.0885468  46.7723045  46.8189507
  43.2599945  40.7787895  84.6299286  42.4578781  40.5192680  85.0832367
  43.9169807  40.8424606  85.3231430  27.6466141  64.1548767  81.6551971
  27.4736309  64.4860916  80.7739487  28.2005825  64.8235703  82.0579376
   3.2926099  41.2174149  42.5315056   3.1999114  40.6243324  43.2770844
   2.8810685  42.0318146  42.8206711  63.5090561  56.0568352  55.9155121
  62.8913345  56.3133163  55.2307701  64.3708496  56.1633301  55.5127678
  51.2101669  38.0055275  34.7841759  50.8022919  37.1407204  34.8286667
  50.8311577  38.4092102  34.0033913   8.0195236  70.5378723  84.9451294
   8.1338425  70.3055267  85.8666382   8.8140345  71.0218201  84.7197952
  62.1279564  64.2670288  23.3915405  61.5055199  64.9856186  23.5030556
  62.7133331  64.5632019  22.6945114  18.8816853  34.8103600  67.9373169
  19.0706100  34.1111641  67.3114929  18.0534382  34.5523491  68.3418808
  66.7652512  20.2007465  78.4534302  67.0174789  19.4318199  77.9421921
  66.3866272  19.8412857  79.2557144  27.3485737  49.5293159  80.6105804
  26.8118324  50.1416245  80.1073761  26.8604946  48.7062912  80.5853119
  79.4594574  31.2089367  28.6930866  78.6169052  31.5810623  28.4325886
  80.0976639  31.6399059  28.1245937  74.9764786  28.4383965  32.9382629
  74.9969482  28.5407333  31.9867706  74.8653564  29.3284187  33.2725449
  33.1317329  41.3547287   6.0475593  33.2480812  40.5640030   6.5742974
  33.4751587  41.1207771   5.1852603  84.6136856  13.6871805  82.7574158
  84.7069778  14.3419161  83.4494019  85.1411514  14.0262318  82.0341949
  85.7498322  12.8890419  15.3685989  85.4483032  13.7704458  15.1485100
  85.7845001  12.4310875  14.5287733  10.3568916  46.1410294  20.7619476
  10.4260044  45.4110146  20.1466980  11.2212009  46.5519791  20.7440624
  14.4261456   6.5528998  67.5397873  15.2456961   6.0721903  67.6559143
  13.9171190   6.0153999  66.9329758  41.8886414  23.2234535  77.0878677
  41.9241295  22.6872139  77.8799667  42.1943779  22.6423893  76.3913651
   4.8648915  54.1703453  62.3219872   5.3252687  54.0672302  63.1548424
   4.4848857  53.3087845  62.1501007  81.7850571  52.5482826  80.1923981
  81.3532867  52.9942894  80.9210129  82.1899033  51.7772217  80.5896378
   9.5347786  31.3167610  80.1077271   9.4712896  30.5403099  80.6639023
   9.8050175  30.9784508  79.2540588  34.7217407  65.1253967  84.0821609
  34.7252731  64.2294159  83.7453461  33.9818687  65.5438156  83.6419983
  83.8824768  50.8626404  51.9749908  83.3994827  51.6831703  51.8765945
  84.7675171  51.1334763  52.2190742  76.4765778  46.8105850  45.1963997
  75.8964615  46.1645813  44.7934341  77.3351135  46.6346321  44.8114471
  36.4607048  42.0843887  53.9998741  36.5969925  41.1536522  53.8227119
  35.5358887  42.1499901  54.2378654  41.6385612  27.0404205  60.8281784
  42.3892784  27.3197937  60.3041496  41.9954109  26.9083824  61.7065048
  32.6880302  18.8006458  79.4047928  31.9091034  19.2239075  79.7658386
  33.3387070  19.5007572  79.3528290   1.4099871  70.5479736  55.2864952
   1.2055721  71.4823990  55.3224411   2.0750294  70.4744415  54.6019897
  44.3350716  36.2181702  61.2744522  44.5704918  36.8285866  61.9731674
  44.1371193  35.3991280  61.7285690  25.6723728  49.8523903  19.3608971
  26.5424995  49.9444847  18.9727821  25.8321362  49.4487534  20.2139988
  10.9751415  15.0698586  76.4238129  10.7944822  14.2432947  75.9761658
  10.2584095  15.6468105  76.1598892  46.7077484  26.5380077  18.8299332
  46.8247986  26.8775005  17.9426479  46.6043549  27.3190632  19.3735256
  75.0855942  17.7046604   5.0376439  75.3661728  18.0208836   4.1788602
  74.2650757  18.1675911   5.2069864  60.1900330  38.8995934  44.9459648
  59.5180321  38.8868179  44.2644348  61.0007210  38.6794014  44.4871292
  48.0428619  11.7460279  36.4707565  47.2546768  11.2034502  36.4461250
  48.3469505  11.7680187  35.5634117  37.2405891  62.7660904  71.8250504
  37.0997849  63.6050224  71.3861923  37.9313583  62.9428253  72.4636688
  49.9861031  24.6652489  64.3503342  50.0208549  25.5297852  64.7597198
  50.7381897  24.6501331  63.7584076  41.4489479  71.6250229  22.4025097
  42.0580025  71.1961060  21.8014126  41.4487495  71.0681686  23.1810608
  51.3276939  59.2023506  67.7705307  52.2771797  59.0870476  67.7329102
  51.0888596  58.9344292  68.6578903  25.0548820  18.3053226  17.6484795
  24.2991276  18.6132469  17.1482296  25.7425900  18.1848660  16.9936657
  21.1911106  57.5922737  46.5961800  20.8239059  56.8022461  46.1996384
  21.9446831  57.2806244  47.0974121  39.9370842  32.1405754  82.5684814
  40.7149391  32.4803123  83.0109253  39.7666054  31.3007393  82.9949112
  74.8658371  38.9138184  54.3066864  74.0936890  38.5851021  54.7670898
  75.4704208  38.1718483  54.2929497  16.3212566  44.9754982  31.5751095
  15.7996168  44.2106819  31.3318405  15.7429323  45.4908447  32.1374168
  37.7281799  54.7152481  65.0890350  37.8592606  53.9396362  65.6344528
  37.2442894  54.3940163  64.3281860  76.9410553  11.7009735  61.0340881
  76.9685059  11.3400116  60.1479836  77.4727783  11.0988197  61.5545807
  56.3272362  57.7364197  43.7657318  56.0018654  58.6123619  43.5581512
  56.0879784  57.2057457  43.0058784   1.7737225  19.9458103  38.8436012
   1.2162322  20.0332680  39.6167679   2.4047592  20.6613598  38.9211464
  82.6220551  22.0223885  21.9163589  83.1077499  21.3111229  22.3340130
  82.0853271  22.3903866  22.6183071  33.6833649  31.1381130  72.8067551
  33.9984093  30.2405815  72.9135971  32.7294235  31.0601826  72.8191986
  68.1519699  30.0286694  34.6713676  68.6419449  30.6751595  34.1632309
  68.7324677  29.2688694  34.7156258  22.3434792  59.0451584  43.7211800
  22.1941795  58.1004982  43.6817169  22.4154186  59.3147278  42.8055420
  81.0813217  49.6908722  25.3116455  81.1252823  50.6154785  25.5553646
  81.9164658  49.3260574  25.6043358  80.7844009  62.2935600  83.1227875
  80.2228546  62.8475647  83.6649857  80.7986450  62.7285423  82.2702484
   7.7116299  24.3741856  84.9812927   7.2274985  24.8029194  85.6870041
   7.1244221  23.6840439  84.6728668  23.1732979  68.0416718  54.4993019
  22.4552135  67.8779907  55.1106873  23.9327030  68.2025986  55.0593338
  50.5237122  18.8517151  44.7803268  51.3159332  19.1942120  45.1942291
  50.5474434  17.9116230  44.9589195  27.9230576  10.0332298   5.8183517
  28.6279354  10.0995960   6.4625363  27.2326546   9.5460920   6.2680979
  33.9806366  42.5664978  55.1155624  33.3134956  42.5926781  54.4296532
  33.8225098  43.3556328  55.6337242  16.6156826   3.3677466  73.7932281
  16.9198227   4.0376883  74.4055252  15.6694937   3.3278916  73.9323959
  33.2835503  39.8953400  71.1737442  33.0575447  39.4635468  70.3499069
  32.9575195  39.3034554  71.8516846  75.0533905  21.4900951  28.7722492
  74.9686050  20.5396461  28.6968117  75.9870071  21.6581745  28.6444302
  84.2995453   2.3906946  65.5025711  84.0671616   2.5803123  66.4115753
  83.8873444   1.5460507  65.3211823  84.4323425  10.4966583   0.3495717
  83.6929550  10.9767447   0.7224649  84.5795898  10.9075670  -0.5023118
  17.8831558  25.7303658  81.5597229  17.7290306  25.3698177  80.6865234
  17.1380939  26.3111629  81.7139740  40.6822128  59.5113068  45.1827583
  41.2920570  58.7872849  45.0409355  40.4390984  59.7957573  44.3017273
  48.3503265  57.8365631  83.9781418  47.6070328  58.4389992  84.0067520
  48.0332680  57.0888786  83.4715118  44.9934120  17.1660271  15.9800854
  44.7945099  18.0844536  15.7979803  44.1403847  16.7317715  15.9806118
  36.0136490   6.5616040  22.6699066  36.5456886   6.7316661  21.8925762
  36.5093117   6.9522948  23.3895664  50.8400650  13.7872248  27.8789539
  51.7970200  13.8087072  27.8821793  50.5796356  14.7054434  27.9516354
  59.9813690  18.9081039  78.0667572  59.0455322  18.7140121  78.1193771
  60.0321465  19.8618107  78.1307449  46.6441841  62.7041550  86.2148132
  46.5443802  61.9801788  86.8329773  46.6703148  62.2834396  85.3554230
  21.7236481  65.8446808  44.3064690  22.6164227  65.6809387  44.0025368
  21.1704273  65.3488693  43.7028542  70.6689682  61.1382141  57.1428528
  70.2810974  61.9438782  57.4844551  69.9640656  60.4926605  57.1938667
  19.8824673  58.3965988  30.2775650  20.8207092  58.3209686  30.1037445
  19.6821404  57.6488342  30.8405476  55.1717033  66.5238190  60.4097633
  54.8320847  66.0117645  59.6758118  54.5899315  67.2821198  60.4622803
  65.3883286  49.1341743  88.5677414  64.6672363  48.9763985  89.1771393
  66.1739502  49.1060562  89.1138535  21.9738235  69.7038269  10.1153069
  22.5886936  69.8285980   9.3923960  22.2178726  70.3723679  10.7554035
  54.5799179  39.3287582  77.6570587  53.6663780  39.0442085  77.6303864
  54.7750702  39.4205093  78.5896454  24.8763371  51.4740562  22.2217331
  24.8723850  50.5392380  22.4274864  23.9671593  51.6741295  21.9990330
  60.4980774   8.1599436   7.5109744  60.6952896   9.0966034   7.5136495
  60.4256210   7.9277906   8.4367647  41.0798950  13.4695358  47.0601311
  41.6720161  13.0866079  47.7074242  41.1046295  12.8598461  46.3226357
  11.8890696   7.5010858  19.0627804  11.6136560   7.3600788  19.9685936
  11.2179108   7.0650702  18.5377407   7.3794169   1.3381096  65.7717972
   6.6570086   1.0219642  66.3143921   7.8331819   0.5436269  65.4905014
  36.8584976  38.5213051   9.4948854  37.7328568  38.5997009   9.8764381
  36.6324654  39.4125824   9.2288675  63.9831352   7.2976236  30.4511509
  64.4710464   6.4871516  30.5971317  64.6246414   7.9929385  30.5968914
  80.2228088   5.3123417  50.9334068  81.1446381   5.4574528  51.1464691
  80.1996307   4.4326639  50.5567627  16.5810223  47.4642639  55.8813782
  15.6472549  47.2926636  55.7594566  16.8538647  46.8387184  56.5525589
  19.5216999   8.6037912   8.9360323  19.2365799   9.4065018   9.3726034
  18.7104130   8.1308641   8.7506056  55.4621124  63.0628052  61.1327972
  56.3336639  63.4222298  61.2984581  55.2202759  63.4075546  60.2732086
  74.1273880   3.2310078   3.3295970  73.8288956   4.0970302   3.0518553
  73.7827301   3.1321182   4.2171011  29.1214752  66.1678848  88.8948669
  29.1791935  65.3444138  89.3794250  29.8642788  66.1434021  88.2916412
  43.8453598  59.9851379  23.3393707  44.0821266  60.8773689  23.0861969
  43.2120667  59.7083282  22.6771412  78.5764084  31.2064629  24.3732243
  79.2400970  30.6782513  24.8167744  77.7550278  30.7410202  24.5311108
  42.5446892  24.8636703   0.5227627  43.1981926  25.1013012  -0.1350337
  41.7553177  25.3356895   0.2575865  51.1297073  16.1430912  33.8947334
  51.6175499  15.5942144  34.5087166  51.1178131  15.6396370  33.0807152
  62.9628601  14.0341883  32.1521721  62.8556633  14.9628582  31.9464722
  63.5396309  13.7015705  31.4644680  71.8812332  15.9414282  81.4781265
  72.6668625  15.9424629  80.9312973  71.4509354  15.1102467  81.2775955
  12.0377607  54.5784950   1.5346718  11.3341007  54.0263977   1.1936698
  12.6118212  53.9726410   2.0033157  65.3164978  31.3260078  34.1879921
  65.8904572  30.5968513  34.4227905  65.6285477  31.6093159  33.3285789
  75.7477951  10.3402624  11.1522474  75.9902878   9.4972305  11.5352945
  75.5794601  10.1449442  10.2304306  24.9943943  54.1682663  77.9449844
  24.1944656  53.8403206  77.5341339  25.2848854  53.4517670  78.5093231
  41.6598015  63.6250343  58.7263794  42.3044243  64.1283569  59.2237358
  41.7959709  63.8931236  57.8176346  58.2961426  41.9943428  35.1896439
  57.8463707  41.1650085  35.0279503  57.6618576  42.6644402  34.9349251
  34.3008118  25.8759155  67.0051498  33.4471016  26.2410622  66.7726059
  34.4816017  26.2262249  67.8774033   2.7836123  36.9612083  56.7483253
   2.6810582  36.1310310  57.2136383   3.6649249  37.2566185  56.9769135
  55.5810471  22.3944492  68.2771988  55.5941238  22.2109680  67.3378372
  54.7060051  22.1296749  68.5607986  58.5655136   3.4751067  28.9739494
  58.7013283   3.0202699  28.1427402  58.0413399   4.2423878  28.7442627
   3.7489393  44.0824699  56.2662430   3.3939097  44.9386940  56.5051231
   3.2221191  43.8054047  55.5166245   6.3090792  46.2006111  62.4235001
   6.0307059  46.7253990  61.6729393   7.1707788  45.8658142  62.1752701
  25.5683308  47.9494362  28.4918480  25.3261719  48.8702927  28.5899067
  24.8796635  47.5780945  27.9404202  41.5933266  17.8401718  68.7379761
  41.7098770  17.8893394  69.6867752  41.2329979  18.6934204  68.4963913
  68.5055237  63.3440552  18.4199505  68.4356232  63.7466316  17.5543423
  68.0457001  62.5089912  18.3335609  11.2196999  26.2539692   5.2244573
  11.0817356  26.6147995   6.1002417  10.4718037  26.5672455   4.7157903
  69.1838760   5.3287921  74.1694565  69.7042770   6.0766821  74.4628448
  69.7629852   4.8527966  73.5742264  62.6605682  17.9639568  47.5263939
  62.8272552  18.8634624  47.8080635  62.8802223  17.9601154  46.5947456
  55.1028481  20.0318871   8.5417452  55.0859337  19.2656727   7.9682798
  56.0333748  20.1960983   8.6946735   5.5616503  35.4366989  26.6189251
   6.2036271  36.1357498  26.4947281   5.2121997  35.2739944  25.7427731
  30.2695713  69.0454712  46.0928345  29.8003902  69.7256088  46.5760651
  29.6832600  68.8162308  45.3717804  66.0638351  48.7531281  85.4010849
  66.1433868  49.6692162  85.1352158  65.6858292  48.7906799  86.2796783
  69.1897583  47.9274063  27.3965187  69.8404694  47.3822823  27.8388386
  68.9997406  48.6276894  28.0207977  31.7669277  32.3802452   5.4042835
  32.3925781  33.0957375   5.2908559  31.2204876  32.4131660   4.6190763
  49.4556847  65.5009995  44.1253891  49.3023796  64.8489456  43.4416122
  48.6333923  65.5332336  44.6142960  29.2447624  31.1552505   9.2775660
  29.1996422  30.2249489   9.4983320  29.7610188  31.1855030   8.4720879
  45.0298500  27.1590137  52.8357925  45.2588882  26.8645897  51.9542694
  44.1619339  27.5510197  52.7394371   6.4339852  25.4595833  10.7865496
   5.9602489  25.0897789  10.0415335   5.9683981  26.2714615  10.9873371
  49.6503906  12.2906952  10.0120649  49.0875092  11.8709564  10.6626139
  50.4441338  12.5209150  10.4949751  80.5230713   2.7093511  65.7136993
  79.6333008   2.4258537  65.9238739  80.6963882   2.3340273  64.8503799
   2.0650821  47.4592896  82.5203857   2.3261149  48.0587463  83.2194901
   1.6470003  46.7282562  82.9753952  58.6773682  35.2203484   9.7309151
  58.4962234  34.6882095  10.5056705  58.4999657  34.6371269   8.9929380
  37.6344681  36.0778160  27.8797626  37.6312904  35.4046669  28.5602722
  38.3598862  35.8338165  27.3048973  65.2778473  13.1922426  13.7695122
  65.0759048  12.4360991  13.2184267  64.6880722  13.1070118  14.5185995
  62.1710091  12.3170767  73.5977402  62.9319344  12.6289120  74.0876160
  62.2934494  11.3693275  73.5428543  59.0423317   1.0685002   2.7083018
  58.8792343   0.2240694   2.2881019  58.4516029   1.0793440   3.4613962
  81.7284393  49.1466751  49.0196800  81.5657501  48.2404976  49.2816124
  81.4903793  49.6646690  49.7886009  78.8149109  63.3548813  73.3757858
  79.0391464  63.7993546  74.1933365  78.1172485  63.8891563  72.9962540
  25.7522926  49.9273834  44.1406326  26.6318550  49.6378136  43.8982468
  25.8840504  50.7899704  44.5340996  78.2942886   9.5246258  25.3518524
  78.2031784   9.1048317  26.2072487  79.0449829   9.0878658  24.9494476
  51.5655594  54.2164993  44.7777977  51.2299004  53.9267426  43.9295044
  50.7816467  54.3927612  45.2980385  29.9004955  65.4974670  11.8637857
  29.6797123  64.7467117  12.4150181  30.6951122  65.2300568  11.4019375
  39.6409683  26.1434021  45.5723610  39.2614937  25.9756336  46.4349632
  39.7510719  25.2745724  45.1860352  11.5917053  41.6269836  11.1257124
  10.6945581  41.5045052  11.4361267  11.7102127  40.9478264  10.4616823
  64.4631577  56.0679703  46.9786263  63.6666794  55.7535896  47.4064217
  64.5323181  56.9847069  47.2451630   2.5816987  37.6593628  12.2370901
   2.7490389  37.7658157  13.1735182   3.4308460  37.4163322  11.8681498
  74.5338898  13.6592064  66.6661453  74.7844925  13.5840912  67.5868988
  73.5769882  13.6791611  66.6792221  49.5090446   8.8923187  33.9714470
  49.3434639   8.5301161  33.1010284  49.2941132   9.8214350  33.8890953
  59.7586784   6.2528272  47.9804420  59.5519333   5.3188419  48.0144958
  60.0971336   6.3911190  47.0958214  37.1783409  47.8135147  39.9758949
  36.2968178  47.6585732  40.3152199  37.4008904  47.0073395  39.5102921
  15.9913368  18.8713074   8.2557039  16.7602558  18.5730782   8.7415562
  15.3758163  19.1545467   8.9318266  77.8758087  53.3965950  15.7301960
  77.6866531  52.6773758  15.1275549  77.6987152  54.1879959  15.2217169
  11.5473070   8.0354061  85.7473297  12.4222775   7.9515476  86.1263123
  11.4653263   8.9657240  85.5375137   7.8842883   2.7039099  87.6560287
   7.3171449   2.3361340  86.9782944   8.3592882   1.9501070  88.0058670
  32.6946335  16.4074192   4.6260815  32.2572250  15.5572653   4.6723585
  33.5209923  16.2772446   5.0912910   4.4697304  21.6338367  18.2583542
   4.0407996  21.0972595  18.9249401   3.8086982  21.7395840  17.5741863
  53.6678352  56.1387901  62.4912987  54.1279602  55.7060814  63.2105217
  52.8017769  56.3384285  62.8467102  27.9713020  37.1526222  10.1892834
  28.2289829  37.7982941  10.8472662  28.7136669  36.5502815  10.1411953
  57.3345871  64.2135468  20.4663849  56.5866966  63.6203804  20.5374031
  56.9437637  65.0761185  20.3268719  72.0476837   6.1635652  57.0477867
  72.2359238   5.3411598  57.4999466  72.1285172   6.8338804  57.7262955
  40.9358864  67.4115601  56.8007660  40.2330856  66.7617645  56.8087692
  41.6816673  66.9626694  57.1989403  55.9589729  61.6067886  10.1516380
  55.9056015  62.3852806   9.5972633  55.0726318  61.2454605  10.1431198
  71.0949326  29.6838722  30.9133987  71.6001587  29.5640125  31.7175179
  70.2265472  29.3398132  31.1226120  81.8233719   9.2802591  51.1808205
  81.1611862   9.9402103  51.3862495  81.3938446   8.6965361  50.5555115
   1.4477345   0.4224139  22.6713467   1.1266224  -0.2393251  22.0587940
   2.1760838   0.8405421  22.2120991  25.8744488  70.4581985   4.1106029
  26.1487961  69.5890884   3.8180122  26.5215816  71.0535660   3.7324638
  47.9792900  18.2127914  59.7924919  47.5799561  18.4761600  60.6215897
  47.3172455  17.6646481  59.3712234  52.6832619   9.9015608  32.6524162
  52.7844505  10.7046061  33.1634064  51.9760475  10.0964518  32.0375214
  55.8682022  71.0942688  70.5940247  55.6791306  70.3101196  71.1093903
  55.4895401  71.8117828  71.1019821  27.1721916  26.7712440  65.2277679
  28.0643787  26.4657974  65.3918915  27.2228012  27.2146301  64.3809662
  59.6949615  34.1527634  37.6277466  59.4206085  35.0436287  37.4102097
  59.7082863  33.6943588  36.7875557   9.8248205  53.1578331  64.1895447
   9.7968607  52.2568970  63.8674164   9.5946074  53.6914062  63.4289284
  20.1013527  65.6865311  18.1527462  21.0504417  65.5621948  18.1508427
  19.9599247  66.4421463  18.7230778  55.8760910  13.3507910  50.8590622
  56.1414070  12.5915556  51.3781013  56.4691391  14.0492687  51.1359253
  18.2590961  27.4461994  79.1701965  18.2897053  27.2373734  78.2365570
  19.0092735  28.0237770  79.3111649  27.9871616   1.4822897  10.0760899
  28.2255688   2.3013711   9.6419249  28.7422962   0.9101619   9.9394388
  37.0569305  59.0680275  65.7818985  37.5761833  58.2648697  65.8212585
  36.7261124  59.1832504  66.6726913  47.0040855  54.6471710   3.9489818
  46.9613609  54.5679932   2.9960196  47.6617584  55.3252258   4.1037340
  64.9644547  53.4207993  73.7767334  64.2154617  54.0131264  73.8430252
  65.5753860  53.8715057  73.1937637  68.1631927  36.3528061  20.4787521
  67.7450485  36.0594597  21.2882786  67.4375305  36.4855461  19.8688183
  75.6823349  15.0180779  43.0947800  74.9566650  15.5054102  43.4848328
  76.0475845  14.5111284  43.8199196  85.8766785   7.9095831   4.6069059
  85.6232910   8.2733707   3.7585623  86.4905777   7.2071457   4.3925695
   0.2579293  11.0126925  44.9706306   0.1178388  11.9079828  44.6623077
   1.2088711  10.9300318  45.0421028  47.8848495  53.8411560  56.7817421
  47.7113647  54.6067543  57.3294601  48.7700844  53.9824066  56.4461212
  84.4519806  24.0426121  44.8292084  84.7050705  24.3954277  45.6822586
  84.2624054  24.8153667  44.2970924  84.1378555  26.2654915  37.2436295
  84.2616348  25.3242741  37.3661957  83.5650024  26.3342762  36.4798622
  68.0465164  56.1114655  15.5819349  67.4529114  56.8327026  15.7909317
  67.9244766  55.4861450  16.2962952   9.3718843  69.2053299  21.9633141
   8.9949408  70.0782700  21.8531609   9.8403664  69.0417099  21.1447868
  33.8945198  71.1629791  57.4807014  33.8883438  71.9252930  58.0595551
  33.0207977  71.1518936  57.0899162   1.0093305  70.8561249  29.0316525
   1.0625123  69.9746933  28.6622162   1.2339993  71.4350815  28.3032513
  46.5431366   7.1735845  32.5744324  46.2096672   6.9047046  33.4304314
  45.8001633   7.0604463  31.9816246  67.0051346  28.3412342  12.7469177
  67.6235123  27.6333714  12.9279461  66.1444626  27.9247952  12.7921171
  42.8122406  29.8909702  65.1462097  42.8549652  29.2053738  65.8128128
  42.8473473  30.7092419  65.6416245  85.0886154  61.8084068  45.0021286
  84.4007645  61.2227821  45.3185616  85.8564377  61.5814857  45.5267143
   4.8544493  61.7738647  67.1365891   5.1912999  62.2274055  67.9092865
   3.9732449  61.4963188  67.3869476  27.7923508  66.6759109  58.8751259
  27.8255463  65.7990112  59.2574577  28.7081184  66.9497681  58.8240776
  43.8973885  64.9229050  63.1980476  43.8185959  63.9901543  63.3980751
  43.8639412  64.9665909  62.2424316  17.2443104  50.8920059  57.4928055
  16.8766365  50.8943748  56.6090393  16.6527367  50.3332291  57.9968338
  47.0640335  39.3105621  67.3790436  47.1618919  40.2625732  67.3608704
  47.3031502  39.0283127  66.4962082  40.5999374  54.9657669  42.9291267
  40.1922150  55.2088509  42.0979195  40.1374741  55.4880676  43.5845337
  64.4072571  63.1331635  12.2154732  64.2733002  63.8674850  11.6162586
  65.2787399  63.2799759  12.5831623   1.6760255  46.6161118  23.5730286
   1.6099143  46.0057449  24.3074112   2.6142647  46.6722260  23.3919487
   4.4157972  30.1143227  42.4159203   5.1156192  29.8779087  43.0246811
   4.7484007  30.8853149  41.9563789  45.5449295   5.2988935  74.2408218
  45.5926361   5.6577630  73.3547287  45.9440765   5.9710073  74.7932510
  84.0469513  39.8687286  25.7104359  84.6315460  39.6167679  24.9955997
  83.1789551  39.5885773  25.4200459  37.1725349  28.9035130   8.3909769
  36.3654213  28.8320007   8.9005747  36.8769112  29.0764160   7.4971404
  22.6430244  50.6740456   5.6256757  21.9203758  51.2804108   5.7879457
  22.6507225  50.5594368   4.6753926  66.3988419   1.8438170  52.7281342
  65.6648178   1.3452080  53.0870667  66.2695847   2.7324657  53.0595360
   9.2691717  46.2448158  40.0497971  10.0426512  46.2005882  39.4876556
   9.2648001  47.1428986  40.3809547  81.9175262  31.5119553  20.5287857
  82.7860184  31.2003784  20.7835007  81.3955917  31.4466743  21.3285027
  50.9019699  56.1213837  59.9938812  50.3675156  56.8644638  60.2739182
  51.0545044  55.6205673  60.7952232   0.1636146  39.2668457  35.0306854
   0.6337256  39.9304047  34.5257912   0.4537093  38.4335251  34.6596718
  54.0325737   3.8370562  39.9483414  54.0798988   3.6226435  39.0166626
  53.1188927   4.0840769  40.0911560  79.0650330  20.1705914  78.2327499
  78.1869736  19.9149685  78.5153961  79.3377304  20.8328857  78.8677521
  83.4253311  69.2873611  83.1860962  83.6049194  68.6861801  83.9089813
  83.4519348  70.1568604  83.5854492  67.1461029  50.4447365  65.2985001
  67.4958038  49.5562668  65.2309494  67.7771530  50.9871216  64.8253937
  14.6869097  71.1496964   4.6281924  15.5104265  71.2030945   4.1432176
  14.8695574  70.5410767   5.3440528  70.7460403   4.1074958  37.8686752
  71.1491699   4.9694986  37.9719772  71.4392242   3.4895439  38.1007729
  38.0688591  35.8320618  86.5583191  37.5955582  35.0975342  86.9490662
  37.4033241  36.5096207  86.4391174  83.1452484  36.2457962  64.8426132
  82.7815704  36.2603989  65.7279053  82.4290543  35.9246788  64.2947311
  55.6905441  33.0269241  20.4736996  55.0793724  33.7527351  20.5998039
  55.1970482  32.2498932  20.7362270  82.9868011  34.3771324  40.3145447
  83.0722198  33.4246902  40.3568802  83.5000534  34.6968536  41.0565567
  67.6914444  46.3353081  88.2308655  68.4765701  46.4769440  87.7019501
  67.5206757  47.1844940  88.6382370  64.6143570  13.7593784  51.3652420
  64.0942001  13.5415611  52.1386909  65.2644119  13.0590448  51.3087769
  17.5610600  42.7122917   9.2076836  17.5251884  43.5288391   8.7094946
  16.6721554  42.5974731   9.5436878  26.7765598  37.7012482  38.7708511
  27.0727406  37.2925491  37.9575386  25.8728752  37.4028702  38.8735847
  11.8173208   5.4487667  11.1740389  11.3256865   6.2520814  11.3449554
  11.2197762   4.7443066  11.4248543  81.7028809  59.6803017   7.2828465
  82.6056137  59.3620911   7.2898202  81.2476501  59.1231613   7.9141870
   7.7631569  61.7661171  19.3349705   8.4850426  61.8595886  19.9565620
   8.1885433  61.5551491  18.5038433  25.7747440   6.3911171  64.3388977
  26.5883808   6.8408298  64.1108932  25.3916073   6.1473074  63.4962845
  77.5778961  62.2193413  70.4183578  78.3594437  61.6668968  70.4331436
  77.5817795  62.6165276  69.5474625  69.6259079   9.6078882  10.4488554
  69.2421646   8.7349157  10.5318451  69.5395279   9.9914474  11.3215828
  53.3901978  56.4854965  20.5417156  52.5014725  56.8407326  20.5271797
  53.4588852  55.9788589  19.7325001  21.5156059  27.7707062  75.5344086
  21.4017429  27.0403996  74.9262009  22.4506340  27.7682724  75.7392273
  26.2134514  30.1587486  72.0482712  25.5921021  29.5741558  71.6142120
  25.6839390  30.6437740  72.6812057   6.9397559  12.0989857  79.8349152
   7.2540355  11.2171364  79.6354141   6.3440590  12.3093500  79.1157990
  56.5684700  11.2828207   0.3884711  57.2106819  11.5362606   1.0514669
  55.7281075  11.5668573   0.7481183  31.2659645  27.7012901  85.7042389
  31.3526840  26.8020210  86.0205078  30.9319057  28.1888313  86.4571915
  72.5058060   8.1524773  58.6814156  73.0068512   7.8200030  59.4261589
  73.1627045   8.5469751  58.1077499  46.5674095  56.1982040  88.2084656
  46.9929008  56.9500923  87.7963333  46.7477608  55.4672356  87.6173706
   9.3420191  34.4173203  76.9381790   9.7318783  33.8722115  76.2547302
  10.0665445  34.9547577  77.2582626  79.7689209  66.7217636  78.0881958
  79.7466125  67.0322876  77.1830368  80.3343735  65.9498444  78.0627289
  65.5532227  43.8119850  61.7504311  66.0496445  44.3126488  61.1030235
  64.6391830  43.9209747  61.4879684  35.7430038  17.4668236  80.3151016
  36.2925568  17.4107399  79.5333862  35.6800880  18.4044971  80.4968719
  41.4278259  69.6673050  64.0158844  40.5074081  69.8221512  64.2282181
  41.5345879  68.7190094  64.0904922   5.9205713  42.7603188  73.2275314
   6.7653017  42.9688797  72.8285751   5.6674957  41.9268608  72.8306274
  40.6445770  63.4055176  45.2255516  40.7153893  63.0442238  44.3419876
  39.7053223  63.5352745  45.3566856  20.9297199  58.2393379  40.7973633
  20.3481750  58.6033859  40.1299019  20.8274555  57.2913704  40.7129059
  60.1634865  28.5646629  48.7972412  60.0816917  27.6748180  48.4541397
  59.5211906  28.6082134  49.5056152  25.0008202  -0.1082551  60.2028923
  25.8966999  -0.3908575  60.0191345  25.0609798   0.8439879  60.2793503
  86.1905594   6.4723525  28.9338055  85.8660507   6.2378502  28.0643616
  87.1388397   6.5433168  28.8244190  26.2730446  40.5379562  18.3129101
  26.7981091  40.6309204  19.1078300  26.7300472  39.8708916  17.8006516
  70.9738388  43.8093910  44.3415985  70.9794769  43.0731735  44.9533043
  70.8148041  44.5765228  44.8915558   6.2657647  64.5135269  42.5463257
   6.5614367  65.2957840  42.0806122   6.3135796  64.7533340  43.4717636
  51.4379234   4.2349844  28.7990265  52.3059387   3.9831593  29.1142445
  51.3298073   3.7492175  27.9813633  20.4204884  17.4277477  75.9255829
  21.1601982  16.8395882  75.7735062  20.1494751  17.2441196  76.8250656
  62.3199615  52.4671440  79.2728806  62.7497215  51.6769028  79.6000748
  63.0235825  53.1127892  79.2073746  55.9244385  24.3740063  71.1103973
  55.8527832  24.7811394  71.9737320  55.7164001  23.4521217  71.2623215
  56.8170357  52.7470360   9.8771486  55.9715538  52.6076088   9.4505873
  56.7679443  52.2296982  10.6810064  14.7161303  44.7043800  81.8206253
  15.4339600  44.2320328  82.2423325  13.9983501  44.0718422  81.7902832
  50.8621559  10.0519037  19.2142410  51.2130089  10.6362944  19.8862667
  50.1036148   9.6396379  19.6276188  81.3667755  15.5020943  64.3143005
  80.6592407  15.6499691  64.9417953  80.9211273  15.2460756  63.5067787
  65.0568695  21.5092678  16.6766815  65.3204422  22.4212112  16.7996578
  65.2888489  21.0797863  17.5000648  85.7318192  51.4721146  13.7947989
  86.2857590  50.9792671  14.4001789  85.2960587  52.1231308  14.3448229
  40.2788162  11.7981319  20.1898136  39.4230919  12.1569185  20.4248524
  40.1035080  11.2348213  19.4360371  18.0329800   5.5347357   7.8109946
  17.7830925   5.7131238   8.7176180  17.4124832   4.8671794   7.5184460
  28.8878174  32.8816605  82.0138550  28.5489635  33.3719711  82.7628555
  29.4243031  33.5143852  81.5362778  20.1581535  13.9415483  78.8597183
  20.3773155  13.0100632  78.8828735  19.2996006  13.9751825  78.4378281
  60.1977921  64.0772858  79.4394989  59.7128677  64.6799240  80.0033340
  60.7972069  64.6389465  78.9480972  67.5883942   8.8032560  44.8464508
  67.3367233   9.4929991  45.4605751  68.5086365   8.6299925  45.0448570
  20.8471565  41.3691673  64.1922836  20.3106022  40.6081886  63.9703522
  20.3757687  41.7937737  64.9090347  37.4500656  54.7549591  56.6221542
  37.5483742  55.7029266  56.5331383  38.2951508  54.4570847  56.9587975
  31.8142376  71.4114304  53.1321335  31.7332001  71.8218460  52.2711868
  32.0543709  70.5042725  52.9433823  19.2562675  71.0719986  11.9205303
  19.3527641  70.6157455  12.7564487  19.2999573  70.3781891  11.2625408
  63.0735664  69.1518631   5.8546119  63.4059486  69.2192307   6.7497182
  62.4812088  68.4002457   5.8750134  79.5522842  12.3144636  43.8698807
  79.7219162  12.2269869  42.9319000  79.0163727  11.5520697  44.0884819
  84.7193985  17.6171741  77.0081177  84.5413284  18.4589329  77.4275970
  84.0574646  17.5476093  76.3201904  82.6153183  69.4760971  47.4911652
  83.3531418  70.0515213  47.6930084  81.9931107  69.6258087  48.2029800
  85.7933273  15.1661777  24.1843395  85.6058884  14.2283688  24.2244930
  86.5408936  15.2863016  24.7699547  84.9753952  40.8016510  56.3521156
  85.9158554  40.7683029  56.5271873  84.9122238  40.9182434  55.4041443
   1.3482288  36.8038750  34.7922287   1.6919941  36.4535255  35.6140022
   1.9331934  36.4548531  34.1197472  53.1681137  45.0468140  42.1192436
  53.8061295  45.6569901  42.4891853  53.6618423  44.5507011  41.4662971
  16.1137791  58.8264847  55.6688766  16.3710861  58.3456841  54.8822021
  15.3010454  58.4068184  55.9509659  14.3028221  51.5322952  73.5598450
  15.2467842  51.6907578  73.5673828  14.0650597  51.5459709  72.6327438
  11.8773499  50.6250229   1.5124863  12.6742954  50.5940018   0.9831971
  11.7423496  49.7205963   1.7953687   2.5697951  54.6374054  30.0446758
   1.7634023  54.1332779  29.9359627   2.4262078  55.1503487  30.8399773
  55.6879921  20.3211536  82.0701370  56.4429932  20.1715679  82.6391983
  54.9442940  20.3812294  82.6697464  21.0071106  33.9317665   5.6221623
  20.1938744  34.3136139   5.9524202  21.6655083  34.1686668   6.2753239
  83.9606094  51.8777466  30.8238277  84.5351410  52.6049500  31.0632439
  83.0756073  52.2233963  30.9401207  81.2111664  22.6286354  16.5529976
  81.1531143  23.0464687  17.4122276  80.9737091  21.7154751  16.7141914
  25.0770988  16.5195656  13.3308477  24.1670723  16.4507027  13.6195345
  25.4780521  15.6943521  13.6037807  38.1807404   2.2259691  19.1569290
  38.7633362   2.6128981  19.8104553  37.4197235   1.9328456  19.6580944
  18.8210392  69.5720596  16.8032932  18.0454693  69.4229965  17.3441315
  19.0447731  68.7063522  16.4616337  47.7910118  13.9343853  83.0352936
  48.5908470  13.6198568  83.4566803  48.0428123  14.0823507  82.1237335
  27.6705055  68.7677155   8.5893908  28.0756798  68.9148331   9.4440374
  27.5149727  69.6466141   8.2435846   6.1910081  30.9667282  85.1450424
   6.2452726  31.8660660  85.4682770   5.8434896  30.4672127  85.8839264
   1.9533811  36.5756340  79.7288895   1.0403209  36.3194237  79.5988541
   1.9172920  37.2597809  80.3973770  45.9331398  26.1230659  78.1613922
  44.9947433  25.9449978  78.2241592  46.3481255  25.2710629  78.2959595
  12.0333128  35.5518379  15.6600208  11.9345217  34.8961105  14.9697332
  12.4285898  35.0741959  16.3892994  63.8376770   5.8399668  68.2330017
  63.1554642   5.7450418  68.8976898  63.5454674   5.2860913  67.5090790
  26.6430435   6.9759827  80.8401566  26.8228989   7.8775535  81.1067123
  25.6881618   6.9098773  80.8479538  46.7977638  39.6138458  75.1055374
  47.2380447  40.0287895  74.3637772  46.6122627  40.3344765  75.7076263
  20.7426224   7.4055552  66.6108246  20.6128445   8.3481102  66.5060349
  21.6722965   7.3135037  66.8193130  67.8353424  17.2588367  54.1916161
  67.5562286  18.0887299  53.8048325  68.4212875  17.5120869  54.9048958
  61.2020760  11.4319153  85.9941101  60.4559402  11.3790283  86.5913696
  60.8175240  11.3435163  85.1220169  50.1539078  31.8352242  77.1104355
  49.2874298  32.1651993  76.8726044  50.6219063  32.6040840  77.4361115
  81.2730789  34.9230499  60.3100739  82.0358429  34.7251320  59.7667007
  80.5225296  34.7434006  59.7438354  43.7134743  40.5167427  71.1379852
  43.1605949  41.0111961  71.7430191  43.2820587  40.6100044  70.2886200
  72.5475159  15.4580193   7.7976732  72.0500793  14.8103952   7.2982965
  71.8973312  16.1102848   8.0585184  84.1782227  37.3066521  41.0746727
  84.9597244  37.4638901  41.6045532  84.4395523  36.6209450  40.4600677
  84.9360504  11.7313957  59.8498993  84.7982635  12.6628771  59.6778793
  84.1519089  11.3053513  59.5037117   9.6727562  67.0750580  86.8328705
   9.7245541  66.5263367  87.6154633   8.8095808  66.8863220  86.4647141
  58.6122284  32.3319893   1.4964833  58.5302773  31.4491825   1.1356953
  59.5026550  32.3661613   1.8460574  42.8475571  35.0145264  68.9840546
  43.7577133  34.7791519  68.8039169  42.5980186  34.4586563  69.7222748
   7.1304750  65.6223602  24.9075413   6.5130663  66.3138428  25.1460476
   7.8410816  66.0801849  24.4584713  52.3124580  57.8536720  36.8474655
  52.0648003  57.1585693  37.4571609  52.5989571  57.3908119  36.0601196
  16.5863876  27.2792301  73.3955536  15.6413450  27.1852245  73.5150986
  16.9323864  26.3951683  73.5178299  21.0796299  29.1634045  15.1743574
  20.7414265  29.0764618  14.2831278  20.6807213  29.9684811  15.5044394
  65.1040192   1.8452437  19.9497738  65.4699097   2.6744885  19.6420250
  65.2775345   1.8415600  20.8911076  58.4749565  45.5951233  55.2581749
  59.0494499  45.1229897  55.8609009  58.9240761  45.5496597  54.4141045
  31.1156540   8.1363821  68.6550751  31.4335823   7.7967024  67.8185501
  31.0327988   7.3622856  69.2119751  77.6892700  44.2941208  28.5995884
  78.0176239  45.0931778  28.1873722  78.2781830  43.6057434  28.2904816
  27.8080902  61.9773827  41.6475334  28.0817604  62.8877144  41.7599297
  27.2138062  61.8137779  42.3798523  79.5793533   3.2291207  14.6917124
  78.8790741   3.8808455  14.7248497  79.1357193   2.3933191  14.8361311
  35.0028076  55.3209991   0.7220478  35.9407654  55.2210541   0.8847535
  34.6779442  55.8035927   1.4821787  72.3689728  65.8278427  59.5223732
  72.6011505  65.9429092  58.6009140  73.1775589  65.5275574  59.9374084
  85.1732254  12.5084629  24.5391254  85.7115326  11.7653894  24.2665367
  85.1216354  12.4301710  25.4917221   5.6195507  63.4454002   6.0066671
   6.3019671  63.2226601   6.6398554   4.9284554  63.8493271   6.5315099
  63.1594429  18.5867558  34.4854393  63.1106224  19.1501160  33.7131233
  63.0243301  19.1805325  35.2239571  20.0049229   9.0666809   3.6832259
  20.0068817   9.5157738   2.8379190  20.5189667   8.2731237   3.5340333
   1.6524811  46.7724266  28.5437431   1.2832111  45.8971100  28.6607418
   2.1531425  46.9301224  29.3441811  42.0525856  27.1414032  16.4403496
  41.1464729  27.3222485  16.6903286  42.5700684  27.4244308  17.1942291
  60.6550026  51.1069298  23.5692444  60.4630318  51.9732094  23.2101688
  59.8295746  50.6281509  23.4939423  42.3943024  13.6915426  17.5923462
  43.1867485  13.1801119  17.4289398  42.2951508  13.6820107  18.5443478
   8.1037273  62.2764969  42.4227142   7.7872176  63.1764374  42.3442421
   9.0300579  62.3269730  42.1869278  20.7189751  11.6627007  68.7470322
  19.8087540  11.7184343  69.0379257  21.1623230  12.3736038  69.2099457
  41.2215004  59.7759705  61.1126175  40.7420158  59.7358627  61.9400940
  40.9389305  58.9966431  60.6340446  17.5491257   7.9182758  22.8362408
  18.3256092   7.6001406  22.3757019  17.8901691   8.3013697  23.6444244
  14.8369637  35.0050888  74.7284393  15.0081673  34.6248245  75.5900192
  15.2522631  35.8669205  74.7602005  64.7265854  35.0108566  11.3980141
  65.0098648  34.2625198  11.9233475  64.6718292  34.6698112  10.5053091
  16.4554863  36.2430916  22.0264931  16.7706985  36.3142014  22.9275017
  16.0703335  35.3682632  21.9758320  51.3756866  13.7729101   3.9601324
  51.8688011  12.9528027   3.9823523  51.4969025  14.1012068   3.0692008
   6.9648027  45.2176590   3.1258483   6.9302588  44.7869148   2.2717421
   6.8884573  46.1508064   2.9267509  47.8760414  51.0784798  85.4628143
  47.1184464  50.8058319  85.9804535  47.5731773  51.0386124  84.5556717
  56.4593887  22.4666443   5.4865665  55.7324562  22.7946987   6.0158868
  56.6825066  23.1957951   4.9079566  56.6619949  31.5190945  82.8340530
  56.7854729  32.1961975  83.4992676  56.2329178  30.8012638  83.2997131
  55.9662781  38.9816628  36.7357597  55.6804161  39.3375893  37.5770836
  55.3625603  38.2590294  36.5638466  17.9534264   2.3592007  79.9979553
  17.1565170   1.8291674  80.0131760  17.6407528   3.2592034  79.9059601
  37.7999840  42.8856087  86.3667450  37.8059387  43.8242950  86.5539932
  38.7033501  42.6060486  86.5151062   9.2637005   1.4678012  55.1480141
   8.4166441   1.7217244  54.7816086   9.8950996   2.0377784  54.7090454
  -0.0849830  53.0821419  66.2247162  -0.6341746  53.7967148  65.9022141
   0.7588792  53.2149658  65.7928772  55.9836121  19.0258579  46.0167465
  55.4616203  19.5593319  45.4174461  56.8546982  19.4219494  45.9931641
  65.8327560  62.5622330  56.8549118  64.9746399  62.6082611  56.4333115
  66.1879501  63.4472542  56.7723694  66.2376785  39.2440758  45.6401711
  65.3150101  39.4811440  45.7335815  66.5691910  39.2136421  46.5376129
  11.9110584  60.1328697  18.2233753  12.5726976  60.7563400  17.9237900
  12.3538246  59.6202621  18.8997078  30.6748848  24.8338547  13.8118486
  31.1935692  24.0374260  13.6982689  30.4376011  24.8349342  14.7391710
  55.3757782  39.3683243   8.8101702  55.5957069  38.4412231   8.9015188
  56.1368332  39.7533379   8.3756714  79.4944077  63.7460480  44.0538864
  79.7077103  62.9245110  44.4963913  80.1419525  63.8153801  43.3523788
  25.5246754  64.8313522  13.0182276  25.6087875  65.6374283  12.5089178
  25.0047417  64.2503433  12.4629517   8.5938644  22.4381390  69.9237137
   8.0205402  21.8678665  70.4358826   8.4588709  22.1617832  69.0172653
  60.6954765  33.1955032  35.1590309  61.6416321  33.1564255  35.0194016
  60.3335228  32.5814705  34.5201378  69.4157562  38.6580658  23.7586422
  68.7137070  39.1410980  24.1945839  69.3457642  38.9122009  22.8384514
   6.9717526  59.2715912  85.9534760   7.4724650  58.4643745  85.8354950
   7.1619787  59.7880630  85.1703415   2.6909645  10.0242414   9.3737888
   2.6331978  10.1232624   8.4234791   2.3858628   9.1324463   9.5406599
  37.0777473  21.6603508  74.6368332  37.7466087  21.7038136  73.9534836
  37.5467377  21.8693581  75.4446640  49.0940857  38.5106468  77.3752213
  49.9450645  38.9200211  77.5316696  48.9733658  37.9180260  78.1171494
  47.9250908  13.3042774   6.5942183  48.5563965  12.5850344   6.5749183
  48.2048721  13.8875360   5.8886938  57.5657539  50.8039665  41.9624367
  58.3417473  50.8951645  41.4094887  57.0838928  50.0706940  41.5798759
  30.3142147  51.8370056  87.9137878  31.1994438  51.6457176  88.2236481
  30.4169788  52.6084938  87.3565826  13.8221979  57.6853561  40.7785378
  14.0222273  57.0214310  41.4384003  13.0197611  58.1016579  41.0932121
  69.6702805   7.9334698   5.9927597  70.3605804   8.0173941   5.3349805
  69.5765305   8.8143787   6.3553104  11.5174036  18.1591644  12.6118250
  11.6312027  18.7550907  11.8714514  11.5042181  17.2870617  12.2174978
  34.8325462  66.4610214  73.1060562  35.7828331  66.3793106  73.1867371
  34.5476761  65.6143188  72.7622910  80.7551193  37.4498749  82.7456360
  80.2959366  38.1219254  82.2419128  80.5212402  36.6270294  82.3161469
  24.1076221  44.7364426  54.0159531  24.6994019  44.8073616  54.7649498
  24.4183826  45.4012489  53.4013863  82.8656616  65.7626114   6.8814669
  83.1348419  65.1727066   7.5855880  83.0532684  66.6387711   7.2181878
  15.9304342  29.8022842  11.4999352  15.2867365  30.3230915  11.9801893
  16.3960171  30.4383144  10.9568605  36.2278023  52.4592857  68.0709229
  36.7595100  53.0222092  68.6336288  36.7299080  52.3893700  67.2589874
   9.1724005  26.1747952   3.2646704   9.3410397  26.7228832   2.4982550
   8.4549789  26.6148376   3.7206321  32.7344093   9.5403328  83.7339630
  32.9502678   8.7786980  83.1958694  32.0152359   9.2435551  84.2915878
  51.6697922  43.8497543  83.5375137  51.7724342  42.9347153  83.2759781
  52.5170479  44.2507553  83.3436432  26.8328609   3.8513660   0.3658156
  26.9585571   4.8002605   0.3601935  25.8858509   3.7356629   0.4433651
  71.0556335  60.5406570  87.5209732  71.0564804  60.0996361  86.6714249
  70.9208069  61.4647560  87.3109741  78.6572571  52.6733971  70.8888245
  78.5088959  53.5028534  71.3429413  78.7246094  52.0252037  71.5899277
   9.7714605  55.2038879  62.4862328   9.1202297  55.7201538  62.9612083
  10.4609842  55.8307648  62.2675743  20.9406643  52.5668297  38.7331886
  20.5038986  53.3527298  38.4048119  21.8557625  52.6755142  38.4743118
  66.3169937  30.3162327  69.7143021  66.2816086  29.6015453  70.3500748
  65.8530807  29.9784737  68.9481888  79.9529724  57.4095573  55.5143394
  79.9507751  57.7081261  54.6048965  79.2214508  57.8742447  55.9207535
  48.4516563  32.7099686  18.8497829  47.5517769  32.9683151  18.6505108
  48.4026108  31.7654724  18.9972553   2.8383865  47.3855133  59.0449104
   2.5199196  46.9999924  58.2287064   2.7305529  48.3286934  58.9223747
   0.9489543  35.1513214   2.1920233   0.0592431  35.3114510   2.5066731
   1.4844841  35.8013687   2.6468620  18.7340736  26.4843063  70.9086838
  19.6706734  26.2869930  70.8997192  18.3136444  25.6425514  71.0845184
  50.3774948  61.9914932   7.4451113  51.0767517  62.6377869   7.3472562
  49.5729218  62.5097733   7.4616656   8.1732931   7.0960283   1.9903803
   8.9408722   6.5470352   1.8301923   7.8720379   6.8382215   2.8615937
  66.0937805   8.8002224  11.3926945  66.2113190   8.0107985  10.8642750
  66.6902008   8.6843367  12.1323452  73.0949478  20.2490005  64.0618515
  72.7936172  19.8217735  63.2600365  73.9095993  19.7973518  64.2822723
  76.6744156  23.8597984  41.1609039  77.5640106  24.1580296  40.9714241
  76.5317917  23.1320038  40.5557556  79.4881744  49.6034279  10.4894152
  78.6311111  49.5822144  10.0637102  79.6704865  48.6891632  10.7064753
  49.0014687  20.3790836  57.6280098  48.8685913  20.5089760  58.5670013
  48.1933212  20.6970711  57.2255058  23.0821819  11.1562939  47.5284843
  23.2140179  10.2087374  47.5599060  23.9669685  11.5204010  47.5000076
  36.7257271  43.4347267  10.6700268  36.7700806  42.9723930  11.5069933
  37.4998970  43.1384048  10.1913986  76.6610947   2.9515169  29.7724876
  75.8308487   2.4865835  29.8762512  76.8089142   3.3699274  30.6206112
  82.3925323  48.6905594  76.0542679  82.7942352  47.8410797  76.2366180
  83.0852051  49.1969185  75.6299744  39.6656532  66.8684464  16.9606323
  38.9268112  67.2465820  16.4838142  39.5426750  67.1607208  17.8637867
  83.2925491  23.6399422  86.9094696  83.7811050  22.9600887  86.4454193
  83.9540863  24.2888260  87.1493530  14.3397818  68.8567200  67.5481491
  13.9568520  67.9968109  67.3745117  14.2435036  69.3327637  66.7233124
  78.2313919  25.9755878  36.6238327  78.3901825  25.0323582  36.5873070
  79.0886002  26.3554955  36.8164520   1.8471141  41.0338554  68.7121964
   1.9999954  41.2919540  69.6211777   1.0391049  40.5215034  68.7413559
  67.0744629  62.9851036  73.2382660  67.3213882  63.7200546  72.6769180
  67.1554184  63.3262444  74.1289368  67.7293854  71.2784882  66.7374649
  67.9945145  72.1486206  67.0354538  66.7760925  71.2758865  66.8238449
  26.6693497  63.1863518  71.1795959  26.0231094  63.8869896  71.2674103
  26.4283123  62.5521774  71.8548355  43.0414543  67.7062836  81.7828827
  43.6751022  67.5705795  81.0783920  43.0574493  66.8885727  82.2802048
  61.0419083  55.6050148  31.6866703  61.9098053  56.0080719  31.7097912
  61.0732346  55.0118141  30.9360924  79.0860291  14.0672159   9.7827196
  78.3831635  13.7625084   9.2088156  79.0075836  13.5237951  10.5667934
  19.6026745  50.7966080  58.8562584  18.7393341  50.7519836  58.4453087
  20.2028675  50.9794693  58.1333733  60.3323174   6.0642071  82.6521759
  59.6172829   6.2491879  83.2610626  61.0561066   5.7819605  83.2113724
  57.5055885  14.6289206  58.7821312  57.6166725  14.4475336  57.8488617
  56.9667206  15.4195404  58.8099823  52.5533142  67.1020737  83.0697250
  52.0673485  66.9736862  82.2551193  52.4001198  66.2998962  83.5689850
  24.4379578  43.7778816  33.6269608  24.2009754  44.6715088  33.8749504
  23.6472168  43.4248009  33.2191658  11.9908514  54.5259705  77.7522659
  12.5389719  54.1236916  77.0784988  11.3330612  55.0197182  77.2626190
  61.7531662  53.8353462  15.2813339  62.6619949  53.5667496  15.1467295
  61.2354851  53.0907402  14.9750710   9.7152176  46.2438316  80.5133209
   9.5093431  46.7658195  79.7378387   9.0377493  46.4792099  81.1472473
  75.8117905  35.3370171   6.1160474  76.5090408  34.7269173   5.8755293
  75.2162628  34.8187904   6.6573610  16.1686134  29.3671837  67.6053848
  15.8058386  28.4813919  67.6059723  16.7170544  29.4019108  68.3891220
  28.9512711  -0.2368249  47.3644142  28.4325542   0.3333796  47.9318924
  29.5023613   0.3628933  46.8615532  56.1068840  46.1508369  35.3314781
  55.9358978  46.6638565  36.1212921  55.8346786  46.7206688  34.6121483
  44.2524376  51.9077492   4.1602907  44.1517677  51.3822899   4.9540110
  44.3160706  51.2649002   3.4539409  50.6829758  53.3454895  35.7068901
  50.1817055  52.6561966  35.2711868  50.8041039  53.0250397  36.6006851
  65.5886002  61.6202278  88.3383255  66.4733429  61.3176422  88.1336288
  65.0417633  61.2464371  87.6473236  11.2473888  68.8447266  64.7546082
  11.3526831  69.6773300  64.2942581  11.3485575  68.1799393  64.0733948
   1.7720792  61.1795616  24.0518684   1.4930182  62.0350571  23.7255440
   1.6187501  60.5822983  23.3197498  54.8177223  40.0904388  38.9702454
  54.1257668  40.6880608  38.6869125  54.4149284  39.5699615  39.6652908
  12.4727097  42.9811020  46.6501236  11.8769550  43.4379044  46.0562897
  13.0048189  43.6763077  47.0371437  13.0484562  13.8365831  80.4565048
  12.3405886  14.3429461  80.0580750  13.1254892  13.0578070  79.9053192
   4.2702050  61.4276085  73.4168167   4.6429009  61.5186729  74.2937622
   4.4414816  62.2696838  72.9951477  70.8927536  12.5964699  64.5405884
  70.5537109  12.0365973  65.2390289  71.4855423  13.2021217  64.9855881
  13.9764833  18.8794651   3.8006771  14.9120455  18.9457722   3.6094742
  13.7519312  17.9738617   3.5869222   5.6923881  40.8869324  10.8232651
   4.7484603  40.9450569  10.9710960   6.0646472  41.5702286  11.3807240
  17.6260910   9.0523863  17.2310143  18.2396221   9.5148621  16.6601143
  17.6633129   9.5301504  18.0596199  53.2685547   0.4611536   7.2386866
  53.0498619  -0.0745029   8.0012331  52.5159416   0.3655367   6.6550250
  63.6596298  11.5246067  85.0528870  62.7758064  11.6811838  85.3854065
  63.5630226  10.7825041  84.4560776  67.3799973  21.7196712   2.6544819
  66.8359909  20.9599724   2.4467537  67.7251282  21.5354347   3.5280781
  65.3749924  13.0448494  83.6099625  65.0660095  12.2170486  83.9780731
  65.7930298  13.4927883  84.3453751  53.0318451  41.0583000  23.6975956
  52.9758415  41.9844322  23.4622898  53.3938522  41.0577812  24.5837002
  41.3358727  68.3799973   8.9048729  41.6872253  68.8649826   8.1581593
  41.7585716  67.5226974   8.8539867  19.8054142  54.2648659  64.5571747
  19.9201050  53.8909950  63.6835060  18.9567986  53.9329071  64.8502426
  47.5947380  34.2096710  43.5464973  48.2480049  33.6620522  43.1110840
  46.9362984  33.5911980  43.8630104   5.5600743  65.8353653  15.5032377
   5.2602763  66.6503601  15.9058905   6.3165598  65.5731506  16.0278416
  49.4583130  57.3546600  25.5671101  50.1138535  57.1064758  24.9152641
  49.4320259  58.3107147  25.5283756  44.5702248   2.3099725  21.9312096
  45.2312241   2.2411993  21.2423096  43.7927475   2.6450391  21.4845638
  15.4484739  36.7459373  62.3745842  15.2896976  35.8897820  61.9770660
  14.6329575  36.9530640  62.8309441  16.6834831  46.9797745  68.0677109
  16.4002571  46.0926514  67.8462982  16.8875580  46.9398575  69.0020447
  12.6688986  35.0033226   1.6276296  13.3318052  35.2372398   2.2772985
  12.8590212  34.0909691   1.4092411  65.3057022   9.2100544  17.7690125
  65.8045349   9.2402334  18.5853977  64.8354645   8.3771591  17.8063049
  79.7946625  57.3475304  73.4565353  79.7874222  58.0126152  72.7681732
  79.6041565  57.8320770  74.2597504  39.3207283  29.8845901  83.7752991
  39.3694496  30.1414680  84.6960983  38.8423843  29.0555172  83.7829132
  67.8318100   7.3713741  85.4979095  68.1745682   7.4922104  86.3834305
  67.4118195   8.2054472  85.2877579  80.5558853  38.3861046  85.7218399
  81.4115067  37.9579163  85.6935654  79.9328537  37.6904373  85.5118103
  59.9397354  63.8296814  86.1339188  60.6942406  63.7597542  86.7187805
  59.2203064  64.1036224  86.7027893  69.5337296  31.3423328  36.7593040
  70.1253510  30.6135941  36.9467850  69.1314774  31.1147137  35.9210815
   5.5594602   9.7036695  71.7503586   5.4346581  10.4381523  72.3513489
   6.3996739   9.3239498  72.0074234  48.0977058  44.0994682  38.2192955
  48.4545784  43.5647202  37.5101280  47.3103561  44.4965439  37.8469429
  24.9085503  14.9827909  71.4768982  24.4889793  15.7182770  71.0305176
  25.1019363  14.3574953  70.7784424  38.3701897  69.2443008  63.0691833
  38.2857170  68.6065140  63.7779350  38.9558868  68.8253860  62.4385529
  34.4020233  25.0026302  72.3888016  35.1753120  25.5666466  72.3770523
  34.1737709  24.9283981  73.3154144  30.1618233  49.3832970  15.4634523
  30.1479626  50.3318062  15.5914011  29.4441662  49.2134171  14.8532543
  27.8280067  15.2318478   6.8061705  27.7535896  14.7939844   7.6540909
  28.7694874  15.3482828   6.6785455   1.0938865  23.1158257  13.1320658
   0.6652731  23.0085964  13.9811974   1.3524010  22.2291679  12.8805933
  17.4914207  39.1595535  57.8435326  17.7862797  39.1128731  56.9340782
  16.6718845  38.6651344  57.8552933  77.7306366  41.2771378  83.1582031
  78.2025909  41.8465385  82.5505295  78.4126205  40.9082565  83.7194977
  46.5232048  32.3364906   6.1245766  46.2867508  33.2599525   6.2114348
  47.3632202  32.2607422   6.5772038  83.5154877   8.6628962  83.1673965
  83.0020828   8.0389128  82.6542740  83.8235397   9.3037834  82.5266113
  40.9172783  37.4712906  80.5676804  41.3612061  37.1421661  79.7861176
  41.5686798  38.0253716  80.9976807  35.2772255   5.2487826  79.6255951
  34.7545509   5.3617344  78.8316879  35.8957939   5.9791193  79.6110382
  53.9138069  33.2751236  53.0773163  53.4085770  34.0448685  53.3389893
  53.3300362  32.5360374  53.2481689  63.1044807   6.5316725  56.6678238
  63.3804932   7.3091531  56.1824646  62.4661865   6.8590322  57.3015785
  70.9689865  25.9049053  56.7545776  70.5140305  25.0651302  56.8180733
  71.5081100  25.8263283  55.9675560  21.4245720  55.4473495  75.1648407
  21.7599697  54.8141518  75.7995071  20.5013199  55.5512276  75.3951569
  52.9699402  33.0549965  66.5799026  52.1125221  33.0427704  66.1545563
  53.5745850  33.3333473  65.8920364  59.5973778  26.7987289  22.4920006
  59.8419151  27.5285149  23.0610733  59.3206940  26.1078720  23.0939922
  45.4855728  44.3545570  62.9371986  45.9660149  44.5673370  63.7372780
  45.2575531  45.2048759  62.5614357  59.6351509  30.2777309  46.2816429
  60.4488640  30.7732868  46.1893120  59.3863640  30.3944378  47.1985474
  50.9605293  16.1001701   7.5489631  51.3478966  15.7814665   6.7337289
  50.6414719  16.9770851   7.3357635  41.5150604  52.3720627  11.2766542
  40.6046829  52.6489563  11.1728525  42.0111160  52.9624329  10.7095356
  29.1475124  13.5655079  11.8857708  29.0419350  14.0992441  12.6733055
  28.8659477  12.6897736  12.1504250  60.3830452  18.5982380  65.0047302
  60.9211693  19.1291866  65.5918808  60.1026802  17.8569717  65.5415268
  19.7690334  50.1252136  73.5436630  19.1049557  49.7418938  74.1166382
  19.4226608  50.0022621  72.6598434  76.5988235  24.6277847  16.3923264
  75.7205429  25.0074558  16.4189625  76.5034866  23.7738190  16.8140888
  30.9945164   1.4852313  75.7009964  31.0646267   1.1804097  76.6056519
  31.4260120   0.8044122  75.1847305  49.3560333  68.1944580   0.9119477
  50.0739326  67.7968521   0.4192345  49.2753944  69.0761795   0.5482321
  46.3119659  61.2917099  16.7714081  45.9672508  60.8993721  17.5735741
  47.1406517  60.8373604  16.6194954  53.4821014  62.5155487  55.4368210
  52.8958702  62.3309479  54.7030029  53.2855530  63.4206200  55.6785774
  49.5787048  41.0622330  73.7127991  49.1326942  41.7674675  74.1817932
  49.6753578  41.3923111  72.8195267   9.2629910  38.5658455  25.1263466
   8.9867916  38.8865776  25.9848766   9.2734566  39.3456573  24.5713501
  17.6990852  50.3471947  21.7913151  18.1070557  49.5951042  22.2204456
  18.4271145  50.8108215  21.3774891  22.9187927  64.9461746  80.2930145
  23.4197998  64.6359634  79.5386963  23.5830956  65.2084808  80.9302902
  44.4220085   7.1378417  79.9993134  44.5147285   8.0261679  80.3435669
  45.2056351   7.0046430  79.4660034  73.7974396  45.8031006  78.2988968
  74.6979599  46.0860596  78.1400604  73.8693390  44.8660507  78.4805679
  70.4574280  66.5547638  35.1127243  70.6951065  66.7055359  34.1978455
  69.5583649  66.2283096  35.0759468  43.9494476   3.1919825  74.1969070
  43.1171036   3.4854739  73.8263626  44.4062157   4.0002823  74.4298172
  26.0964470  44.9256020  44.2673187  25.9591503  44.4697227  45.0977135
  25.2136726  45.1111946  43.9471626  54.4695129  27.7857952  28.9677086
  54.9489136  28.6009674  28.8197174  54.2191620  27.4927177  28.0915451
   2.9433515  13.0349703  76.6570892   3.1522374  12.6403198  75.8104248
   2.1700397  13.5726547  76.4864578  82.4668808  63.9805679  36.7453957
  82.8712311  63.4366112  36.0694923  82.4474564  64.8591156  36.3659248
  48.7821503   8.8241634  20.2209244  48.4679184   9.5163498  20.8026180
  48.3628464   8.0280972  20.5475674  29.0357132  29.6389294  82.4968338
  28.7034168  29.3689976  83.3529587  28.3011799  30.0970345  82.0883789
   8.5372982  35.5884094  31.7945328   8.8510532  36.4908676  31.8524857
   7.6277556  35.6690292  31.5073662  71.9146729  41.2666931  37.8826752
  72.6893311  41.7479820  37.5919876  71.9722900  41.2746620  38.8381042
  86.2473755  48.4935799  50.6774483  85.5810547  48.3145676  50.0139694
  85.9995728  47.9431915  51.4203491  53.0552750   0.4609402  47.0874176
  53.7695122   1.0967828  47.0449524  53.3818855  -0.2987028  46.6052322
  68.3137512  21.6946201  16.2932434  68.9915848  21.3928852  16.8980026
  68.3052673  22.6459961  16.3983326  81.8257294  14.8816328  11.1895142
  82.2112045  15.1568127  10.3577003  81.5658722  13.9719782  11.0437784
  70.3256149  58.4761925  72.5127945  70.1870346  59.2986336  72.0430908
  69.4485703  58.1053848  72.6103745  10.2274218  21.2135582   2.4478419
   9.9674788  22.0016327   2.9249175  10.0189323  21.4071484   1.5339013
   3.1203234  38.5078964  20.8700390   2.2967119  38.7508965  20.4471359
   3.6816728  39.2753525  20.7598877  54.9007225  26.6657467  34.1146965
  55.5688057  26.8154449  34.7836380  54.0739517  26.8688297  34.5522346
  53.3910713  23.1749630  23.4749336  53.7519417  22.5011959  22.8987026
  52.9788589  23.8023567  22.8810558  57.6468201  13.6157598   7.5956149
  57.6749458  14.3398209   8.2210569  57.8789215  14.0145388   6.7569628
  59.9759483  67.4466934  53.1714249  60.1654930  66.5625076  52.8575401
  60.8320389  67.8720474  53.2205887  26.4058437  63.5456047  32.4075241
  26.2029953  62.7220383  31.9638786  27.2717552  63.4045029  32.7903061
   0.8374019  67.5585175  41.4885063   0.2695010  68.2922287  41.2531624
   1.2600518  67.8340988  42.3019257  66.8392487  48.9876022  71.6120987
  66.3709106  49.4765396  72.2887268  67.1441269  49.6575546  71.0001755
  29.4129791  44.9894829  87.3362350  29.0550919  44.1025620  87.2972031
  29.1382675  45.3950157  86.5138550  53.9694366  42.0184593  75.7501144
  53.3956718  41.5623512  75.1344986  54.1584396  41.3690872  76.4274826
  57.3300552   8.0879793   7.6872787  57.9921761   7.4412956   7.4430857
  57.7670822   8.9322062   7.5753927   9.7097740   3.4306734  11.8519497
   9.2323246   3.7175124  11.0734911   9.0530539   2.9807086  12.3834400
  51.0429192  26.2939034  54.6858559  51.9364853  26.6182823  54.7978668
  50.9203186  25.6760044  55.4065514  46.8880539  48.5016441  38.8224716
  46.5697594  49.0665703  39.5265884  47.3722954  47.8088264  39.2716293
   6.9851346  14.1732216  74.7235641   6.8135958  13.5022659  75.3843384
   7.5221190  14.8235188  75.1763306  48.4297333  70.0209045   9.8224964
  48.6934128  70.1467285   8.9109745  48.0873451  69.1275101   9.8516426
  39.7582436  24.1614685  74.5250244  39.2522392  23.8086243  75.2569351
  40.5702438  23.6546440  74.5288239  12.3415842  41.7447624  74.8044891
  12.7276001  42.6194191  74.7576294  13.0740557  41.1714935  75.0304947
   5.4450359  28.9665966  70.8545990   6.0488915  28.6424065  71.5227966
   5.4118414  29.9120731  71.0002060  33.6407394  52.3386574  62.0183754
  33.3058128  51.5178452  61.6573753  33.1929169  52.4308395  62.8593178
  35.4730263  17.4205761  87.5885544  34.8917465  17.9667645  88.1177292
  36.1437149  18.0241661  87.2690430  48.6210289  49.8643303  48.8295517
  47.7027206  49.5963821  48.7956810  48.7532387  50.3683357  48.0265999
  85.0228348  45.1788635  44.3559418  85.4441223  45.4921150  43.5555534
  84.2152023  44.7628555  44.0544586  71.2283936  31.6528950  47.4732742
  71.6953125  30.8360519  47.2972450  70.6448898  31.4428940  48.2024231
  54.7334213  32.0734978  33.2549896  54.9182930  31.9595146  32.3227539
  53.7859764  31.9578648  33.3271675  55.4610901  41.3017578  34.6003647
  55.8384094  40.4464035  34.8058701  54.5191689  41.1408539  34.5444756
  73.2273865  41.6457100  45.3681374  73.4630508  42.3716927  45.9457550
  73.7731705  40.9172096  45.6641731  57.8776436  42.3244743  66.8819504
  57.6537971  42.1485977  65.9680634  57.8767166  41.4628410  67.2988663
  66.9899750  54.9548225  46.9033661  66.9584885  54.2672958  46.2381210
  66.0857544  55.2606506  46.9747162  15.8329077  53.8869743  18.8407288
  16.6181793  54.1978760  18.3902607  15.8787880  52.9333839  18.7715015
  31.8429050  34.5439301  12.8759308  32.4065323  35.3056259  12.7403593
  31.6134434  34.2555046  11.9925337  31.6947441  53.5256577  50.4129639
  31.5954838  53.6123428  49.4648781  30.9167042  53.9496994  50.7750053
  21.5924644  44.2471161   1.2150141  22.5017185  43.9647560   1.3138108
  21.2141628  44.1464920   2.0885100  27.6533279  61.0412483  67.6538239
  28.3303719  60.9532204  66.9829330  27.5381565  60.1546135  67.9956512
  81.3224869  19.9931660  50.9323463  80.5062256  20.3505707  50.5827713
  81.9388046  20.0447407  50.2017822  79.2973022   1.8335309  32.1057472
  79.0928726   2.7675884  32.0612907  78.7091980   1.4914154  32.7790375
  18.3288651  18.4284916  65.0657196  17.9584103  18.9009724  65.8112106
  19.2614880  18.6430836  65.0856323  51.9023857  54.8278465  69.9557724
  51.5628357  54.4515457  69.1437836  51.2579193  54.5845299  70.6203690
  56.9788742  62.8860626  37.4530067  57.9216614  62.8400993  37.6119576
  56.9030457  63.1162491  36.5269966  32.3541679  14.9676905  70.5406723
  32.4010963  15.2018576  69.6137466  32.7556419  14.1001081  70.5891571
  45.7789993  20.3480892  73.0304184  45.7679443  20.8059177  72.1898804
  45.2499390  19.5641079  72.8831100  13.5135946  56.7238731  35.4736366
  13.5901098  57.2977066  34.7113457  12.7992649  57.1014099  35.9868927
   5.2480373  42.0680351  75.9523392   5.8655429  41.3464165  76.0714417
   5.3824406  42.3514938  75.0480042  34.8453026   3.9461782  22.6284885
  33.9807777   3.8428297  22.2308083  35.0774002   4.8599396  22.4629536
  36.9425964  48.4664383  56.9188461  37.5718689  48.5722504  57.6323242
  36.8122177  49.3525276  56.5810928  68.0144577  41.4853439  61.0623245
  68.4867020  41.8463402  61.8125954  67.4642181  42.2062836  60.7562103
  83.4750290   6.1202102  69.0755768  82.6464157   5.7898641  68.7284393
  83.6903915   6.8645511  68.5136108  30.3709679  10.9175787  16.1857338
  29.9698963  10.3713722  16.8617744  30.4472218  11.7818127  16.5901070
  32.0090103   2.8859847  18.0852356  31.8761578   2.0328825  17.6719570
  31.5920124   2.8041546  18.9429359  76.5078964  26.6209202  58.2711906
  75.6928329  26.4079037  57.8167381  77.0305710  25.8211212  58.2131500
  51.6518059  54.5120506  77.0406647  51.1091042  54.4590530  76.2539673
  52.4639664  54.9227905  76.7441483  18.7476501  37.3208885  11.1757879
  18.5213833  36.5401039  10.6704025  19.5933189  37.1124573  11.5728178
  80.3950577  69.1380844  10.1776648  80.2015915  68.8692169   9.2796040
  81.0967636  69.7830048  10.0886993  77.1800613  28.5172596   4.7966695
  76.4271622  27.9273567   4.8339057  76.8557129  29.3426132   5.1569762
  16.5458393   3.1844938   7.5826783  16.1930580   2.9736853   8.4471645
  15.9169693   2.8056729   6.9684715  22.5678349   3.1065872  82.7429657
  22.3897591   3.9898515  82.4199066  22.7772522   2.6018162  81.9570999
  61.1137428  26.2124481  74.9553223  61.2872963  25.5061951  75.5776672
  60.4528999  25.8530712  74.3634033  45.3796234  69.5603104  11.3335361
  44.5420456  69.6634598  11.7852554  45.4057045  70.2851028  10.7088528
   4.4529772  30.2908573   4.9770656   3.6551921  30.1822662   4.4593987
   4.2095633  30.0003014   5.8560185  72.7191086   9.8753700   2.2425702
  73.2960663   9.5145893   1.5693775  72.1238785  10.4522152   1.7638408
  47.3521385  44.1718140  20.2932930  47.7842407  43.7182388  21.0170250
  46.6866493  43.5554619  19.9875679   2.6170721   5.3240275  88.5625381
   2.9313939   4.4199500  88.5713120   3.3988457   5.8477087  88.3869781
  56.4222717   5.9957776  10.7341032  55.7241592   5.5931082  11.2505617
  56.1203804   5.9268470   9.8283758  83.4168625   3.8190336  80.9323578
  83.9791946   3.0461106  80.8812866  82.9420319   3.7157040  81.7570343
  54.3922653  32.0195961  88.5206299  54.1180878  32.2367516  87.6296158
  55.0528450  32.6782532  88.7351913  30.0781002  69.7404099  34.2458267
  30.4153214  69.0450134  34.8105774  30.0444603  70.5124817  34.8106308
  42.0033798  16.0256195  66.6415024  41.8161354  15.1091576  66.8446503
  42.1286774  16.4394722  67.4954681  51.9146004  70.2953491   9.3303308
  51.6527863  70.3003922  10.2510147  51.5327263  69.4918289   8.9771242
   7.3877463  28.8563862   1.1228040   8.1406965  29.3438435   0.7886152
   7.1083183  29.3474159   1.8954884  69.1989517  39.3667641  88.9785080
  69.9939957  39.0818253  89.4290009  68.6079788  38.6161156  89.0377808
  41.8959465  71.0655365   2.3245516  42.5786896  70.4342499   2.0974483
  41.1222343  70.7629547   1.8491081  56.4999084  36.9099121   9.4470930
  57.3831596  36.7210426   9.7639999  55.9544868  36.2264328   9.8364639
  39.2542496  71.0922241  82.2058182  39.1016846  70.7982635  83.1038895
  40.0292587  70.6066742  81.9232635  14.4612036  70.7677307  62.4252090
  14.9381495  71.5802994  62.5939674  14.7582598  70.1689301  63.1103630
   7.4963560  23.7083607   2.0497589   8.2592421  23.7741356   2.6241372
   7.8150401  23.2344170   1.2816125  86.3703079  63.4903488  29.8619366
  85.9890823  63.5594406  28.9866486  87.1231842  62.9099121  29.7501354
  11.2774467  50.8687439  66.0475769  10.8749132  50.9150696  65.1803665
  10.8610916  51.5741158  66.5428848  84.0691681   6.3744521  39.0296783
  84.7630539   6.7616649  39.5633621  83.3572998   7.0135355  39.0619774
  77.1471634  15.2600708  14.8738174  77.8210144  15.1999397  14.1966610
  76.8656845  16.1746674  14.8510647  44.7896194  23.6047459   5.4457912
  45.3802910  23.7074642   6.1919718  45.3140717  23.1513176   4.7858067
  61.4186859   2.8669157  89.1872711  61.9206810   2.1505086  89.5758514
  62.0316582   3.2905490  88.5864182  33.9844589  58.6249161  77.5390167
  33.3861923  58.8460884  76.8252945  33.9756126  59.3956985  78.1065063
  31.5670090  20.3864174  76.7020950  32.1195145  20.6685829  77.4310303
  30.6721764  20.4891968  77.0260391  42.4772720  34.8512688  59.0548668
  42.4260406  35.6094093  59.6369553  43.4109650  34.7566071  58.8664780
  83.4924011  29.9261436  71.4441376  83.2552032  29.8475456  72.3681488
  84.1609421  30.6109390  71.4258881  48.2665367  63.2865791  21.3328896
  49.1230392  63.0958595  20.9504490  48.4315262  64.0049057  21.9436455
  27.1037216  42.8238258  62.7825203  27.9695969  42.4265480  62.8755951
  26.5339432  42.2884407  63.3347397  45.1760635  30.9940205  56.9989891
  44.5728073  30.8995571  56.2618370  45.0696144  30.1858120  57.5006828
  11.8644829  61.7807617   1.9587753  11.3296061  61.0683975   1.6085241
  12.0562210  61.5162544   2.8585000  74.2598114   8.4612770  84.6199265
  73.9773712   8.1724234  85.4876938  74.8778076   9.1713953  84.7932510
  71.7103195   8.4597349  16.2034836  72.2732468   8.5873184  16.9670696
  71.4821243   7.5304227  16.2267399  76.9814682  49.6306686  71.1708527
  76.8079147  50.4161530  71.6896286  76.3968658  49.7076187  70.4168320
  80.7916794   7.1680431  21.0351543  81.0634308   6.6403604  20.2841969
  81.6108856   7.4083080  21.4680634  24.9953690   8.6702862  83.8988724
  24.1046848   8.3462257  83.7650909  25.1956196   9.1573448  83.0995560
  27.1392155  48.5266685  76.4806061  27.7928467  49.0056534  76.9900894
  27.3206196  48.7669525  75.5719910  61.0918427  12.4081316  51.0422401
  61.2315559  11.6995144  51.6703911  61.4337959  12.0666561  50.2159882
  72.0136337  24.8524837  59.7052383  72.4779282  25.4653950  60.2753258
  71.0880127  25.0589638  59.8349571  62.1714325  50.1185379  51.9375343
  62.2219353  49.8333855  51.0251884  62.0084190  49.3147202  52.4310265
   8.5281601  59.7162476  65.3197632   8.3264856  59.2431145  66.1270447
   9.2665157  59.2393799  64.9407425   4.2796144  52.2430649  21.0103874
   3.8419318  51.7977028  20.2849102   5.1097856  51.7774048  21.1114216
  85.6593933  61.0871010  66.4064865  86.1815872  61.2226715  67.1971588
  84.7536163  61.1967087  66.6959534  78.8440323  16.7025337  10.9172277
  79.4018097  17.0331535  10.2130909  78.9037704  15.7500925  10.8429270
  61.0667725   8.6847563  83.1195602  60.9936295   7.7429256  82.9651718
  60.2547073   8.9174500  83.5697098  66.1712570   6.3799295   9.9446220
  66.4692612   5.6121373  10.4323931  66.6716690   6.3546195   9.1290369
  21.2281933  41.2754631  69.0688629  20.4351730  41.6815643  69.4187698
  21.5646305  41.9116669  68.4377670  80.7070007  35.7843361  44.8989296
  81.4346237  36.3833656  44.7317314  80.7506943  35.6110077  45.8392906
  52.2071533  43.0296860  47.0620995  52.6246338  42.8625717  46.2171021
  51.4155426  42.4917221  47.0487022  63.6814919  69.4146271  72.8031998
  62.8165665  69.8144913  72.8939743  63.9714355  69.2641830  73.7029343
   0.9564739  45.8144188  77.0059891   0.5542507  45.2513237  77.6673279
   0.4180498  45.6885147  76.2246552  20.2552357  46.2026558  78.2816772
  20.3673744  45.8120193  79.1483154  21.1003876  46.6097031  78.0912552
  45.1883240   0.5425503   9.9185371  44.6212654   1.1663617  10.3718996
  45.9185600   1.0718648   9.5978956  61.1081657  53.0929642  70.3949738
  61.6680717  53.3795891  69.6734619  61.6495399  52.4763908  70.8879013
  56.9991760  26.5870743  81.3806534  57.4604759  25.7783070  81.1585541
  57.1133728  27.1466312  80.6124878  66.9688263  13.2886982  37.9679375
  67.4795837  13.2521877  38.7766533  66.0964279  12.9875460  38.2218323
  37.7928734   3.4841232  43.4959564  38.6027145   3.8707607  43.1629410
  37.0963287   3.9959192  43.0847092  85.3959427  16.5278187  59.0518837
  86.2345276  16.6767731  59.4887199  85.4302216  17.0821190  58.2722626
  41.5956764  37.9242249  57.1559525  41.4604416  36.9965858  57.3494263
  41.4882355  37.9891129  56.2070160  36.9881363  28.4989929  17.7392731
  36.0421867  28.4862976  17.8850365  37.0929146  28.2397556  16.8238220
  38.2762871  45.5794449  86.4475098  38.6391869  46.0371819  87.2058029
  38.1002808  46.2724266  85.8110886  42.3371239  70.0822220  31.5056934
  42.9077339  70.7494049  31.8871346  41.5971985  70.0257492  32.1103020
   3.9468493  21.4561539  78.5081177   3.3278198  20.8091164  78.1699219
   4.7833285  21.2196827  78.1073456  58.9326439  68.3395615   3.9919236
  58.7792549  67.4108734   4.1658387  59.8854675  68.4306030   4.0002356
  50.1901894  59.6616287  13.7640266  50.0140190  58.7803993  14.0936117
  49.5782661  59.7719421  13.0362835  48.4074287  52.9650307  24.1771088
  48.6551399  52.7551155  25.0775566  48.6719704  52.1970520  23.6706924
  46.7621727  50.7363853  70.8156052  45.9609184  51.1696892  71.1096649
  47.4536591  51.1198463  71.3550873  26.1435871  62.3495178  65.7096634
  25.2441807  62.2758255  66.0288315  26.6706161  61.9055138  66.3739929
  24.9357529  56.3953133  65.8997269  24.4895859  56.7581711  65.1345444
  24.4378166  55.6068993  66.1158066  79.6974640  45.0112534   1.1027105
  79.7620087  44.0943718   1.3698983  78.7575378  45.1695747   1.0149946
  54.6125679  22.4018192  65.3698349  54.0888214  23.1139832  65.7369080
  54.1975250  22.2078590  64.5293808  62.3433723  12.9980402  57.9706116
  62.8125191  13.7563820  57.6226921  62.3513107  13.1260052  58.9191895
  49.6144447   8.6050415  75.0173264  49.7636833   9.5205946  75.2533798
  49.7163773   8.5833464  74.0658188  80.4248581  58.1257629  39.3326492
  80.6481247  58.2056160  40.2600136  79.9693832  58.9416008  39.1248398
  59.9369240  18.8838177   2.1721976  60.1947289  19.2851753   3.0020652
  60.7413101  18.4869614   1.8379843  24.6922131  50.5901680  29.0836067
  25.2646751  50.7869148  29.8250999  24.7399025  51.3700523  28.5306721
  51.3821182  64.2086563  50.1705360  51.3160706  63.2857742  49.9252663
  51.4322395  64.6752090  49.3362427  62.2326584   4.8862805  27.5660000
  62.8147545   4.5056748  26.9083252  62.4520531   4.4251776  28.3756199
  84.9001541   6.0086317  60.8933449  85.7242737   5.8078570  60.4497719
  84.5240402   6.7278285  60.3858757  59.8679543   8.2977543   0.5423909
  60.1637154   8.5862999  -0.3210308  58.9127769   8.2962303   0.4802126
  78.1976395   2.5348024  80.1769485  77.7408295   2.6583135  79.3449020
  77.5871353   2.0280950  80.7124481  84.7081223  48.8653145  17.1272240
  84.0271225  49.2782135  16.5961971  84.4005280  48.9618759  18.0284977
  57.0744743  40.8358688   2.9927168  57.6429100  40.2883186   3.5342846
  56.2939606  40.9748192   3.5291159  29.8808651  32.3550453  41.9529724
  30.3655376  31.6747971  42.4205055  29.5633183  31.9214344  41.1609001
  63.6237526  45.3570671  80.7538834  63.0320129  45.2869301  80.0047760
  63.0979614  45.0735474  81.5018082  28.6307220  62.6460953   8.6111908
  28.7317696  62.6070938   7.6601386  29.4621258  62.3182831   8.9540281
  21.0882492   9.3629303  19.9351978  21.4482670   9.9862509  20.5661411
  20.6515388   8.7026663  20.4733105  80.5287247  39.6925735  35.2543488
  80.9280548  39.3337212  34.4618874  79.6957245  39.2278786  35.3343201
   6.2759819  50.9876213  42.4322968   6.1614566  50.1977119  41.9039421
   5.8125014  51.6699181  41.9466133  28.1798573  53.7322197  17.7987804
  28.1578827  54.6634331  17.5783558  27.3790951  53.5863609  18.3025036
  15.4425869  14.0392485  78.0843964  15.3105059  14.5104303  77.2617340
  16.3791637  13.8422298  78.0998688   7.0627713  15.8058290  12.1853247
   7.1031852  15.3193312  11.3619661   7.9619770  15.7966776  12.5133142
  58.5927620  44.4917107  37.1840782  59.3089066  45.0244331  36.8382835
  58.4993134  43.7776604  36.5534973  43.9305573  47.0394249   4.8741755
  44.6318398  46.4338493   4.6339421  43.1987305  46.4732552   5.1193542
  31.4275074  71.4052658  71.7527771  32.1393394  70.7664642  71.7910309
  31.1257973  71.4821625  72.6579208  14.0905037  54.9740753  38.7788086
  13.8623781  54.7173920  37.8853302  13.2615557  54.9417572  39.2563362
  76.3092499  27.3266392  29.1070900  77.2336578  27.4406567  28.8864002
  76.3060837  27.1689949  30.0512142  73.1880722  25.3861389  13.6925602
  72.7350998  25.2049770  14.5161057  73.9925156  25.8335686  13.9550686
  38.8750992  46.1002808  18.5928974  38.7551498  45.9717293  17.6519852
  38.9866104  47.0456581  18.6931801  72.4493408   3.8465362  77.4627380
  72.6977463   3.5487654  76.5876083  71.6932831   3.3068621  77.6937332
   1.5037831   4.2244592  15.9605751   2.0785832   4.5981646  16.6285419
   0.6189075   4.4004564  16.2803440  83.0352936  10.5263090  43.2918816
  83.7972946  10.2922173  43.8217812  83.3946457  10.7112541  42.4241867
  56.2275085  36.6325378  32.4361687  55.5700989  36.0264893  32.7778511
  56.5330086  37.1131821  33.2055092   2.3484240   4.7437768  76.1151505
   2.8210056   5.2551036  75.4583054   3.0042448   4.5494466  76.7847519
   9.9929409   5.4370685  60.5438309   9.2945137   5.2645693  61.1752357
  10.1945648   4.5794926  60.1694717  79.4891739  33.5506477  43.9585075
  80.0870667  32.8657417  44.2579384  79.8529053  34.3599243  44.3176842
  27.6253948  12.0106649  88.1354218  26.6960125  11.8180704  88.2594681
  28.0615177  11.5637369  88.8608780  60.4050255  39.9914207  16.1795330
  59.6934853  40.0747223  15.5447111  61.2029076  40.0728455  15.6570520
  85.8798218   7.7809153  40.3492928  86.7461929   7.4453020  40.5795212
  85.9062042   8.7042589  40.6002388  38.5486603  56.3639870  15.0944481
  39.4573364  56.0662727  15.1380653  38.5313301  56.9730110  14.3561926
  61.9227028  29.8518658  50.4000549  62.3297844  30.6671066  50.1069717
  61.6785393  29.4018173  49.5913048  32.8235130  62.5450859  24.8750782
  33.0330963  63.4790154  24.8843899  33.5924339  62.1232300  25.2585201
  60.7924423  60.8691635  33.1569824  60.9064217  60.5171165  32.2742004
  60.7687645  61.8182793  33.0351257  79.8785400  38.9527664   5.1738544
  79.7057800  38.7682228   6.0970731  80.8092194  39.1745300   5.1440063
  66.8291168  57.7893829  29.1575546  66.8683014  56.9295692  28.7387257
  66.1237259  57.7110100  29.7998295  27.9861603  50.8752632  10.0814018
  27.5055771  50.8964882  10.9089422  28.3930283  51.7393990  10.0184813
  82.7076340  61.1230431  54.3606491  82.1456375  60.6345406  54.9621086
  82.5026855  60.7647934  53.4970016  54.2320633  44.3780022  82.3127060
  55.0655327  43.9076653  82.2941971  53.9996872  44.4899216  81.3909073
  38.2308960  40.0599327  61.6287270  39.1564636  40.0997810  61.3879623
  37.8442764  39.4559708  60.9947014  29.2030373   5.1202912  64.4318314
  28.5576401   5.8164401  64.3090668  28.7324791   4.4395347  64.9128494
  47.0939484  69.4881210  13.4186735  46.5352440  69.7634659  12.6918526
  47.4052200  68.6190491  13.1655960  55.9769516  59.5825996  34.8794136
  56.6514969  60.1672440  35.2249718  56.0786667  58.7752151  35.3834152
  83.8171692   5.9855366  17.5496349  83.7476959   6.3450494  16.6652393
  83.1941605   6.4971042  18.0657597  46.0559998  33.5845451  64.0482941
  46.8072128  34.1754913  63.9963608  46.2634354  32.8790436  63.4355354
   6.4340835  26.4701843   1.9686636   7.2728667  26.0096111   1.9452966
   6.6444807  27.3647175   1.7007532  75.5896912  40.4161186  51.8881149
  76.4077682  40.8174019  52.1812973  75.3080978  39.8782158  52.6281166
  62.4510422   4.5921121  35.9409790  63.2523804   4.2358112  36.3245659
  61.7448120   4.1085620  36.3695221  47.7821617  65.6147995  83.4866409
  48.4789543  65.6728210  84.1403580  47.4085388  66.4955368  83.4560089
  21.6114521   6.6821914  -0.0663002  21.6814041   7.5780506   0.2635106
  22.2814426   6.1967559   0.4150468  72.2238464  45.4022675  26.1108932
  71.5047989  44.8299065  25.8432961  71.9347305  45.7770500  26.9428692
  66.3053970   6.4918132  57.1121483  65.6641769   6.8619499  57.7188339
  66.0538406   5.5719581  57.0295792   9.3357925   3.4697115  18.6088753
   8.5779724   4.0416393  18.7306862   9.6719923   3.6988640  17.7424507
  63.3022652  52.5564423  25.6286774  64.0403061  52.0301819  25.3211536
  62.9170799  52.0387421  26.3356781  80.9266586  10.3654099  62.1625748
  81.6122360   9.9377747  62.6757469  80.2453308   9.6993504  62.0710106
   4.5373392  10.3726292  11.4626474   4.4254270  11.2145758  11.9040470
   3.8041565  10.3245001  10.8491669  21.1133995  71.6056213  15.8903685
  20.4964638  71.2365723  15.2583704  21.6153603  70.8528290  16.2027206
  43.6228371  32.4079628  69.9301529  44.5143471  32.7564278  69.9346924
  43.4215317  32.2530594  70.8530350  71.3623047  35.6738091  56.2794685
  70.4165497  35.5873222  56.1598930  71.5865173  34.9941101  56.9150543
  35.0973358   2.5375144  44.6220016  35.4987526   3.3689198  44.3692970
  35.4746361   2.3401656  45.4792824  57.4902687  32.7149200  22.2299557
  57.8502121  31.9063225  21.8654823  56.8361511  32.9957199  21.5900230
  55.6852264  36.9363480  76.4508362  56.1891975  37.5779495  76.9514313
  55.3312798  37.4327812  75.7129288  57.0368729  13.5332479  53.6684799
  57.3783913  13.9270344  52.8656540  57.2598190  12.6053772  53.5937653
  41.1196938  53.1802483   5.7106304  40.3990097  52.9442406   5.1265516
  41.1623955  52.4611969   6.3410044  71.6413956  45.1987190  31.0640831
  70.9347305  44.7700272  31.5468616  72.3520203  44.5574455  31.0599461
   6.1045709  50.5887833  45.2055588   6.1526294  50.6002846  44.2496376
   6.7234859  51.2635422  45.4846268  85.1165695  29.3004074  83.6107178
  86.0067215  28.9627781  83.5113678  85.2080688  30.0461769  84.2037506
  56.0584412  17.2697029  11.8036366  55.5836716  17.7555561  12.4780064
  55.6421242  16.4078655  11.7914953  31.5564480  52.5900688  80.0262909
  31.5101376  52.7431374  80.9700317  31.2470036  51.6912613  79.9139557
  49.8793106  56.9592400  28.3300667  49.7401962  57.1225891  27.3972244
  49.5916862  57.7647514  28.7597809  24.5696354  62.4779510  22.4980392
  24.7459297  62.1892929  21.6025906  23.6433315  62.7191467  22.4939480
  69.4440842  61.5503922  38.9193878  69.0685577  62.2531204  38.3889236
  68.8848877  61.5110130  39.6952667  59.7402306  49.3005219  79.2565079
  60.6161613  49.1362190  78.9072418  59.8908119  49.8203239  80.0460358
  75.9173737  31.4821415  57.2204208  75.8926392  31.8951893  56.3572807
  75.3062744  30.7485390  57.1524849  49.7497978  48.8737831  21.7228775
  49.9630127  48.7311821  20.8006859  49.4340973  48.0239067  22.0299110
  83.3901367  22.9799461  30.6996708  84.0908127  22.4130630  31.0220604
  83.3743973  23.7140999  31.3136749  47.6494484  66.0496292  29.3882751
  47.1560020  66.7394562  29.8319836  48.1809692  65.6533813  30.0787201
  44.6416283  34.2703857  31.3127098  45.5558472  34.3155670  31.5927010
  44.4340057  33.3360252  31.3225975  52.2354546  69.4575958  33.6178780
  52.2695351  70.4123840  33.5591087  51.5393562  69.2812881  34.2508049
  61.4942513  15.0336905  37.2428093  60.6820107  15.1649342  36.7536507
  61.6325912  14.0866613  37.2276878  57.7925034  10.9329643  17.4172287
  58.5474129  11.3238182  17.8571987  57.9003029   9.9908972  17.5480766
  60.0074959  22.3232708  85.5685806  59.1013298  22.2956524  85.8757095
  60.5264397  22.4427929  86.3639679  45.6857224  65.5852356  69.3195724
  46.3439903  65.6382065  68.6266708  46.1152496  65.0957184  70.0210724
  52.7833290  24.0282288   4.1995530  53.7240601  24.1131153   4.3546429
  52.5073624  23.3208733   4.7824082  22.4804382   8.0720148  75.3050156
  22.8735161   7.9917846  74.4359436  22.5873699   7.2054110  75.6971817
  47.1510468  58.7717361  35.1977844  47.5867157  58.1126900  35.7382317
  47.6212730  59.5841370  35.3852005  73.8259888  12.4905224   3.0283673
  73.5845718  12.9127035   2.2039208  74.0767059  11.6013927   2.7777255
   4.5890393  12.8328648  59.8750305   4.5668597  12.3551531  60.7042046
   5.2785811  13.4861374  59.9933510   6.2084861   6.2572780  22.4449902
   5.8861828   5.3657112  22.5771313   6.8949213   6.1682820  21.7838402
  66.4252853  45.7098312  29.9143696  66.9495163  45.1016960  29.3932381
  65.6828918  45.9292831  29.3513985  14.8997011  39.0614700  43.5578346
  14.9889069  40.0099678  43.6506996  15.0688381  38.7179642  44.4351196
  43.7498436  23.6632462  14.8396931  43.6491852  23.3596382  15.7418690
  44.4484177  24.3161869  14.8832474  31.9103050  47.3039970  35.4314156
  32.2988014  47.5853043  34.6030617  31.4165154  48.0656357  35.7352448
  57.9610405  63.3842468  45.7510338  57.3560143  62.6466293  45.8291054
  58.2191086  63.3858185  44.8292809  20.9874477  40.7283897  54.6271439
  21.5262356  41.4662857  54.9125328  21.4883041  39.9534721  54.8818626
  47.0212936  43.8632545  57.1678619  46.1910057  43.4219322  56.9887238
  47.1335754  44.4689026  56.4351845  56.7818756  46.5000877  26.8411751
  56.3006477  46.2733002  26.0454235  56.1530151  46.9916801  27.3694782
  37.5517082  62.7482948  41.1211586  37.5034790  62.1537971  40.3725090
  36.6492996  62.8136940  41.4335938  77.0754013  70.5922470  19.2703094
  77.7400055  71.2767792  19.1932182  76.8363190  70.5938339  20.1971684
  24.8950634  35.3275414  77.7151642  25.2821751  34.4531326  77.6729584
  24.2328701  35.2633514  78.4033585  37.2542648  43.8550529  30.4066219
  37.4797897  42.9946823  30.0528812  37.6536560  43.8685951  31.2764130
  31.7075634  52.0580635  21.7905273  32.4114265  51.8037109  22.3872814
  31.4367180  52.9241982  22.0949745  50.5940971  62.5426636  56.3073997
  50.7429237  62.1847687  55.4321899  49.6601906  62.7518005  56.3250198
  83.1067886  47.4667473  13.7031946  82.2179337  47.7862854  13.5480757
  83.6724319  48.1342583  13.3149805  61.2558937  11.5354023  82.7127533
  61.2952919  10.5959501  82.5335693  61.0485649  11.9321232  81.8666687
  54.2750931  52.0345497  41.7121239  53.5571823  51.9408531  42.3382683
  55.0360146  51.6695633  42.1637993   3.5420804  15.2272530  10.0451622
   3.3403900  15.7471752  10.8231297   2.7009592  14.8537502   9.7820215
  43.7032127  17.3049431  12.8597937  43.7569847  18.0426102  12.2521849
  43.6937485  17.7093945  13.7272968  77.3034515  63.0879173  30.8938332
  77.8119583  63.7957649  30.4981041  77.9134293  62.6629181  31.4967747
  11.1192341  68.9312363  19.7690411  11.9439678  68.6879120  19.3485203
  10.7187481  69.5577393  19.1662655  60.8993034  24.0905552  29.2425652
  59.9509468  23.9631519  29.2177887  61.0304642  24.7890549  29.8837566
  60.8106270  70.8908463  12.0764589  61.0079193  71.7438583  12.4633350
  60.8075676  70.2862320  12.8185253  81.8786774  41.3833466  19.1346321
  81.7510681  41.7706261  20.0006371  82.1672363  40.4882240  19.3127232
  29.9478455  34.0554504  86.7486420  29.9849625  34.5124512  85.9083939
  30.3367634  33.1987038  86.5726929  86.9524384  42.3013268  30.5898972
  86.3550186  42.6737823  31.2384319  86.5215759  41.4966660  30.3016090
   7.6726904  40.2506485  16.5159245   8.3555355  39.8254318  15.9971323
   7.4737124  39.6228218  17.2105255  70.4406738   3.5237606  57.6289330
  69.9241180   3.1963885  56.8925705  70.0085220   4.3399429  57.8805733
  69.0481262  29.5778599  14.8543119  69.0951691  29.0797024  14.0383101
  69.4734879  30.4109497  14.6512012  15.8758879  53.2392807  45.0144272
  16.5570469  53.8190842  45.3551369  16.3090706  52.3910637  44.9189529
  25.1728458  61.2215195  61.7718658  25.0921612  62.0742645  62.1991234
  26.0993633  61.1562653  61.5404816  52.0411415  30.7267570   0.5980514
  51.8011055  31.6332378   0.7901654  52.6803055  30.7934437  -0.1113520
  68.0863876  48.3387337  36.9977036  68.3663406  48.0704231  36.1225662
  68.0694809  47.5261879  37.5033875  24.6268787  19.7067070   4.4206605
  24.5439072  20.2722168   5.1884799  24.5241642  20.2983322   3.6752341
  24.6288185  65.7677002  32.4300270  24.5084019  65.5883789  31.4975147
  25.5357113  65.5176773  32.6068497   9.4412155  49.3977966  80.6149368
   8.6041327  49.2240677  81.0454483  10.0844431  49.3737869  81.3233948
  35.1813927  67.6130219  76.7981033  34.2626839  67.6409149  77.0653610
  35.5205383  68.4813232  77.0154953  45.9158134  11.7603264  81.8222046
  46.7755814  11.5445881  82.1834412  46.0641632  12.5543842  81.3086929
  56.8979759  63.8850288  40.1263695  56.9623642  63.6490364  39.2009583
  56.3086891  64.6391983  40.1407852  24.6856060  69.4653091  47.8225822
  23.7922859  69.5762100  47.4971390  24.9738426  70.3522720  48.0380974
  55.2302704  36.3295631  21.2889099  54.4853477  35.8323517  20.9511204
  54.8590279  37.1746407  21.5424004  39.4774284  26.6916256  85.1512222
  39.5517426  26.0098515  85.8189774  40.3003616  27.1767693  85.2116470
  52.9536095  17.5149994  81.4193420  53.5124588  17.7225189  82.1682434
  53.5323639  17.0603733  80.8073044  61.1663551   8.1740580  18.8374844
  61.5933723   9.0304680  18.8586788  60.2470016   8.3692532  18.6560497
  70.7438354  24.4428463  43.7368240  70.0812836  25.0538158  43.4143715
  70.9321747  23.8767776  42.9882736  59.8951378  14.2894821  16.1849327
  60.6094246  14.9245977  16.1334000  60.3318825  13.4377413  16.1900864
  17.8948612  53.4113770   2.9222043  17.7589836  53.5673027   1.9876153
  17.6767235  54.2453232   3.3383582  82.5500946   8.7317200  38.9115639
  83.0597229   9.3990641  39.3710861  81.6438904   9.0318766  38.9817696
   6.0142131  11.8114433  73.3825760   6.8957186  12.0664539  73.1102676
   6.0913367  11.6499081  74.3228912  35.4250259  39.6339188  63.7129478
  35.0734711  39.2647400  64.5231018  35.9250603  40.3995399  63.9958344
  17.8771362  22.3097763  69.6655197  17.5800591  21.4085293  69.5401001
  18.7627087  22.3227730  69.3024368  56.1612816  41.7974663  59.5732422
  56.1921654  41.8531342  58.6181641  55.7175102  42.6006126  59.8457489
  59.9808731   7.5208011  59.0440712  60.1433334   6.8454742  59.7026863
  59.0628471   7.7613101  59.1690331  73.0996933  26.4422340  31.7940483
  73.5377808  26.7187653  30.9891624  73.2810669  27.1443634  32.4188309
  63.5912819   8.9513569  83.4597778  63.9251900   8.0571051  83.3887253
  62.6441765   8.8625431  83.3533020  74.3821487   4.2437096  44.3841248
  75.1822357   3.7199843  44.4266396  73.8408203   3.8013959  43.7302513
  70.1510239   6.7018270  10.7338181  70.9393616   6.5344896  10.2173347
  69.5184860   6.0546517  10.4219065  71.6713104  20.0570660  40.9878120
  71.0679321  19.3338680  41.1585350  72.2386322  19.7353477  40.2871819
  35.0397263  53.2940292  37.4808922  35.2002754  53.1019020  38.4047699
  34.5354958  52.5444489  37.1644859  85.3047638  16.8380718  66.8356400
  85.1042938  16.5933857  65.9322205  86.2516098  16.7197895  66.9113388
   7.3813953  12.9953680   0.4601213   6.7136784  13.6812124   0.4585593
   6.8848333  12.1775875   0.4302351  43.8594131  46.2720261  45.0628204
  44.2006798  45.6008034  44.4718666  43.0200691  45.9229240  45.3625832
  70.2106628   0.1988572  43.6774673  69.4079895   0.6115715  43.3587036
  70.4659882  -0.4012299  42.9768028  10.6636381  31.4102631   9.8611908
  10.1869116  31.7629662   9.1098156  10.8211651  32.1693153  10.4226704
  47.7752953  11.0986366  49.5043068  48.6546097  11.4706354  49.5725250
  47.3604622  11.3095026  50.3407745  32.4774323  70.9710770  62.2739105
  31.9352608  70.2117462  62.4877014  33.2208862  70.9110718  62.8738327
   3.9697208  38.8127632  17.4605408   4.5118370  38.9817505  16.6899662
   3.1308568  39.2273026  17.2588100  33.3499603  42.3439369  40.5844078
  32.5583344  41.8743744  40.3216057  34.0257492  41.6675529  40.6296577
  52.5056610  61.8348427  17.9105492  51.6429596  61.5339050  17.6252117
  52.8638916  62.2914543  17.1493587  36.4300423  23.7160625   9.9487419
  36.4812202  24.0596504  10.8406839  36.6271706  22.7837906  10.0395193
  58.8156967  39.0092087  83.2257080  58.5641747  39.2862129  84.1067505
  58.0501175  38.5396729  82.8945618  22.2331429  54.0721550   4.4622831
  22.3390007  54.7375031   3.7823296  23.0330200  54.1339073   4.9844084
  52.2322121  20.3406086  13.3668089  51.5667648  20.0033875  13.9665546
  51.7501945  20.5477409  12.5661917  61.7345581  23.7538490  20.2633839
  61.5715523  23.1145821  19.5698433  61.3593903  23.3558903  21.0489445
  80.0374374  15.7914972  67.8873520  79.3114853  15.2688360  67.5466766
  80.2655182  15.3724594  68.7171783  86.5334015  29.8968277  53.3137016
  85.8378372  29.3313713  53.6493912  86.3046646  30.0382690  52.3950577
  28.4208202  18.4279213  10.8636227  28.4736805  17.5312500  10.5328407
  28.9289074  18.9443417  10.2380104  11.5897989  18.7855759   0.7014471
  10.8937416  18.4747410   1.2803400  11.7562399  19.6836586   0.9877663
  76.5815887  58.4827576  13.1681995  76.5533142  58.4867020  12.2114248
  77.3548203  57.9609489  13.3828201   5.5854588  27.4170074  67.3139954
   6.1841512  26.7727127  67.6917343   5.9040918  27.5450993  66.4205246
  67.6909485  30.1373405  46.6630783  68.1409607  29.3526897  46.3499489
  66.7934952  29.8486691  46.8288460   1.7038711  23.9996052  65.9676437
   1.3757031  23.4447803  65.2600327   2.3208888  24.5933800  65.5399094
  45.9925079  33.1240501  12.2919159  46.2379875  33.6740913  13.0358438
  46.5773048  33.4005165  11.5863590  52.2690201  43.0605583  19.7715092
  52.9237099  42.5118294  19.3396435  52.1601143  43.8095818  19.1855602
  85.9927673  20.8667316  53.0101852  86.5557175  20.2878284  52.4961891
  86.5235214  21.1036148  53.7707253  20.2776299  66.5261078  66.4201660
  20.9215508  67.2134933  66.2495880  20.6993713  65.7221985  66.1166916
  72.6549377  35.4375343  71.2946091  73.0330353  34.7998581  71.9001236
  72.5813980  36.2416115  71.8087006  81.5252380  54.4627342  84.8526154
  80.9098816  53.9014931  84.3808365  82.1941605  54.6827927  84.2042770
   3.2882731  65.5162888  28.2533531   3.6690943  65.1513367  29.0521107
   3.8759308  65.2285843  27.5547009  82.5298309  38.9927330   5.3852787
  83.1657333  39.1791649   6.0760055  82.8640442  38.2037430   4.9586325
  54.7261887  30.3312988  35.9080009  54.9788132  31.1488323  35.4789925
  55.3548470  29.6864319  35.5837135  69.5279694  47.2976875  12.9264574
  70.4619827  47.4586906  13.0603628  69.1019821  47.7287331  13.6673813
   5.1206722  45.4434204  20.3669453   4.7350740  45.3390770  19.4970837
   5.8126640  46.0935707  20.2457657  85.1718750  68.6482391   1.4325917
  85.1844635  67.7418137   1.7399280  84.2604599  68.8047256   1.1854892
  72.8473434   6.8868728  64.9599838  72.5364304   6.2018614  64.3681030
  73.6738129   6.5486374  65.3046417  44.9783211  57.2812462  55.2509766
  45.6802597  56.9711266  54.6788445  45.0396996  58.2355843  55.2097054
  44.1299286  34.5622444  85.0648956  43.6760941  35.0914116  85.7208252
  43.8898010  34.9602547  84.2281418  77.3873749  26.0944157  31.2911167
  77.4510193  25.5178337  32.0525208  77.8050308  25.6035671  30.5834026
  64.5436783  28.7391529  37.6637039  64.4284058  28.7488556  36.7135201
  65.4161606  28.3681049  37.7953529  21.3469582  30.9039879  64.3261719
  20.4652100  30.6672153  64.6137314  21.8882465  30.1533165  64.5705719
  42.4343071  18.3205261  79.2150269  42.7672539  18.2540340  78.3200684
  41.5884438  17.8731976  79.1897507  44.3586349  39.3052444  67.2031479
  44.3167839  38.9354057  66.3212738  45.2153969  39.0368309  67.5350266
   5.0547104  64.9451294   3.9563191   5.0916038  64.2671814   4.6310463
   5.0696554  65.7689514   4.4434762  76.1453629  30.0634403  54.0850639
  76.7019348  29.9342060  53.3171082  75.9194565  30.9933491  54.0633888
  65.2290192   6.3807993  71.5334778  65.0911179   5.7102752  72.2025146
  65.6725235   5.9205461  70.8209457  51.2222977  38.6162529  11.4556322
  52.0211487  38.1050987  11.3260555  51.2489395  39.2808914  10.7673187
  69.2381134  41.2644882  16.0490284  69.8475342  41.5549889  15.3704700
  68.3709793  41.4210777  15.6751451  84.7622147  10.8415146  68.4117889
  83.8830490  10.9183569  68.7824707  85.1899643  10.1726627  68.9464798
  72.2671890  25.8366108  23.9610004  72.5420456  25.4779091  24.8048134
  71.4504318  25.3793201  23.7609558  43.1941452  38.9593201  45.0499268
  42.4070473  38.6666946  44.5904884  43.2517242  39.8946037  44.8545876
  14.3082733  44.0130005  42.5585670  14.1579456  43.2149734  43.0653076
  13.4789867  44.4883881  42.6087875  77.9812317  59.2755928  86.5427475
  77.2468567  59.8702736  86.3901672  77.5962830  58.4008713  86.4888611
  80.8765488  62.8434105  18.7666645  80.7847366  61.9181671  18.9941025
  80.1979218  63.2842102  19.2779312  21.0456696  23.7376232  84.8209534
  21.4679432  22.9829292  85.2312622  21.5010891  23.8420296  83.9855347
  51.7652512  47.0665054  83.9282150  52.5919304  46.8352089  84.3516922
  51.3337440  46.2267647  83.7705231  30.7905788  57.6286964  28.3618221
  30.2829227  57.9319916  29.1145039  30.4464073  58.1304741  27.6229076
  73.6429062   2.7085690  88.9501419  74.3189774   2.3858366  89.5459595
  73.9161072   2.3977726  88.0870056  68.3568726  13.3228369  40.3009796
  68.3308792  12.4556284  40.7053375  69.1542282  13.7243299  40.6463165
  85.0608521  26.9046040  72.2705994  84.1419601  26.6981506  72.0995712
  85.0356140  27.5213432  73.0021896  79.0736465   8.7991667  31.2747746
  79.5263824   7.9942794  31.0229511  79.2422485   9.4046974  30.5528755
   9.2933359  59.4249039  37.4209213   8.6593637  58.8617134  36.9769325
   8.7605133  60.0981140  37.8441505  30.9713516  42.7739525  49.1183853
  31.8999100  42.5435295  49.0881195  30.8674393  43.4394836  48.4383087
  18.1871490  56.9442787  63.0752525  19.1075821  57.2064552  63.0925331
  17.9922390  56.6945724  63.9785194  66.7613144   2.0709887  64.1000977
  67.6767120   2.2289541  64.3310242  66.8028030   1.4934518  63.3378906
  30.9872398  19.0294514  72.9839706  31.7327995  18.4526539  72.8176041
  30.4327793  18.9335861  72.2096252  49.8051414  58.8890076  33.7809029
  49.8516312  59.7827682  34.1204071  49.6081924  58.3513641  34.5479622
  25.3103275  14.4886084  80.8805389  24.5433865  15.0603704  80.8470764
  25.4964638  14.3919802  81.8144836  53.8189430  48.0626945  69.1944351
  53.1084824  48.3627129  68.6274643  54.2372665  48.8674316  69.5004349
  55.0550652  49.4214706   6.3081770  55.1455269  49.2094803   7.2372136
  55.8201904  49.9614601   6.1101213  25.7466755   0.6529899  73.0774994
  26.6688538   0.7588486  73.3111954  25.6958752  -0.2223069  72.6934357
  73.4174881   2.3793218  20.2664948  74.2834396   2.1705003  20.6168594
  72.8269653   1.7687259  20.7077312  74.7773590  52.6245842  69.9953384
  75.2710342  53.4241257  69.8129883  75.0751572  52.3519096  70.8632126
  46.5041122  46.8384819   9.4981985  45.9456177  46.4987984  10.1974354
  46.7553749  46.0640755   8.9948158  19.4815884  50.7660522   6.1896725
  19.6916122  50.9904900   5.2831678  19.2427769  51.6002579   6.5937834
  56.9277611   5.1109414  61.7089958  56.8384209   4.6036968  60.9021797
  56.1203651   5.6224513  61.7609711  30.1565228  58.8066597  86.1350861
  29.9629478  59.5026512  86.7630692  29.4823151  58.8973274  85.4617004
  22.4786186  27.2252998   3.9822671  22.1148224  27.6405735   4.7642078
  22.1582069  26.3240547   4.0186348  14.9149885  56.7812309  75.6749649
  15.4587955  56.3905983  76.3590088  15.1730213  56.3249016  74.8740845
   0.6029451  54.9121857  52.2854881   0.6424106  53.9993820  52.5709152
  -0.3095652  55.1667290  52.4224739  60.8252335  64.8013535  52.6168098
  60.8886375  64.8696976  53.5694580  61.1381302  63.9187126  52.4186478
  20.7671299  10.2929173  76.1117477  20.1410255  10.3391476  75.3891907
  21.3183861   9.5387163  75.9031143  45.1905899   1.2241846  81.1601791
  45.1417809   2.1755354  81.2538910  44.4027672   0.8998060  81.5964661
  38.5739632  23.8087540   1.0105442  38.1789322  22.9869995   0.7191681
  37.8375320  24.4158516   1.0835996  74.1720123   1.7955091  30.0533428
  73.6652908   2.5335989  29.7146816  73.8520584   1.6754906  30.9474659
  68.1869736  66.0794220  52.4202118  67.9020615  66.3727264  53.2856789
  69.1332474  65.9635696  52.5060806  56.0767441  64.0746536   8.6473141
  55.4843864  64.8115921   8.7965565  56.9459381  64.4215012   8.8483982
  25.3654995  52.9857368  67.0198212  24.6505108  53.4864883  66.6270447
  25.2620487  52.1024666  66.6657486  84.9391403  58.5842743   7.6418514
  85.2750931  58.2726936   6.8014445  84.7065582  57.7867584   8.1173534
  49.5662537  19.0731430  18.1343746  49.8560257  18.1608582  18.1351643
  48.6158257  19.0226498  18.2362022  82.8826752  62.3121452  24.7128544
  83.2716293  63.1840286  24.7818394  83.6027145  61.7507133  24.4255123
  42.7673759  28.6893806  27.3439293  42.0651398  28.7945690  26.7020321
  42.4893379  29.2180290  28.0918980  80.4776611  21.9821987  24.6849880
  79.5500412  22.1389122  24.5083523  80.5985107  21.0473118  24.5188103
  44.1911201  64.1232758  37.0551605  43.4645615  64.2510757  36.4452362
  44.2022324  63.1804886  37.2202606  67.3359146  59.8220406  37.8440285
  67.6239395  59.3270760  37.0770302  68.1326294  60.2374611  38.1740379
  21.5823536  66.3412628  87.2128906  21.8537064  65.4376984  87.3746796
  22.3264236  66.8700333  87.5009766  28.8258419  46.6663208  18.8943691
  29.3595295  45.8906670  19.0669003  29.4481773  47.3184891  18.5724831
  21.4865742  36.5756721  63.3162956  22.3037682  36.1020317  63.1610794
  20.9987278  36.0190887  63.9232979  80.6251907  67.7684479   5.4100561
  81.1398544  66.9618912   5.4385552  79.8984680  67.5681305   4.8201566
  46.7096138  40.7439003  77.5435486  47.3190651  40.3863029  78.1892395
  46.8631668  41.6884193  77.5666428  51.2871628  63.0117989  20.2799358
  51.6039658  62.2088814  19.8661766  50.9069595  63.5174751  19.5616264
  53.2229729  60.9757805  64.8881760  54.0909691  60.8013992  65.2520523
  53.3866692  61.1876869  63.9691963  19.4291134   7.0384140  74.8721695
  18.9029732   7.8374200  74.9037628  19.6625099   6.9416800  73.9489136
  65.0729446  68.3048935  70.7434235  65.9413605  68.6876221  70.6185074
  64.8014679  68.6049728  71.6108856   2.5709746  64.9752426  70.3116837
   2.5625875  64.6768417  69.4022217   2.4243298  65.9194565  70.2553101
  77.4951019   5.9650974  76.9928818  77.5928726   5.9811554  76.0408249
  76.6027832   6.2751842  77.1472778  62.4073410  15.3289185  54.1615295
  61.7293968  15.1648388  54.8170471  62.7810173  14.4660931  53.9822845
  74.4866257  34.0074081   1.0102118  75.0300751  34.4551010   0.3617814
  73.6197128  33.9633293   0.6067796  51.6776237  10.9282608   0.2666185
  52.0824165  10.1416883   0.6322387  52.3853836  11.3627195  -0.2093548
  81.0034409  31.7186928  45.4122353  80.6348267  31.2974243  46.1886940
  81.3273697  30.9938736  44.8775024  22.5982094  55.0995255  41.9266014
  23.3569889  55.5178680  41.5198097  21.8821411  55.2502861  41.3095551
  86.8572388  22.4488487  29.2629738  86.2388077  21.8035564  28.9203644
  87.2478714  22.0242462  30.0267448   7.6951642  10.1396952  62.9781265
   7.8073139   9.6484356  63.7919540   8.2818041  10.8905964  63.0688515
  75.4278717  54.6562119  49.2929993  75.0286484  55.4016495  49.7415314
  75.5685654  54.9629745  48.3972664  27.1941357  11.7198515  36.8088074
  27.6084270  11.1456451  36.1646957  26.3811951  11.2713699  37.0416679
  15.8814840  69.9809036  80.6714325  15.7896357  69.1496201  81.1370010
  15.9422350  70.6382065  81.3646164  26.1946392  49.0533104  54.2943497
  25.9384708  48.4938812  55.0275955  26.6595058  49.7841873  54.7017136
  48.5364151  10.1913109  82.2686386  49.3201408  10.7133436  82.4403534
  48.7524185   9.6855536  81.4851990  47.6906776  35.6919060  66.5662003
  47.6532860  36.1797066  67.3889313  46.8822861  35.9276276  66.1110458
  69.5482407  70.8869171  87.0203705  70.0387344  71.6976013  87.1561203
  68.6316299  71.1405792  87.1285858  70.9328384  51.0129013  25.4241314
  71.7506104  50.7546158  25.8493061  71.2072067  51.4031830  24.5942898
  57.3090477  51.0288277   6.5743942  57.5008278  51.8777275   6.9729166
  57.3313293  51.1960564   5.6321788  59.8027153   9.0080986  34.7338066
  59.6890259   8.0614862  34.8188477  60.6687126   9.1795216  35.1038017
  48.5731659  48.5796089  66.5686798  48.1923294  49.1498222  65.9008026
  48.1383514  48.8387070  67.3811035  33.6631432  66.8322830   3.6832938
  33.5170174  66.4841995   2.8036814  34.4770737  66.4195251   3.9720521
  28.9694805  40.0849457  58.3571739  29.1011906  40.1332436  57.4103088
  28.0252876  39.9676933  58.4619789  45.7886734  66.2359848  22.0085049
  45.8847504  65.6202927  22.7350883  44.8456230  66.2725525  21.8486557
  37.9251862  33.0846977  61.6853409  37.3838005  33.8252602  61.4120216
  38.8170700  33.3401718  61.4497299  30.9999809  14.1012917   5.5272160
  30.6801548  14.4404221   6.3632379  30.9180508  13.1509600   5.6071444
  28.1240120  58.6240120  15.6128702  28.0546246  57.8478470  16.1687355
  27.3794518  58.5577583  15.0149803  14.1195173   3.8459790  86.5318069
  13.5506830   4.2483759  85.8754959  14.0301495   2.9048762  86.3815689
  77.8833008   6.1788168  44.6738358  78.6038666   6.7748604  44.4695053
  78.2899628   5.4765978  45.1815224   4.8377438  55.2617989  39.5990028
   4.9764304  56.2043762  39.5065765   3.9926579  55.1017227  39.1789551
  26.3618546  26.3885231   1.8801370  25.7856102  27.0602150   1.5154419
  26.3064556  26.5140247   2.8274555  77.6616669  35.1228676  65.5056915
  78.1274490  35.5879936  64.8107605  76.8608246  34.8068771  65.0873337
   7.1482530  32.0231628  33.6693573   7.2601876  31.3063927  33.0449028
   7.2445288  31.6103592  34.5275841  67.8944168  68.3711624   0.5373087
  67.3257217  69.1157455   0.3413206  67.3170319  67.6092987   0.4880509
   4.6418695  69.5957260  69.2303314   4.8583155  68.8048477  68.7364731
   5.1659584  69.5305405  70.0286484  26.0153847  51.4349251   8.2433195
  26.0411339  52.3879738   8.1581020  26.7488155  51.2262917   8.8219233
  57.7034874  17.3882771  19.9342918  57.0542984  17.1252441  20.5866718
  57.8568192  16.5977955  19.4167404  22.8775291   0.4376193  74.3881073
  23.4553471  -0.3118446  74.2443695  23.4622269   1.1954607  74.3820953
  10.9118633  11.4883556   0.7775277  10.3721905  10.7119427   0.6286377
  10.3763523  12.2163496   0.4621162  42.8410912  46.4603462  39.9654961
  41.9882355  46.2805443  39.5698395  43.0373077  45.6762733  40.4782944
  65.7377014  66.0031509  32.7395020  65.5594788  66.6773911  32.0838547
  65.0847244  65.3244171  32.5686913  55.5686226  64.9561768  55.9821892
  54.7053795  65.1778107  55.6330147  56.1849976  65.3603897  55.3715057
  84.9475021  11.7438574  87.0955429  84.0027237  11.8962250  87.0754623
  85.2384796  11.9257030  86.2019577   7.4908247  61.9641724  28.1506271
   8.0986977  62.2940865  27.4889030   7.1249142  62.7515793  28.5535316
  55.4695053  33.2363434  42.9831886  54.6202698  32.7968407  43.0264206
  56.0833778  32.5469170  42.7300415  78.0142593  21.3373890  15.9285641
  78.8517838  20.8743420  15.9478731  77.6937332  21.2155037  15.0348969
   5.8555765  10.5841627  85.7647018   6.3754907   9.8659267  86.1253433
   4.9945025  10.4838362  86.1705551  19.9662800  52.4588547  45.1806602
  20.0864162  53.2250786  44.6196747  20.5886021  51.8147659  44.8428764
  25.1567898  36.0024109  73.4289169  25.7232151  36.6501656  73.8482132
  25.4138451  36.0204315  72.5070572   6.4884253   8.3080740   6.2130494
   6.9531903   9.0463772   6.6069198   6.2819004   8.6010494   5.3254995
  40.8037109  25.3073997  14.3942823  40.8844833  25.7718086  15.2273684
  41.4736710  25.7005386  13.8349724  11.8534842  64.0952148  87.7208633
  10.9514008  63.7751694  87.7140121  11.9467134  64.5664978  86.8929520
  29.7304611  37.4389420  73.3248444  30.6763821  37.4707336  73.4678650
  29.5931587  36.6462631  72.8061523  63.2823219  54.0564575  66.5811310
  63.9949379  53.5244980  66.9352875  63.7101822  54.6492157  65.9632263
  65.2632217  31.4331665  82.0418854  65.2689590  31.5581856  82.9908676
  65.8985825  30.7338467  81.8885803  32.2931290  70.0156784  50.2334023
  33.2149925  70.1078110  49.9927521  31.9334164  70.8984070  50.1460533
  86.4615860  15.0732393  38.9677696  86.8339157  14.8462524  39.8198738
  86.4750977  14.2531261  38.4743500  63.7993393  51.0854530  47.1215324
  63.1379204  51.6335297  47.5438728  63.8263016  51.3968658  46.2168083
  82.1541214  37.5883064  75.2826767  82.0800323  36.6703568  75.5436478
  82.0135345  37.5802307  74.3358917  62.4817772  12.6856651   2.9890954
  62.5086403  13.4350481   2.3941708  62.0324059  12.0016985   2.4926214
  44.8268394  56.7923279  83.2917252  44.9132347  57.1131210  82.3940353
  45.6519051  56.3388290  83.4644623   0.2089243  67.9816284  21.7396488
   0.0754593  68.6977539  21.1186962   0.8040980  68.3422852  22.3968620
  61.4612770  35.1634865  22.0478325  61.8911057  35.2813835  22.8949337
  60.8296547  35.8809700  21.9978237   6.8552895  42.9205093   1.5485152
   6.1593556  42.4659386   1.0738864   7.4274082  43.2649727   0.8627614
  49.6593094  64.8864670  69.8234100  50.1008949  65.6878815  69.5423813
  49.1335411  65.1543884  70.5770798  51.5891838  44.8906593  33.9461899
  51.9027901  45.7532997  34.2177391  52.3780785  44.3498383  33.9089012
  56.2922821   8.1834154  52.7901459  55.7673721   8.6410227  52.1334152
  55.6487122   7.7690372  53.3648949  34.8364449  49.7886314   3.7697384
  35.1711922  49.0740242   3.2279704  34.0959167  49.4058762   4.2402158
  65.6619644  38.9786148  87.6845398  66.4748688  38.6036263  87.3457108
  65.5202103  39.7623863  87.1536484  20.8639202  23.8571796  82.0452728
  20.7440166  24.8012199  81.9421082  19.9905815  23.5263443  82.2551804
  75.8629227  14.2223206  75.2461624  74.9057236  14.2216072  75.2467575
  76.1020355  15.0698862  75.6212463  56.2000008  27.9398670  25.3357944
  56.6506844  28.2354946  24.5447693  55.3088379  28.2769203  25.2438507
  76.0176926  24.7747555   3.5758114  75.6034164  25.5737095   3.9018111
  75.6128693  24.6266117   2.7211752  19.9288635  52.9537277  69.1966705
  20.1263065  53.7282677  69.7233047  20.2647877  52.2210503  69.7129745
  85.5712204  15.1867847  27.2111454  85.4384918  14.2654104  26.9882469
  84.8747787  15.3844461  27.8373489  40.9792786  42.4563293  31.6339779
  41.2265167  41.7473755  31.0402660  41.8124466  42.8025398  31.9536667
  54.2084808  62.5738983  47.5518646  54.0097351  62.0989456  46.7449226
  53.6651001  62.1525764  48.2177887  45.2114525  13.5634918   4.8426514
  45.7954903  14.0459194   5.4277973  45.7604523  12.8719645   4.4730258
  65.6355362  68.7976379  81.8234787  65.0551605  68.5014420  81.1222916
  66.4356537  69.0689697  81.3735657  20.1998787  39.0887909  24.7072659
  20.8479500  38.3885422  24.7840233  19.4761486  38.8077545  25.2671471
   0.8305659  43.0231819  58.2808075   0.2635823  43.7515526  58.0273590
   1.4341474  43.4008751  58.9205475  39.3095436  20.0337334   8.7801352
  38.4084511  20.2368374   9.0311584  39.6403046  20.8460941   8.3968592
   2.3647447  52.6478806  59.3044662   3.2035627  52.9872284  58.9922829
   1.7969878  53.4171982  59.3495750  65.1962662   6.5735936  19.0279541
  65.6859741   5.7632337  19.1684322  65.7432556   7.2548461  19.4190216
  49.6907845  51.4355164  46.6069412  49.6224060  52.3469315  46.3225403
  50.6318474  51.2790298  46.6853104  83.3736267  47.2224579  64.2784424
  84.1878204  46.9683151  64.7128754  83.1595306  46.4778366  63.7163658
  63.8213158  37.8129158  19.8791466  64.2427979  37.9995232  20.7180500
  64.1979141  38.4522362  19.2744350  13.3417988  60.8068161  84.3281860
  14.1635332  61.1786346  84.0076599  13.1448097  61.3078537  85.1196365
  65.3088531  43.5473824  -0.3003980  65.1920776  43.0428162   0.5045917
  65.1949768  44.4586639  -0.0305280  34.2202492  69.2841415  84.8812256
  34.7045975  69.9603348  84.4075089  34.8942642  68.6787796  85.1902237
  82.6795959   4.2565832  61.6188850  82.9629669   3.4240520  61.9968109
  83.4892044   4.7528100  61.4983521  58.4703941  49.6324387  71.1072998
  58.1444626  48.7629280  71.3395767  59.4122086  49.5870972  71.2721024
  38.9161911  17.3210735  67.4908066  38.6052246  18.0635586  66.9728775
  39.8334808  17.5242214  67.6739349   6.9577928  25.6318817  87.4559174
   7.7780013  26.0184822  87.7625656   6.7747979  24.9308987  88.0815125
  73.6478119  60.6159286  53.1420288  72.6947327  60.6708527  53.2117004
  73.8279114  60.7478218  52.2112236  22.1175213  22.7885418  14.5404997
  21.2690105  23.0505238  14.8977480  22.4508686  23.5770416  14.1122723
  30.5953712  55.8364525  62.9325752  30.8553371  55.2978592  62.1852036
  31.3748302  55.8686981  63.4872246   5.0670357  16.7068977  54.5503044
   4.6856184  16.7286320  53.6726456   4.4730525  16.1521320  55.0559235
  86.1592636  32.6865463  12.0753613  86.4080353  31.8692379  12.5070438
  86.7436523  33.3441544  12.4525623  75.6031418  34.4367943  64.0182800
  75.4221268  33.5261459  64.2510605  74.7706680  34.7678604  63.6812096
  61.0051155  12.8098679  33.5849609  60.8807907  11.9086657  33.2872887
  61.4921532  13.2310219  32.8766861  70.2124176  60.1069260  42.6750717
  70.8425522  60.7075539  42.2770729  70.4641953  59.2436752  42.3469925
  65.6185074  49.1625977   3.7440665  65.4972534  49.6046066   4.5843992
  66.2612457  48.4766922   3.9247658  63.9556046  57.2173233  24.4760246
  64.1043167  57.5614281  23.5952835  63.4692230  56.4047585  24.3367329
  13.8576212  31.5745182  74.9950485  13.4876823  31.7687416  75.8562469
  13.2498579  31.9796429  74.3763962  73.4836349   0.4334720  27.4945927
  74.2473602  -0.0802001  27.2317371  73.6784210   0.7114081  28.3896008
  51.3845139  28.9052429  16.7926044  50.9253387  28.3743477  17.4434052
  52.2912827  28.6011963  16.8320751  69.5329971  17.6709728  56.5043640
  69.3072510  18.2769146  57.2101288  69.8858414  16.9022160  56.9524117
  26.1799870  50.7545166  71.0392685  26.9142475  50.2060204  70.7631378
  26.1583023  50.6638794  71.9919205  74.0309906  39.5971336   0.8535385
  73.8021698  38.8524895   1.4097562  74.9601974  39.4743538   0.6592607
  42.5502434  59.9572449  38.7115517  42.1184540  59.1368332  38.4734001
  42.9351921  60.2715645  37.8934746  58.8287277  69.5968933  51.4907341
  59.3981819  69.0302200  52.0111504  59.1210098  69.4666901  50.5885963
  58.7686920  54.6904488  10.9878998  58.0659485  54.0897598  10.7397919
  58.5471573  54.9635735  11.8781576  77.0385361  13.2698345  49.2825890
  76.1424026  13.0281267  49.5165787  77.2266693  14.0400286  49.8189087
   2.5506666   6.3874235  45.1796494   2.2970252   6.0165319  46.0248375
   3.1337934   7.1132336  45.4019012  41.9965286  36.4379387  78.3892517
  42.6889839  37.0341568  78.1041870  42.0298615  35.7151070  77.7626495
  39.9421043  17.0425224  79.7138062  39.9721718  16.7672119  80.6300659
  39.0339966  16.8956165  79.4492569   2.8259428  11.7143278  37.5673523
   2.5772092  12.3740406  38.2147636   2.3812342  10.9169645  37.8548927
   0.0918953  17.0882473  73.6621552  -0.7336810  17.1726017  73.1851425
   0.6681254  16.6151829  73.0618210  55.0741463   9.1599665  83.5336990
  55.3065987   8.3679314  83.0490494  54.1260643   9.2367220  83.4265671
  76.0723648  30.6439991   6.2003188  76.5095749  30.9753113   6.9847374
  75.5597076  31.3862820   5.8802700  13.2410736  24.3737736  83.1695633
  13.5667906  23.9213028  83.9476395  12.7516737  25.1207466  83.5141602
  57.4450607  61.2165413  20.7963905  57.9861641  60.6797600  21.3754482
  57.1935539  61.9685249  21.3325748  80.6712570  22.8491592  65.8793030
  80.6905670  23.5123158  65.1893234  81.3065414  22.1911869  65.5969696
  75.8861542  38.2674561  39.9172478  75.1308899  37.7703781  40.2314491
  75.7915268  38.2703590  38.9647408  24.1023884  11.3695545  65.9659500
  24.6535320  12.0837841  65.6460266  24.2618637  11.3481522  66.9095230
  30.6643658  58.2179985  80.5344391  31.1796341  58.5690689  81.2607117
  31.0467186  57.3572769  80.3635635  49.2389603  57.7110100  18.8547897
  49.5988884  58.2256927  19.5771351  49.8375168  56.9691277  18.7677650
  74.7258530  20.6160774  69.9280319  74.1570816  20.2073402  69.2755966
  75.6084137  20.5202446  69.5700836  50.1498642  18.2531834  68.2103195
  49.5381813  18.8830185  68.5916138  51.0133362  18.5609512  68.4858704
  24.8348351   2.2759812  14.9989128  24.8194904   2.4647698  15.9371853
  25.6149883   2.7272663  14.6765251  30.6963654  36.8238182  26.4542618
  30.4506111  36.1667824  27.1055241  31.5761642  36.5685654  26.1767159
  39.5726280  52.6457062  59.7945366  39.7553177  52.8871460  58.8864822
  38.9359169  51.9339333  59.7296600  85.5896454  34.3163300  43.5806961
  86.3186874  34.3536644  42.9615631  85.6645584  35.1246071  44.0879478
  13.5432329  49.0903397  12.0690022  13.9699287  49.4800873  12.8320589
  13.5173187  48.1531067  12.2617588  55.9429855   6.2276316  50.2224159
  56.5506172   5.6731639  50.7118835  55.1024170   6.1107941  50.6651649
  46.0803757   5.6093411  63.3318977  46.1203308   5.7861738  62.3920212
  45.8282623   6.4460483  63.7225266  70.7017975  19.1265221  69.2412643
  70.6891327  19.5007973  70.1221695  70.8373489  18.1893501  69.3811417
  23.6271610  47.9277077  16.6183281  24.0504208  47.7960663  17.4667110
  22.8039913  48.3692474  16.8272896  55.3937759  52.4832230  60.2339859
  54.8907776  53.2968216  60.1981468  56.3042107  52.7597046  60.1296082
  47.8990326  39.0392418  64.4743576  48.7989883  39.1371498  64.7853546
  47.9894714  38.7682381  63.5607872  31.0109692   1.0284246   3.3077958
  30.8472214   0.3900819   2.6135788  30.7342224   1.8650494   2.9340277
  57.2459755  16.9636040  42.6795654  57.8735390  16.2582417  42.5218887
  56.3968735  16.5835800  42.4540939   0.9650824  43.5551376  73.6818924
   0.6005447  44.3925514  73.3953781   1.2392371  43.7099800  74.5858231
  55.6504478   1.8545771  67.4665298  55.0984077   2.5292420  67.8618927
  55.3487930   1.0364952  67.8614655  48.9719810  54.9879913  32.5575066
  49.9167519  54.8922729  32.4371643  48.8185959  54.7273941  33.4656868
  64.8268204  65.3619995  10.9698954  65.4536896  65.8159409  10.4066858
  64.0622940  65.9375992  10.9899406   6.6570830  18.8051224  12.0238466
   6.7471724  18.0007019  11.5129433   6.9357023  18.5607967  12.9064045
  84.8222580  60.3436661  26.9393139  85.5182877  59.7843323  26.5944691
  84.2269211  59.7393456  27.3827095  16.5455627  18.4184246  12.6164312
  17.0737419  18.9135323  11.9902334  15.7454853  18.9344254  12.7156858
  37.3971252   1.1198199  57.9694405  37.0952606   1.9695594  57.6484222
  37.6135025   1.2742743  58.8889809  27.9170055  20.8870392   9.0980101
  27.1425190  20.9712105   9.6541748  28.4357986  21.6682034   9.2900152
  66.3892136  15.2162848  41.1554489  65.9634781  15.3255081  40.3051224
  66.9748306  14.4686365  41.0358276  73.0500183  26.6953335  46.7508278
  72.3003006  26.1362457  46.5469131  73.1764908  26.5918045  47.6939697
  63.4145813  43.5324631  86.5164490  62.6645813  43.4099922  87.0984497
  64.1593704  43.6477585  87.1065598   4.0745230  41.9284363  83.6219635
   3.6694906  42.1297913  82.7783737   4.0610461  40.9726448  83.6720657
  36.7137032  45.5801468  81.0417938  37.4548721  46.0026703  81.4758148
  36.4174461  46.2210770  80.3955231   7.4818649   5.5679889  69.0111923
   7.2964306   5.6847405  68.0794067   7.3446622   6.4348826  69.3931580
  58.7323570  28.9744415  52.5578117  58.3126984  29.8297310  52.6505508
  58.1671410  28.4947147  51.9523163  46.1696205  33.4644318  74.0129089
  46.4678955  32.7529831  73.4462509  46.5659523  34.2511330  73.6383972
  16.5201321  38.2355232   0.6296998  16.1716251  37.6698151   1.3187181
  16.6339970  39.0863838   1.0531459   2.3624218  43.7101250  88.7140198
   1.4946396  43.5931129  89.1006622   2.9323494  43.9028091  89.4585190
  77.2381668  34.0738258  61.4828377  77.1916122  33.2706108  60.9642754
  76.5805817  33.9549103  62.1681671  62.6510162  55.8083420  62.3789024
  61.8777199  55.7108650  61.8232574  63.0157433  56.6589661  62.1346855
  30.9503498  54.0021935   5.4716091  30.7180405  54.7265854   4.8906469
  30.8260098  53.2175713   4.9376206  77.2826157  54.1110916  55.7404060
  77.6909943  53.6327095  55.0188713  77.0027924  54.9393501  55.3506355
   4.5898757  53.4989128   6.3016071   4.6482830  52.9034119   7.0487370
   5.1934443  54.2105865   6.5148072  -0.0503038  47.4296303   5.9184012
  -0.0079698  48.3330765   5.6049881   0.8223839  47.0755920   5.7472191
  26.6266899  68.4226990  62.5824165  26.6178284  67.4934082  62.8117256
  27.3806438  68.5186310  62.0005417  28.8058929  61.8376770   1.9040502
  29.6602745  62.2280998   2.0879891  28.2126560  62.5849266   1.8271065
  71.6140823   2.6564975  43.4118729  71.2965546   1.9537556  43.9789314
  71.8309555   2.2199883  42.5880623  55.8443947  69.3611069  72.6912308
  55.1379433  69.8748856  73.0826187  55.4382439  68.5220642  72.4737778
  24.8333340  18.5426216  81.4521332  24.6563358  19.4735718  81.3171005
  23.9679184  18.1338520  81.4661407  -0.0293839  70.0830383  40.2960434
   0.2614678  70.1391983  41.2062569   0.1801960  70.9398575  39.9243317
  69.0038681  42.0737762   8.1550779  68.2290497  42.5483284   8.4562235
  68.8346863  41.1625557   8.3944235  78.7160721  32.4950943  12.1302109
  79.1725922  33.2754326  11.8157396  79.0329819  32.3767471  13.0256395
  24.4317989  42.3472481   5.4122553  23.7539558  42.6145477   4.7915196
  24.9095917  43.1534843   5.6070189  32.7606888  42.8831406  79.9505692
  32.0321198  43.4080772  79.6191177  33.0404243  43.3367081  80.7457123
  35.7811928  56.0797043  14.4842501  36.1752625  55.6199150  13.7429428
  36.5265045  56.4266853  14.9745016  25.4341488  29.9205322  80.1240311
  24.4848843  29.9594021  80.0073242  25.5531006  29.5398121  80.9941635
  72.6818466  31.7987347  41.7857285  72.2552872  31.4727230  40.9932632
  73.5992584  31.5445938  41.6857681  10.8520603  25.9982090  63.4483147
  10.4494543  26.0658398  62.5825386  11.4510965  25.2550869  63.3765030
  53.6617126  54.6281624   9.6929007  53.9413948  53.9277153   9.1035042
  54.1406021  54.4632339  10.5051184  83.3222046  39.9562149  28.8044147
  82.6323929  39.2938805  28.7631340  83.4692001  40.2061195  27.8921814
  33.6846733  55.9312134  49.2078552  34.3698692  56.0315514  48.5470467
  33.6631470  54.9917183  49.3898201  72.1679077  57.3372917  29.4860935
  71.8155823  56.4642830  29.3130112  71.3949814  57.8833923  29.6295643
  59.0721779  28.2293472   5.8293529  58.8939857  28.7744656   6.5957251
  58.6591949  28.6956081   5.1025276  36.0145607  69.1304474  54.1365318
  35.9347839  69.6947784  54.9055519  36.1319656  69.7370453  53.4054489
  64.0210800  37.1547775  13.0234327  63.4623795  36.7322655  13.6757917
  64.3262100  36.4370422  12.4684715  18.5401154  27.5106564  66.7498550
  17.8296280  27.5907726  67.3862686  18.6204510  26.5690250  66.5978394
  80.9822311  36.3119583  34.4880028  81.1766739  35.3838425  34.6184959
  81.6906662  36.6286049  33.9275742  21.6058445   9.2460785  14.4954319
  22.3218727   9.0845613  15.1098003  21.5962353   8.4735260  13.9303637
  64.5012054  69.1614227  50.0057068  63.6297493  69.3703384  49.6693192
  64.9911880  69.9798431  49.9261742  64.3631058  50.3377113  61.6050529
  64.3339539  50.3142319  62.5615196  65.2018127  50.7514725  61.4010773
  26.3100166  21.9342747  77.2495880  25.8159065  22.3319721  77.9664764
  26.2421627  22.5652370  76.5329895  67.6448288  36.3821297  39.2843857
  68.1520081  37.1639633  39.5028648  68.1553574  35.6570282  39.6446877
  67.8267593  50.1418915  33.3377495  67.1530304  50.5886650  33.8503036
  68.2041550  50.8285828  32.7879677  56.8098145  43.9386253  19.3877239
  57.1647873  44.7199326  18.9637127  55.9517365  43.8148575  18.9819927
  86.2484055  35.8497696   7.6739631  87.0669098  35.8241005   7.1783524
  86.4722595  35.4746437   8.5256681   2.7376177  33.6036034  23.8880997
   2.2677879  32.7784882  24.0092411   2.0716984  34.2142296  23.5719967
  44.1386909  67.7881546  68.9946213  43.7324753  68.2292328  69.7407303
  44.7227440  67.1400757  69.3884506  59.7070618  61.4128036  84.6306076
  59.7715302  62.2968636  84.9918823  60.5598717  61.2571411  84.2247543
  44.9658661  61.7484550  70.8437576  44.5515327  62.6000824  70.7048645
  45.1537590  61.4268646  69.9619904  16.0779171  62.8741684  25.3782406
  15.1791258  62.8659286  25.0490952  15.9913492  62.7002258  26.3155155
  17.6979771  39.6187439  72.0096588  18.6019249  39.6499786  72.3229218
  17.7488842  39.9161491  71.1012573  58.8603706   2.4045839  22.1538219
  59.4015579   1.7998984  22.6614685  58.2380180   1.8409199  21.6942692
  82.1259537  48.4792404  55.8731155  82.0211487  49.3781738  56.1848335
  81.5701981  48.4291000  55.0953903  42.2286148  48.9198418  49.6789322
  42.0004654  48.2981758  48.9877701  42.4239845  49.7335548  49.2142487
  38.5845909  70.1359558  45.2604256  37.6869087  69.8981400  45.4924660
  38.5298119  71.0565414  45.0039978  34.5609131  69.3907471  23.6176472
  33.7781944  69.6885452  24.0812206  34.2284775  68.8023071  22.9398136
  83.4502411  24.7564144  15.6718121  82.6564407  25.2692471  15.5197754
  83.1318893  23.9080486  15.9802904  13.5692053  20.7786770  57.2479248
  12.7240334  20.3976288  57.4860840  13.3531828  21.4647369  56.6163521
  70.3695755  46.0095329  70.2054977  69.4512482  45.8749084  70.4395370
  70.8528519  45.8095322  71.0071716  67.4312973  44.6558151  27.0570278
  66.7861328  45.3593369  26.9859409  66.9088287  43.8631935  27.1795368
  47.5596542  25.0447598  80.1040649  47.0116272  24.3585014  79.7233505
  47.0491486  25.3768139  80.8425522  46.5545883  45.1497574  75.6295624
  46.1484032  45.5301933  74.8507767  46.0250053  45.4734306  76.3582687
  64.1083679  20.0362053  41.6968994  63.5552216  19.3031311  41.4269600
  64.0499496  20.0412140  42.6523018  21.8712254  43.4210739  67.4538422
  22.5465260  43.9275475  67.0025253  21.0655212  43.6163101  66.9753418
  47.0221062  35.5453529  84.8430099  46.1113892  35.7421379  85.0623245
  46.9968376  34.6555252  84.4911499  32.7392616  26.5975971  77.0437775
  33.0412178  25.7118645  76.8424606  32.4882355  26.5610752  77.9667587
  64.5115738   4.1908603  56.9036407  64.5885925   3.9075282  55.9925842
  63.9943237   4.9951601  56.8614235   5.0403428  57.5109787  77.1363144
   5.3694267  58.3918419  77.3152466   5.7947316  56.9396477  77.2802200
   3.5482509  65.6664124  64.1144867   3.9939711  65.1033478  64.7473526
   2.9886832  65.0706711  63.6162872  80.0513763  62.8918495  21.9974995
  79.6677170  63.7681885  21.9648190  80.1360168  62.7021370  22.9318848
  83.2638168  12.8068857  50.3568001  82.6483994  12.6542225  49.6397285
  83.0411072  13.6791916  50.6819420  46.1539345  14.7434235  66.9729996
  46.5778160  14.5089359  67.7985687  46.3396683  15.6761847  66.8648682
   8.7721319  55.3512611  17.1852570   8.1214066  56.0489578  17.2627583
   9.4787474  55.6163025  17.7740517  80.3648911  71.4494705  15.0314484
  80.8237305  70.7466888  15.4916716  79.5612869  71.0405884  14.7101040
   4.2971125  31.9264793  26.7383804   3.7028635  32.6366539  26.4959946
   4.6356740  32.1800232  27.5970573  74.6312485  71.5577469  69.5104752
  73.9439392  71.2306595  68.9300842  74.1876373  71.7102966  70.3448486
  65.5296326   4.3815088  53.8598328  64.7650528   4.8921981  53.5936508
  66.2602386   4.9974179  53.8041954  76.1531525  20.3745708   9.3303146
  76.5156631  21.1566505   9.7464523  75.6474762  20.7097740   8.5899363
  51.0106010  58.3217888  46.9531670  51.8179207  58.2063370  46.4520264
  51.2856941  58.2604561  47.8679314  85.5017548  48.0128441  28.3794613
  85.5600510  47.7311974  29.2924271  85.6912079  47.2232323  27.8726540
  86.2567520  13.0749407  76.1672516  86.7360992  12.3930712  75.6966019
  86.7706833  13.8700075  76.0259171  37.4658432  54.6789818  43.2506256
  37.4305916  55.3189735  42.5397110  36.6628571  54.1673355  43.1523247
  33.2574196  48.9367180  25.2773876  33.1785583  49.7957573  25.6921864
  32.3930511  48.7725372  24.9003696  54.6715698  44.8891983  14.5551538
  54.7680626  44.1283875  15.1279440  53.7491264  45.1325035  14.6334696
  85.3229980  43.3524132  32.7843018  85.7184448  43.3052597  33.6547241
  85.0355835  44.2616119  32.7007446  57.7406464  64.7505646  67.1744461
  58.6914330  64.6399612  67.1761398  57.5788765  65.4425278  67.8157349
  66.0126038  10.9872589  74.7086563  65.5281448  11.8003330  74.5656815
  66.9321060  11.2371349  74.6174927  37.0792809  39.8748169  69.8923264
  37.3851547  40.1468773  70.7575760  36.8061485  40.6882629  69.4681396
  59.3582001  70.5599060  84.0784378  59.2109909  70.2099228  83.1997604
  60.1323547  71.1156006  83.9883118  68.7387772  50.1037483  19.0947838
  69.1068344  50.3928986  19.9297409  68.6601944  50.9051743  18.5773106
  59.8181038  57.3331833  62.8681107  59.4519081  57.6316299  63.7006149
  59.0832481  56.9150085  62.4193916  12.5760756  58.8077660  70.9442673
  12.6365290  59.6061134  70.4196472  12.3287954  58.1276321  70.3177643
  83.8233948  66.5336761  12.1400547  83.6715851  66.5645142  13.0846357
  83.4489212  65.6969833  11.8644762  62.6056671   2.1376402  16.3640919
  62.2775421   2.6486557  17.1039772  61.9198418   2.2097735  15.7002611
  27.0709476   5.4258456  17.2754974  27.0294094   4.5694652  16.8499165
  26.1773701   5.5861120  17.5789165  38.4326477  66.2911682  28.9939365
  37.7391586  66.4326477  29.6383629  37.9790077  66.2862854  28.1510715
  38.8893547  49.7515259  76.3575058  39.8168983  49.6738739  76.1342087
  38.4437103  49.1807022  75.7315674  41.3157730   4.8939743  58.0638084
  40.9296494   4.7667603  57.1972313  41.4726334   4.0073423  58.3886337
  20.7630005  52.1394768  53.9400749  20.2590294  52.5426979  54.6469383
  20.2452946  52.3050652  53.1521721  73.5196228  26.1955929  54.2249336
  73.6460724  25.6550102  53.4451828  74.3758926  26.5935783  54.3819008
  24.3319321   5.0281243  58.7872314  24.1661358   4.5131044  57.9976120
  23.5895042   5.6299100  58.8409538  81.5414352   8.6138458  36.1768456
  81.5939484   9.2633724  35.4757118  82.1897125   8.9020824  36.8194046
   5.3034449   2.4731252  13.3305130   5.5641260   2.6290631  14.2382364
   5.1359096   3.3463483  12.9760485  30.9265842  36.4840546  80.0478745
  31.2187481  36.5885887  79.1423645  30.0119152  36.2116165  79.9744873
  26.5898228  70.1875839  15.6361628  26.4104385  70.6277008  16.4670353
  25.9032669  69.5245972  15.5631952  50.9718552  35.3934898  51.0497894
  51.2431183  35.7811775  51.8818626  50.7495041  34.4885025  51.2684097
  32.1614952   7.9576144   7.9520941  32.5065575   7.0858107   8.1447620
  32.4896622   8.1566896   7.0752206  75.6351242  69.9095917  15.0458822
  74.9308624  70.1883087  14.4605885  75.3112030  70.1117706  15.9236231
  17.3688507  48.1093102  86.1423111  16.7676716  47.9261703  85.4203186
  17.5660801  49.0422554  86.0589828  71.8127975  39.7803497  12.7353067
  71.7041168  40.6400948  13.1418314  71.3935928  39.1726227  13.3445377
   6.0710955  48.5499420   9.4700546   6.2727447  47.9273186  10.1685600
   6.9217348  48.7634163   9.0865545  71.5816498  22.0675182  79.8168488
  71.7916870  22.1920071  78.8913040  72.4010849  22.2530937  80.2754669
  41.0934410  53.6523628  19.8891697  40.5739059  53.3073082  20.6152897
  40.4990501  54.2458954  19.4302006  62.6240120  31.9939251   4.4033160
  62.5321236  31.0731754   4.1583500  62.8795433  31.9720650   5.3255191
  70.2387161  44.0899124  74.1723633  69.7379303  44.3265762  74.9530258
  71.0454102  44.6005096  74.2413864   4.2231984   7.5231853  77.1511993
   4.7960691   8.2855463  77.2340012   4.4305730   7.1601539  76.2901306
  56.0134583  21.6820354  33.9090729  56.7009430  21.0240040  33.8061485
  55.7848701  21.9316635  33.0137177  67.6556702  19.1523705  58.1471519
  66.9181671  19.7392883  58.3140030  68.1832047  19.1979389  58.9445648
  57.9123650  41.2891617  79.2673645  58.2153397  42.1784439  79.0840302
  58.6330681  40.8855133  79.7509766  26.3569126  43.4788857  88.0516663
  25.7036915  43.8052444  87.4327774  26.7792263  44.2674980  88.3922272
  14.8128386  41.2191620  83.0800323  14.8431273  40.3379211  83.4524994
  13.8797035  41.4269905  83.0321121  51.7581177  68.6078110   3.6445718
  51.2675056  67.8804855   3.2617791  52.4725456  68.7658997   3.0274563
  52.5433121  23.8797073  66.0037384  51.8944130  23.1851234  65.8909760
  52.0296707  24.6503716  66.2455750  18.5911388  68.9558105  75.5842514
  17.9763012  68.2349167  75.7203293  18.9628391  69.1203995  76.4508362
   7.3411813   8.1735935  25.8340149   7.1541395   8.5127926  26.7093372
   6.6022630   8.4665127  25.3006935   2.9364998  27.4157963  11.5976238
   3.0074041  26.5133476  11.2865133   3.3563814  27.4063034  12.4577646
  71.0070190  25.7025795  76.4835510  71.5689621  26.4311390  76.7474670
  71.4661026  25.3010578  75.7458115  67.3055420  13.0094938  15.4265842
  66.6736298  13.2010441  14.7335968  67.6784592  12.1621990  15.1831608
  54.6784439  15.9570351  39.8114243  55.2422371  16.5337601  39.2959099
  54.2856674  15.3678083  39.1674004  54.6536713  27.0319691  66.5462494
  54.7571335  26.6625671  67.4232178  54.2820587  26.3181477  66.0279846
  53.3906937  28.0662136  21.3982391  53.0356064  27.1899357  21.2489605
  52.9559250  28.3681583  22.1957607  54.3516731  14.2664070  80.3410568
  54.3088837  13.6086597  81.0351486  53.4385452  14.4153910  80.0956421
  62.3579674  69.4076843  63.5653267  62.2636147  69.9797211  62.8036804
  61.4594269  69.2200165  63.8366928  61.9716644  50.6817932  84.6893158
  61.1600761  50.7342186  85.1940994  62.5312042  51.3619957  85.0641174
  75.9791870  70.9662781  35.3015404  76.3387375  70.3451691  35.9349289
  75.6049423  71.6654205  35.8376083   4.8976860  14.9162922  56.9180946
   3.9973326  14.9262447  56.5932922   5.1321616  13.9886608  56.9455490
  33.2862015  48.1740875  30.9365063  34.1533585  47.7758369  30.8612041
  32.7294273  47.6455307  30.3647842  33.5119400  47.8798676   5.8743262
  32.9065742  47.7550850   5.1434388  33.0057106  48.3675804   6.5240207
  12.4165688  37.5907593  68.1300354  12.2076101  37.2351570  68.9938202
  12.3923073  36.8323593  67.5465393  16.9667797  44.5494766   6.6425548
  16.7274055  45.0849648   5.8861284  16.3322315  43.8328400   6.6391220
  64.2149124  23.2419167  10.0287247  64.5875015  22.5277519   9.5116358
  63.4159126  23.4847965   9.5609283  42.4532509  70.6443253  37.8388557
  42.8548126  71.2163239  37.1847954  42.4251671  69.7841492  37.4198799
  71.4076385  31.9507732  54.2141151  72.2111130  31.7514572  53.7335663
  70.7060318  31.7998333  53.5807152  80.8137512  65.2131500  16.0858803
  81.3719864  64.5437393  16.4814739  80.7430649  65.8927994  16.7561855
  63.0737190  38.3587608  76.5487595  63.1671906  39.2072945  76.1157608
  63.2801247  38.5343056  77.4668045  86.7746811  37.4673996  32.0740318
  86.9946518  38.3973083  32.1298485  86.3331375  37.3759880  31.2296867
   9.3131561  53.5001945  82.6627655   9.9962368  53.9480743  82.1637268
   9.7822552  52.8369789  83.1690521  35.2799568  64.0269012  28.2800064
  35.7399216  64.7759476  27.9010715  34.3546562  64.2026215  28.1091957
  76.0361710   1.6792699  25.4291210  75.3616409   1.0110323  25.5503407
  76.2899857   1.5993513  24.5096531  28.1696377  44.1042442  76.2150879
  27.6211853  43.6662331  76.8659210  27.6590748  44.8681221  75.9466782
  47.3671074  66.8575287  38.8396759  46.6926651  67.5097046  38.6498489
  48.0842705  67.3601151  39.2260857  83.4566803  40.0226822  51.2215614
  83.7112885  39.1049957  51.1253166  83.8403397  40.4587479  50.4607162
  61.2176361  55.9394684   9.7183619  61.6135483  56.3652573  10.4787502
  60.3619690  55.6429482  10.0284204  11.7995291  29.9276180   4.0150671
  11.9055510  30.5913849   4.6965380  12.6882038  29.7650223   3.6987584
  57.0389366  61.6581764  69.6110535  56.7244873  62.4323273  69.1440964
  56.5223312  60.9362488  69.2530441  51.2041588  66.5961075  80.9133530
  50.2520828  66.6105423  81.0112305  51.3468971  66.3856888  79.9905396
   5.5346060  45.8723106  64.9798508   4.9473863  45.1164131  64.9749146
   5.9412727  45.8653488  64.1133652  19.3770695  44.3675041  48.0719185
  19.5312405  44.0543442  48.9632034  20.1995659  44.1975975  47.6127205
  83.0339966  53.8536224  16.5230579  82.1413422  54.1748619  16.3957825
  82.9310455  52.9142609  16.6754818  52.2469406  53.2187309  64.2012634
  52.2185936  52.8720665  65.0930328  52.6077347  52.5033455  63.6775513
  81.8634872  51.9984398  13.5536699  81.6172028  51.1240158  13.2520704
  82.2249451  52.4265060  12.7775669  78.1493301  34.9738960  21.6599827
  77.7617188  35.8481255  21.7013493  77.7927704  34.5175018  22.4220867
  69.0137939   2.7772636  87.6585083  69.4373703   3.6185775  87.4882050
  69.7350769   2.1490641  87.6953049  53.9073257  62.9081306  15.8336811
  54.5370293  63.6288338  15.8165007  54.1159210  62.3892479  15.0568409
  76.2270660  69.8414001   0.7106503  76.8923264  69.2652130   1.0870448
  75.5494843  69.8971252   1.3844543   9.1866617  30.5403652  31.2951164
   8.9865742  31.3566608  30.8370132   8.3863707  30.3344479  31.7781925
  40.6873741  35.2037735  56.9296417  39.7698135  34.9342880  56.9707794
  41.0994835  34.7649269  57.6738281  60.2400856  30.8211689  17.7872505
  59.8113251  31.5129776  17.2834702  60.3327560  31.1876049  18.6666641
  60.7580910  36.8226433  10.8432608  60.2964745  36.8364754  11.6816816
  60.2282600  36.2510872  10.2875328  52.1636314   2.0893259  88.5586319
  52.1968994   2.6759834  89.3142471  52.7405243   2.4974334  87.9129715
  83.5045090  51.5346909  21.1816349  83.1717148  52.0087662  21.9436932
  83.3731461  50.6115036  21.3977337   8.3764162  54.7980690  14.3420515
   8.1815691  53.8639832  14.4178534   8.4933138  55.0924263  15.2453356
  17.2448330  37.2484474  60.0865860  16.6026402  37.0630112  59.4014359
  16.7818451  37.0665703  60.9043846  29.1761990  51.1875763  72.9982376
  29.2065067  51.8787117  73.6597900  29.0281677  51.6512718  72.1740417
  51.1763306  18.8629227  57.6969337  50.3097458  19.2495918  57.8224487
  51.7675667  19.4369888  58.1838837  53.6002541  63.2108612  42.1449738
  53.6617546  62.2683945  42.3005409  53.9566612  63.6085052  42.9393806
  58.6786270   0.5988253  39.0717545  58.4639740  -0.3105015  39.2797966
  58.0807800   0.8293842  38.3606606  70.1858521  40.3231163  86.5397110
  71.1159058  40.1212502  86.6421509  69.7863159  40.0344238  87.3602295
  34.9720917  46.9040604  36.5112915  34.6751289  45.9947472  36.4767189
  34.1715317  47.4127312  36.6400833  29.1861649  58.6470375  30.3064175
  29.1061630  58.8875160  31.2294559  29.3623314  59.4740715  29.8578453
  63.9438820  52.6434593  14.5347958  64.2327728  51.7383766  14.4181814
  63.9384842  53.0090218  13.6501665  28.5707779  59.1149445  59.6464081
  29.5085812  59.0345230  59.4723701  28.3725777  58.3849869  60.2330170
  25.2220669  56.3356171  55.7938004  26.1519508  56.4347000  55.5895157
  24.8730450  57.2262497  55.7593231  63.8697090  41.8109932  34.7440910
  62.9902840  41.9261703  35.1040649  64.1569595  42.6974831  34.5253296
  22.3542538  46.9219055   9.2436609  21.7403126  47.5210915   8.8190622
  22.9528236  46.6575432   8.5450497   1.9442754  62.0573578  39.9806290
   2.7157352  62.1013451  39.4156990   2.1652977  62.6087341  40.7312050
  70.3001404  11.4756565  69.0623322  71.1454544  11.2844696  68.6559753
  69.7731171  10.6936626  68.8981247  30.9950542   4.1998234  75.4759445
  30.0567036   4.3500829  75.3612595  31.0801945   3.2480276  75.5313339
  66.3111801  59.1995773   3.3344011  66.7462769  59.6925201   4.0300512
  65.9599686  59.8705673   2.7490346  56.0396881   6.3983955  70.2020035
  55.1046906   6.3813195  70.4062653  56.3130913   7.2927742  70.4058838
  44.8535843   9.3671856   1.7611080  45.0077286   9.8014822   2.6000702
  45.0700798  10.0297489   1.1050814  25.7455139  14.8208599  83.7116623
  25.1728306  14.5770779  84.4388733  25.7299366  15.7779102  83.7049713
   5.6706510  13.1717129  82.3328400   5.4705133  14.1075296  82.3122330
   6.1677642  13.0153666  81.5299301  27.1457748  36.4533081  68.1385727
  27.0066395  36.0018311  68.9710617  27.3518486  37.3546066  68.3864136
  73.6284409  44.5193596   5.6714063  73.6355286  43.8862572   6.3892932
  73.4169922  43.9997063   4.8958559  75.8309784  62.8154373  78.2984238
  75.3533859  62.3190727  78.9630814  76.0629044  62.1656837  77.6349030
  30.4391632   3.4112923   9.7692642  30.1049557   4.3073769   9.7296476
  31.2987671   3.4942977  10.1820898  40.1057320  70.1600418   0.2566698
  39.1539917  70.2523117   0.3003854  40.2462921  69.2514572  -0.0096918
  71.9035950  51.9439392   0.3770846  72.0092926  52.8217278   0.7438891
  72.0732956  52.0533142  -0.5585808  46.2784729  40.9135780  71.7493744
  45.3771858  40.8263206  71.4390488  46.6637955  40.0481377  71.6123810
  24.6018314   7.4169321   9.7077370  23.7592182   7.0064535   9.9020147
  25.2494335   6.7415199   9.9093838  81.4797821  38.8806496  24.7894917
  81.8314514  38.8032875  23.9026012  81.1220093  38.0138855  24.9817314
  22.8695221  53.8708038  62.9454269  23.0851765  53.3586388  62.1660614
  23.3471451  54.6925049  62.8317642  72.5829239  53.6876640  82.2265930
  73.4293442  53.8235779  82.6524124  72.8023911  53.4789429  81.3185730
  60.0023422   2.2093937  54.8908730  60.0405197   2.1005850  55.8411026
  59.6828728   3.1028495  54.7647476  81.7568130  43.9029236  55.0888824
  82.1446381  44.3287735  54.3243713  82.1296310  44.3687630  55.8373680
  75.8018112   3.7121518  65.1415024  76.5228119   3.1556988  64.8469696
  75.1128464   3.5756869  64.4911652  45.0319443  61.2686501  14.0945549
  44.4678574  61.8166084  14.6402454  45.9139404  61.4198303  14.4343491
   8.9311838  27.9991951  75.8804932   9.0562897  27.5812130  75.0285110
   9.1829319  27.3286705  76.5155106  70.6644363  26.5794811  88.0091629
  69.9072800  26.6364632  87.4263229  70.6257935  25.6921043  88.3659592
  17.8722916  51.0243683  63.9761543  18.7344875  51.4053764  63.8097687
  17.7038078  50.4708977  63.2135849  28.4690647  39.5450668  28.4808979
  28.3870544  38.6471481  28.8022175  27.7642555  40.0216904  28.9194221
  34.0718651  42.6956100  64.6940918  33.5642738  42.1170654  65.2631912
  34.9581413  42.3346138  64.7147522   8.5591259  17.4968777  72.0752182
   7.6617546  17.7655449  71.8783112   9.0277081  18.3180790  72.2245178
  33.4231796  49.8602562  64.7198486  32.5667458  50.2229996  64.4936218
  33.4823761  49.0511665  64.2118073  66.2294998  62.4131508  44.6070976
  66.7686539  61.8841476  44.0191422  66.7705002  63.1774864  44.8054352
  55.4054947  70.1608658  80.7000732  54.8936005  70.0977249  79.8937149
  56.2489471  70.5171967  80.4210434   7.6683950   0.3994016  51.9442635
   7.2554626   1.2629349  51.9496117   6.9697375  -0.2017804  52.2025070
   8.9827700  44.3690529  57.7537003   9.0783243  43.4528351  58.0137901
   8.0424166  44.4818192  57.6149559  80.0424423  58.0541534  36.6950645
  80.0998306  58.0597420  37.6505280  79.1786957  57.6858864  36.5091553
  22.3157806  19.7643852  76.8844452  21.6381531  19.1507473  76.6007080
  21.9217377  20.2328911  77.6202850  18.6881733   1.7576911  83.3872681
  18.4738846   1.8550606  82.4594574  19.0192719   2.6170979  83.6480865
  10.3090763  15.9737854  88.8144684   9.9330902  16.1484127  89.6772385
   9.5714808  16.0580616  88.2102432  72.5500946  41.9886093  72.9743042
  72.5986328  41.8558578  73.9210052  73.1073380  42.7493935  72.8102417
  47.3050194  24.8749065  60.6589699  47.1366539  25.5942059  61.2676506
  48.2307396  24.9644375  60.4325790  44.4325905   3.6480947  10.8853436
  43.9416046   4.4639473  10.7876368  44.5467567   3.5489888  11.8305292
  16.9599819  38.5753059  48.4906464  17.8853321  38.4858742  48.2626953
  16.7889652  39.5153618  48.4333687  72.1027756  58.4948044  25.1290016
  73.0202637  58.6234550  25.3696194  71.6445923  59.2346001  25.5277500
  62.8364410  33.0456619  31.5882549  63.5390968  33.6330109  31.8666897
  63.0432701  32.2097549  32.0062408   9.7158766   9.6784678  75.5186386
   9.9474392   9.5573730  74.5977936   9.5205832  10.6123610  75.5956802
   4.5406990  54.0000305  80.6586685   5.2394938  53.6725922  81.2249756
   4.1242290  53.2111473  80.3116074  71.9351425  24.5267372  19.9465656
  72.3877945  24.1729984  19.1809273  71.4346237  25.2687569  19.6072655
  18.1746407  44.4931755  37.8745537  17.4165077  43.9257660  38.0142403
  17.8269978  45.3814163  37.9545822  71.2937851  21.2273922  50.6922493
  70.6709671  20.6367321  50.2686310  71.6650314  20.7110157  51.4076233
  74.9142761  66.4175568  84.3419571  75.5294571  66.3756332  85.0740967
  74.0692291  66.6069260  84.7497177  80.8047409  59.6463509   4.6003089
  80.9369812  59.4178314   5.5203757  79.8785782  59.8811493   4.5425663
  77.5629120  67.8025589  50.3620148  77.1674652  67.4048615  49.5863304
  76.9001694  67.7045746  51.0456810   6.3692513   8.2920303  57.6845093
   6.5266261   9.0763092  57.1587982   6.0766320   7.6350360  57.0528717
  22.5066509  30.3812180  80.4642715  22.6417923  31.3178921  80.6078339
  21.6105576  30.3163567  80.1340485  75.5967712   1.1811244   0.8875758
  75.9363632   0.3290289   0.6140073  75.9594421   1.3135138   1.7634602
  16.7323856  40.0288849  34.1839905  15.8383293  40.3698082  34.1581726
  17.1667213  40.4387970  33.4359550  66.1137619  64.8266907  40.8895416
  66.0527725  64.8721848  41.8437119  65.8874283  65.7081299  40.5927773
  59.7343559  56.3925781  66.1357422  59.7557602  55.7076340  66.8040466
  60.6339722  56.7172165  66.0966034  19.1201973  12.3512745  24.7663536
  19.4418964  11.4497919  24.7579174  19.8993683  12.8850956  24.6109180
   3.7724717  42.6216316  59.5911140   3.0071979  42.9341202  60.0737534
   3.9166434  41.7341003  59.9193420  10.9502220  25.1210785  75.1976242
  11.8541708  25.1502419  75.5110855  10.4204626  25.1117821  75.9948044
  80.7150345  29.8144493  54.0820007  81.5512238  30.2721310  54.1688461
  80.6957550  29.2082405  54.8225212  57.8301964  64.3460846  43.0341415
  58.3974953  65.0680618  42.7636681  57.2961426  64.1589584  42.2621269
   1.0583832  24.5157871  37.4029350   1.6406314  24.0831623  36.7783928
   0.6119328  23.7975540  37.8513260  57.2631683  39.1649513  77.4825821
  56.3248291  39.0616722  77.6409607  57.4874268  39.9943466  77.9045334
  80.0138779  49.3306580  32.6708260  80.1526108  49.2762184  33.6163521
  80.3215027  48.4888420  32.3347549  85.0618362  18.3553524  26.4397011
  84.7093201  17.9549141  25.6449585  84.6893082  17.8383083  27.1539268
   5.9746866   0.6312293  18.9365788   5.6488466   0.9668282  18.1014538
   5.8601456   1.3586510  19.5481091  14.0039740   1.0274024  86.2799759
  14.6432457   0.6802732  86.9021225  13.3545790   0.3300104  86.1896362
  44.2485123  22.3644943  43.7791748  44.6330147  22.8788662  44.4889717
  44.6908913  21.5172081  43.8305473  81.5101471  70.2107849  37.9851532
  82.2019424  69.7889252  38.4947433  81.9199066  71.0009918  37.6331520
   9.5604763  40.2829208  62.3311691   8.9596138  40.9815102  62.5903397
   9.7564611  39.8209229  63.1462669  19.5702915   2.2890005   0.3659430
  19.0744514   2.9271255   0.8789437  20.4848404   2.4588103   0.5917717
  50.9931107  46.8401909  75.1414261  51.8762627  46.9220848  74.7814713
  51.0478477  47.2483635  76.0055084  75.6849289  67.4317703  30.5647202
  76.4879074  67.8933792  30.8063316  75.1708908  67.4068680  31.3717995
  52.9748306   2.2640507  13.7222233  53.9049301   2.3582397  13.9278412
  52.9597092   1.9615666  12.8141994  18.8459377  62.4858551  17.4677944
  18.3137684  63.2504616  17.6877995  19.5603104  62.8363113  16.9357395
  58.1515236  24.7677383  49.8189812  57.2294502  24.5117760  49.7966614
  58.2893867  25.2384644  48.9970093  13.9757185  61.4383049  53.2370567
  13.3839464  61.2302513  52.5140419  13.6849136  62.2966309  53.5451736
  60.4855690  37.7756729  72.2877960  60.4354820  37.5068207  73.2051010
  60.7249184  38.7018166  72.3223801  70.1968460  20.1432114  80.9723053
  70.6610565  20.7704601  80.4179611  69.5645676  20.6739063  81.4568939
  23.8642597  44.7424469  66.4312515  24.1943283  45.3008881  65.7273788
  24.6514587  44.3920708  66.8481216   3.6993811  64.9742126  79.6883545
   4.5025520  64.6031723  80.0537033   3.0727437  64.9476395  80.4114380
  12.3715067  28.7845993   7.6258750  11.5463409  28.3000488   7.6025462
  12.1229668  29.6899662   7.4394121  74.7019043  53.5910263  84.0656815
  74.3340530  54.2847786  84.6130600  75.6203384  53.8361740  83.9533615
  33.6930733  57.2053719  39.7901421  34.0184288  58.0752831  39.5585556
  34.4830170  56.6780281  39.9090080  74.5376740  52.5590706  63.4868889
  74.8887253  52.1478691  62.6970139  74.7933121  51.9705086  64.1971512
  33.5225525  42.4526405  76.1278152  32.6496735  42.6169891  76.4846115
  33.9732246  43.2939987  76.2002563  22.2914600  23.1197433  77.0318222
  21.6269321  23.4376774  77.6430130  22.6757832  22.3602524  77.4696579
  41.9109306  20.7010880  75.8220520  42.7677460  20.2835693  75.7338638
  41.2983932  20.0745564  75.4367142  64.4786911   2.3564370  82.4626160
  64.1022720   1.5444634  82.1231537  64.0533066   2.4813271  83.3109512
  45.5703316   6.8729362   2.9955835  44.6169052   6.8292618   3.0683894
  45.7555542   7.7966714   2.8263571  13.8641834  43.7448311  11.3775845
  13.3877363  42.9204559  11.2794476  14.3810463  43.8197060  10.5754128
  45.3833237  62.5798416  41.7070618  44.8837471  63.1946449  41.1697807
  44.7667809  62.2956657  42.3818626  60.1985321  62.6947708  43.2712135
  60.9183731  62.5503502  43.8853836  59.8120079  63.5260849  43.5464401
  64.7092514  67.1233521  19.7740078  65.0538712  67.7816925  19.1706390
  63.8508949  66.8965302  19.4162292  61.8067932  11.4059210  39.1975975
  61.2952881  11.2269573  38.4085693  61.4937630  10.7654314  39.8363609
  16.5046196  61.8625984  12.8205881  15.6836643  62.2767792  12.5546570
  16.2847061  60.9361877  12.9187355  23.0593643  61.8541145  32.0435181
  23.1821060  60.9879227  32.4319534  22.1719017  62.1070633  32.2977982
  23.2041168  36.1464424  85.9264069  22.8982029  36.7681770  86.5867844
  23.2642384  36.6617126  85.1219711  40.5128098  30.6603374   2.8217969
  40.8495178  29.7704144   2.9261942  40.5496788  31.0351391   3.7017949
  85.9758759   1.0546894  61.0684433  86.0936050   1.3033307  61.9852600
  85.9101562   1.8873955  60.6009903  63.1543198  38.7359772  63.9773560
  62.2259750  38.5027580  63.9810791  63.2110481  39.4836845  63.3824158
  18.7253666  44.2798004  16.4486465  18.7367287  44.9781952  15.7941637
  19.3041172  44.5933685  17.1435947  19.0490990  23.6739960   4.4855914
  18.1105347  23.7595062   4.6529679  19.1026249  23.1708393   3.6730645
  71.4752350  70.0819244  62.7217255  71.9037628  70.6226807  62.0582657
  70.5592194  70.0459595  62.4463158  79.8954697  71.1434784  82.2165680
  79.9622421  70.8456955  83.1238174  80.7614670  71.4989777  82.0168152
  16.4521618  58.9654350  37.2980499  16.3691883  58.0279999  37.4728813
  16.1425705  59.3869171  38.0997581  26.6943378  52.2762489  78.9307556
  27.3887539  51.9254990  78.3730850  27.1051216  52.3781052  79.7893143
  38.6178093  57.8350716   3.4083860  38.6882248  57.3617210   4.2373700
  38.6741447  58.7584305   3.6542816  40.5205383  53.7470169  30.3243656
  39.6633224  53.5257072  29.9604454  41.1318092  53.1717224  29.8643494
  45.9321747  40.0392609  21.4261932  46.4472046  39.2767639  21.1624260
  46.5462990  40.5847321  21.9176655  81.9704590  50.0235977  85.0847244
  82.5484848  50.5530739  85.6340637  82.5216675  49.3013191  84.7835464
   0.9282873  58.2954483  46.6442490   1.6095304  58.6173248  47.2346153
   1.3969817  58.0595818  45.8436699  57.4437485  16.3642979  86.4754181
  57.0116768  16.3500900  87.3294296  57.7000542  15.4549828  86.3215103
  60.9534035  52.3997688  52.8073845  61.6445198  51.7782784  52.5786171
  60.2011642  51.8507271  53.0285683  28.7558270  17.5560513  75.3587494
  29.1765003  17.1666546  74.5921783  28.5373993  18.4470005  75.0853806
  14.0429888  35.4887848  66.6187820  14.1495037  36.3289528  66.1726837
  13.4764414  34.9798508  66.0389175  70.8317795  55.7230034  24.7446461
  71.3504639  56.5026779  24.9429035  70.2343674  56.0027580  24.0510540
  22.1018238  39.5455627  40.7946815  21.6483231  40.2067871  40.2718544
  22.9771938  39.9076920  40.9318771   6.4820509  47.9373360  77.2415466
   6.2142935  47.8455200  78.1559372   6.5720048  48.8814507  77.1119614
  83.9311600  69.2783813  41.1396828  83.6874390  70.1366577  40.7930069
  84.8830414  69.3188629  41.2320251  76.3441315  48.9515610  32.6956673
  76.8240128  49.1791115  33.4920120  77.0256042  48.7419357  32.0570145
  20.7865887  55.8176613  53.3727646  20.8871937  56.7694626  53.3590889
  21.4108925  55.5203133  54.0346260  61.4492378  28.7728691  15.8669586
  61.6637611  29.4430752  15.2180862  60.7277794  29.1495266  16.3708000
  59.9070587  42.1717987  17.9451847  60.4936905  41.6364365  17.4108772
  59.0282555  41.8853493  17.6964169  28.4774914  25.1480083  83.9510040
  27.8825207  24.9115658  83.2394333  29.0628242  25.8007488  83.5668869
  36.0295029   1.5140048  16.6102905  35.7440109   1.9394802  17.4188080
  36.4768791   0.7198794  16.9026070  14.5947647  40.5834732  26.9015274
  13.6387997  40.6301727  26.9150543  14.8809576  41.4743042  27.1033840
  75.0230865  66.9559021  81.7357025  75.6748352  67.6541901  81.7977676
  74.8743439  66.6858673  82.6418991  20.8432961  26.0600986  11.9970484
  20.8072338  26.5330982  11.1656628  19.9365253  25.8048782  12.1669359
   8.9321032  55.8153915  34.9117355   8.3394737  55.0755768  34.7786942
   9.7761250  55.5087738  34.5803032  30.5337048  32.1505508  63.4972687
  31.3954830  32.5395432  63.6464462  30.7172623  31.2346287  63.2884064
  55.7444458  23.4976616  75.2719498  55.0045853  23.3747025  75.8666916
  55.7006378  24.4208355  75.0228348  52.5889435  15.2823677  75.2394409
  51.8884239  15.9342537  75.2159958  53.1596756  15.5176802  74.5079193
  75.8962860  18.4872627   2.4990430  75.0870209  18.6218548   2.0058880
  76.5585327  18.9762726   2.0106447  32.9606590  48.6441727  37.6924400
  32.5412941  47.7840195  37.7149658  32.9635887  48.9331779  38.6049614
  47.8956757  55.6223373  17.0572109  47.4283524  56.2699509  17.5848846
  47.3483315  55.5061493  16.2805862  70.8191833  11.1658659  24.8686066
  71.0494232  11.3914299  23.9673061  69.8620605  11.1707058  24.8796883
  78.2185898   8.0368376  41.3283958  78.1379547   7.1981487  41.7826309
  77.4168549   8.5089989  41.5531464  81.8665848  61.4270172  85.9324951
  81.5903625  62.0124779  85.2273941  82.7834015  61.6544342  86.0873108
   8.6864634  64.0516891  51.7376251   8.7111130  64.8400345  51.1952782
   8.3220186  64.3464355  52.5722122  27.3373775  26.4491196  72.7755585
  28.2288322  26.3003788  73.0908661  27.4482441  26.7284355  71.8667603
  30.6229057  65.8400726  69.8567276  29.7408466  66.1727753  69.6908569
  31.0630932  66.5505905  70.3232422  25.9169655  62.9155769  56.7695122
  25.0192738  62.9428673  57.1006317  26.3768673  62.3311386  57.3721352
  37.1740112  64.6370544  60.1578178  37.1931610  65.5940552  60.1614838
  37.6938896  64.3841705  60.9207115  76.1743393  14.4291821  68.8233414
  76.9217758  14.1409807  68.2994003  76.4680557  15.2433815  69.2320557
  85.9439087  36.7264252  85.3108826  86.0805435  36.3340607  84.4485550
  86.2086334  37.6399460  85.2030334  77.0923386  62.7147789  27.7888699
  76.8089218  62.8775635  28.6885395  77.8517456  62.1388626  27.8774796
  26.5742435  53.9052162  14.9637880  25.7399101  53.8438950  15.4289322
  27.0441685  53.1080933  15.2087231  48.2309990  31.5268192  30.8160152
  47.6864815  30.7469978  30.9237823  47.9758797  31.8812351  29.9642315
  40.5012894  58.3715744  79.9410934  40.4748230  59.0966148  80.5654678
  39.7914734  57.7917480  80.2171249   5.5068088  62.0704041  83.9128723
   5.2119837  61.3526802  83.3523483   5.0572424  61.9244537  84.7452316
  52.4907646  26.8444252  35.3913841  51.7734032  27.4697418  35.2884140
  52.1026154  25.9967804  35.1744232  75.7785797  30.7259789  71.6377640
  75.8235931  31.5400486  71.1362686  75.4094620  30.0883331  71.0267029
  64.9852142   8.4151268  78.3481216  65.9294281   8.4960232  78.2133942
  64.8047791   7.4831028  78.2256241  47.4155312   9.1027040  68.9567490
  46.9553108   8.2984161  68.7168579  48.1587563   9.1419983  68.3548279
  33.1871681   9.9387627  10.6262245  32.3095055   9.7927370  10.9792356
  33.7105370  10.1971693  11.3848724  80.1157303  14.8012438  17.0389118
  80.7818146  14.2286978  17.4193840  79.8476486  14.3557281  16.2352467
  58.4673119  68.8559494  33.5015869  57.9720726  69.6719437  33.5731201
  57.8602219  68.1801071  33.8030968  23.5531788  45.8367462  23.7764835
  24.2074947  46.0933228  23.1266613  22.7330456  46.2064247  23.4494495
  80.7237625  10.8821344   7.5320234  81.5128784  10.3698063   7.3558087
  80.5429382  10.7319613   8.4599152  29.1864910  54.9601974  81.3139572
  29.9880905  54.8190918  80.8102112  28.4963112  55.0216789  80.6535721
  27.1148281  43.8527832  37.1496086  27.5053921  44.6570549  37.4914207
  27.7971535  43.4710846  36.5973663  33.3311462  35.9024391  66.5392914
  33.4567680  35.2907410  65.8138428  32.4103584  35.8018494  66.7806854
  75.8763580   9.8716469  41.4408073  75.1022949   9.4567375  41.0601425
  76.1935577  10.4605875  40.7561455  54.6590118  26.1105003  39.7068367
  54.5178146  25.1660957  39.7731476  55.1190987  26.2260952  38.8754578
  33.0651970  47.3752060  63.5592079  32.5137558  46.7328491  63.1125259
  33.8059807  46.8667030  63.8892021  27.6619301  55.4158592  83.5072021
  26.8755474  55.1931114  83.0089874  28.3662148  55.4085197  82.8590012
  40.7874336  70.1384354  85.5123520  41.0810699  70.5348892  86.3326187
  41.5291138  69.6061249  85.2246323  79.8384628   2.5579081  29.1341076
  79.1675034   2.5608799  28.4514370  79.4123230   2.1482513  29.8869801
  43.9556427   5.5354047  52.6905441  43.7098465   4.6151810  52.5956497
  43.2446098   6.0179439  52.2688560   8.6940155  63.8279610  46.7583199
   8.0011692  64.1789017  47.3178177   8.3252459  63.0216331  46.3976593
  44.1892319  40.1193275  13.4338064  44.5663033  39.4788666  14.0370102
  43.9798927  39.6141319  12.6481934  21.3689766  37.0560989  19.7101727
  20.5375557  36.9335442  20.1683769  21.3292217  37.9527550  19.3775177
  25.7850704  48.4564590  64.2830887  25.3245773  47.6911926  63.9387779
  25.5489063  49.1666374  63.6863441  76.3167038  37.9192123  32.7784500
  77.0420609  37.3323135  32.9920807  76.7351761  38.6812744  32.3779869
  28.2544689  63.4501190  16.2182388  28.5292530  62.6313972  16.6310654
  28.1357918  63.2250252  15.2954826  81.2800446  55.8232155  76.2602463
  82.1317139  55.7815399  76.6951523  81.0712891  56.7569313  76.2313843
  67.8358154  61.2103539  10.0571280  67.5595474  61.0420570  10.9580078
  67.1020432  60.9091110   9.5213451  31.4480419  66.5752258  22.0918522
  30.7218952  67.0181503  21.6528111  31.2069206  65.6489868  22.0784035
  83.4781723  19.3749199   0.6478819  82.5648575  19.2210102   0.4062251
  83.4468231  19.5850735   1.5812011  48.6302071   1.0663097  23.3472481
  48.1869202   0.2726752  23.0474586  49.4516754   0.7532879  23.7259789
  72.6393814  54.0435638  25.9684696  71.7303696  54.2790413  25.7827663
  73.1571045  54.6618271  25.4527760  46.0991173   1.0988951  28.7248211
  45.4416695   1.7935601  28.6869221  46.8486595   1.4521047  28.2455940
  73.4127045  41.1441498  82.9869385  73.2871552  41.4161644  82.0778351
  72.6288071  41.4544334  83.4402161  24.1333675  24.9465122  85.8475266
  24.8216362  24.3410072  86.1230011  23.8748932  25.3971024  86.6515121
  21.6623840  65.4898987   4.1418414  21.6107750  64.6280746   4.5551548
  21.6539764  65.3059387   3.2025220   4.3026857  22.1255188  70.2870026
   3.6516397  21.7450428  69.6974182   4.2870064  23.0618668  70.0889130
  16.4825306  67.7850800  50.2001724  16.8824158  68.6386642  50.0336952
  16.9415531  67.1865234  49.6108894  24.5644264  50.6337585  79.8660583
  24.0648289  51.4307289  80.0434570  24.6075802  50.5857201  78.9110413
  65.7422333  39.1375618  18.1316109  65.1479034  39.3060913  17.4004459
  66.6139908  39.3115768  17.7766628  45.7444115  52.4711838  44.9466705
  45.3371658  52.1519547  44.1413918  45.1513252  53.1537132  45.2607346
  51.1522980   1.7273668  43.7067032  50.7228203   0.9036624  43.4758492
  51.7318344   1.4997687  44.4337311  53.1485405  66.7742386  33.1834450
  53.1364517  67.6999664  32.9402962  52.5900879  66.7230377  33.9591637
  23.2049141  54.0842628   1.8009905  23.8705769  54.7493706   1.6256192
  23.6683788  53.2517090   1.7099534  55.0843964  60.6241798   3.1501348
  55.4227524  59.9788017   3.7708063  54.1333160  60.5715065   3.2444682
  66.5540009   1.2244837  59.4981995  65.7642517   1.7554851  59.6009789
  66.6421661   1.1069375  58.5523415  18.2953835  63.3496780  54.1880188
  17.6432133  63.9919510  54.4679985  18.7756786  63.1321640  54.9869156
  49.2134476   3.7429132  22.6649609  48.7991219   2.9165268  22.9132595
  50.1037903   3.6777112  23.0103111   5.6694460  52.9948654  49.3020248
   5.5771427  52.6844292  50.2027664   6.5536966  53.3593750  49.2637405
  15.0844240  50.6362114  14.4005480  14.8126688  51.3985710  14.9116125
  15.4350805  50.0257301  15.0490732  81.8661499  63.5904770  33.0855064
  81.7084961  64.5155792  33.2740669  81.5080566  63.1272812  33.8427734
  33.7915726  60.3473053  16.2180500  33.6833115  61.0284348  15.5542936
  34.0756798  59.5767403  15.7263765  60.0324783  14.9442291  34.6461105
  60.2641411  15.7367067  34.1618118  60.3256912  14.2263107  34.0849915
  46.5515823  37.7164001  79.5484543  46.3498993  37.5431023  78.6289291
  47.3264694  37.1839676  79.7281647  75.4582443   2.3871040  40.6900291
  75.6289749   3.0565782  41.3525162  76.1803818   2.4759758  40.0680580
  47.2226067   5.0400534   7.6661024  46.9596176   5.0839686   6.7467875
  48.1555138   5.2542143   7.6588378  18.6943130  19.0611973  79.7352600
  18.2864590  18.3825874  79.1973190  18.3474865  19.8829136  79.3878021
  65.3054962  46.9223480  50.5878067  66.0726395  46.4271851  50.8750992
  64.7390060  46.9549637  51.3586884  75.9883804  36.1018066  55.5044632
  75.2804184  35.7786255  56.0617561  75.6554337  36.0025215  54.6125450
  50.7332573  54.6952095  62.4253426  49.9605217  54.1331024  62.4814148
  51.3774414  54.2742844  62.9946213  86.0515594  44.9348526  57.1877899
  85.1755142  44.9206085  57.5732422  85.9395599  44.5383873  56.3237877
  61.7832565   1.5680501  13.1106329  62.6418152   1.8038538  12.7592010
  61.2379456   2.3375428  12.9470911  43.1404533  32.1307564  87.2761993
  42.5407104  32.7027092  86.7972336  42.5903473  31.4099903  87.5829773
  53.8277245  49.0465050  34.2359238  54.3335419  49.4085083  34.9634781
  53.0631828  49.6184006  34.1677933  59.3266640  65.5766525  22.6939201
  59.2701378  64.6570358  22.9534225  58.5460777  65.9808426  23.0727921
  33.3171272  65.2141266  24.9333992  32.8008041  66.0186234  24.8841820
  34.1197548  65.4148178  24.4519978  79.8293076  51.4472389  48.2257423
  80.4914017  50.7719345  48.3734894  80.3329086  52.2439079  48.0586014
  37.2742081  50.7043571  64.4509201  37.2438850  51.2518501  63.6663399
  38.1064034  50.2361336  64.3842316  14.4509411  51.8496132   5.3996401
  15.0388365  51.5948563   6.1107721  14.6371107  52.7774391   5.2557335
   1.7757916  52.5107803   6.0587173   2.5856395  52.0998764   6.3612685
   2.0492618  53.3687630   5.7342033  71.7038574  69.6453400  84.6700363
  71.6147995  69.1981277  83.8284302  71.0383606  70.3329697  84.6474762
  21.2899914  45.8651161  86.5512543  21.5962143  46.5691757  85.9796295
  20.5864620  46.2622795  87.0646133  57.5098267  70.3672638  17.7303448
  56.6004791  70.5281601  17.9821911  57.5535889  70.6291580  16.8107109
   0.5843474   1.6031456  58.1709023   0.0139391   2.3183460  58.4526024
   0.0363636   0.8208353  58.2336388  42.2348862  71.2582397  55.5476151
  41.3129883  71.1781387  55.7923965  42.3530731  70.6174622  54.8464241
  34.3464508  70.2679291  63.8761444  34.3847923  70.3386383  64.8299637
  34.4419327  69.3316803  63.7013550   2.2941370   0.3528113  50.7966270
   2.7703776  -0.2095918  50.1857834   2.6346285   1.2314531  50.6284409
  34.2693062  61.9520340  66.4007034  34.9273033  61.6665459  67.0345535
  33.8862152  61.1393051  66.0706406  81.5697403   1.4028033  47.9941216
  81.8185120   2.2577195  47.6427498  81.9058228   0.7742482  47.3552170
  22.4425354  60.1332436  87.3576660  22.7713757  59.3710709  86.8810272
  21.6080036  59.8434982  87.7262268  83.2099609  67.6385956  28.4206886
  82.6860199  67.6116180  29.2213058  82.9403992  66.8611145  27.9317226
  39.1801300  44.1673584  40.3820839  38.6731300  44.5597763  41.0928535
  39.1274529  43.2251091  40.5421791  45.0850220  32.7194557  24.6178818
  44.7487564  33.5805092  24.3694115  45.8741913  32.6083984  24.0876808
  10.0733709   9.8500462   5.8274069   9.5453482  10.6219387   6.0313797
  10.2398634   9.9154110   4.8870668  24.5701694  37.9889107  15.8261824
  24.6629848  37.3376617  16.5215168  25.1086426  38.7257957  16.1147614
  80.6243973  60.1058655  19.0697899  79.7578278  59.8034096  19.3414860
  81.2144928  59.3930511  19.3145599  11.2170601  54.8224602   7.0338349
  11.9908180  55.2641258   6.6838889  10.5232506  55.0204926   6.4048333
  74.2298660   6.0638514  22.5249996  75.1859436   6.0202103  22.5404987
  74.0352478   6.9113021  22.1247730  69.2385788  56.5580139  50.3493233
  70.1810303  56.6567383  50.4844856  69.1027603  56.7900810  49.4306679
  80.9064560  43.5863342  49.6926613  80.0538330  43.8678246  50.0243683
  80.7339020  43.3097420  48.7926865  76.9581833  27.0618572  21.2731895
  77.2855148  26.1893406  21.4918213  76.2966309  26.9074497  20.5988426
  63.7500687  57.7596474  60.8574181  64.5472183  57.2529678  60.7022972
  63.1657715  57.5122795  60.1407356   6.2001338  41.6192360  24.0676479
   5.5537586  41.1106148  24.5572758   5.7536254  42.4409447  23.8635464
  63.4145851  60.4893799  60.3741989  63.6466370  59.6319427  60.7308273
  63.7628593  61.1151619  61.0092850  43.8150139  42.4049606  62.0550842
  42.9234543  42.7514877  62.0907516  44.3669357  43.1343269  62.3372879
  69.5442734  36.2832985  73.9409714  69.1529922  36.0862579  73.0899048
  68.8342133  36.1472702  74.5682983  59.3560829  14.7030516  43.1744003
  60.1165504  14.1844015  42.9118576  59.0123405  14.2510242  43.9449463
   1.4590858  26.1567249  69.2933502   0.7050980  25.9800663  68.7307434
   1.6665866  27.0774174  69.1336670  84.6127853  16.3920937  37.6867523
  84.4566498  15.8339577  36.9249535  85.3159561  15.9530058  38.1652756
  78.6792984  50.3209496  21.5984497  78.7736588  51.1168518  22.1217728
  79.4272003  49.7789917  21.8497562  62.0329399  65.2733765   3.5472708
  62.4643822  66.0365829   3.1630754  62.5396881  64.5262985   3.2289829
  30.6628494   9.0812397  11.3610249  29.9458027   9.2080030  10.7397308
  30.2818661   9.2936344  12.2130651  78.3125839  31.9697227  69.1307983
  77.5911560  32.4973488  68.7881851  79.0122986  32.6009483  69.2986832
  66.4526367  43.3704872  73.0037003  66.3543777  44.2490616  72.6367188
  65.9546967  42.8066139  72.4118118  61.8642807  15.5287046  62.6561699
  62.0052872  14.8457174  63.3118210  62.1164246  16.3399124  63.0973053
   9.7046585  56.8730850  30.2188797   8.7770624  56.6408310  30.2619514
  10.0910082  56.4604149  30.9913235  21.3538475  36.3656616  15.4280615
  21.1735420  36.9618912  16.1548576  21.8689251  36.8872414  14.8125267
  54.9948845  53.0599213   1.0046641  55.6161957  53.0889931   0.2770910
  54.3518677  52.4003944   0.7443093  60.6300240  34.0886421  78.2545090
  61.4646149  34.4613380  77.9702759  60.5695648  34.3164177  79.1822510
  74.8238220  45.3181000  25.9355125  73.8948135  45.5165253  26.0530262
  75.0379791  45.6756935  25.0738297   2.6121931  41.4002762  73.5753250
   2.7343860  41.4298744  74.5242310   1.9827764  42.0980072  73.3930054
  10.4365654  47.9408455  72.5524902  10.9431181  47.1371307  72.6694489
   9.9725904  47.8132629  71.7250366  62.5944481  45.9854584  66.4287720
  63.1370049  45.1968956  66.4228821  61.8603439  45.7668190  67.0028076
  50.3626595   5.4700980  48.0515099  49.9006157   6.2109289  48.4438324
  51.2897148   5.6705751  48.1803780  57.7300453  56.2217331  84.2469711
  58.2487183  55.5152931  83.8620682  57.6845551  56.0054321  85.1782990
  32.2113800  20.9572620  17.2115517  32.9829826  21.1361294  17.7490120
  32.1373672  20.0029316  17.2088470  42.1353989  41.4583206  15.1906891
  42.5760384  42.2938919  15.3452492  42.8463478  40.8407211  15.0193529
  57.0915756  22.4009533  40.9297562  57.4220581  22.1470032  41.7914505
  56.3810120  23.0143661  41.1169968  70.3916473  29.6759720  88.6052246
  69.4653702  29.4787769  88.4660721  70.8443985  28.8586769  88.3972015
   0.1611800  18.7154922  85.8226547  -0.1311374  19.2084446  86.5893173
   0.1496790  17.8015404  86.1068878  77.3458481  65.2240524  38.7827950
  76.7003937  64.6004105  38.4500847  77.9105072  64.7027969  39.3534851
  53.1951218   5.4622283  68.7731934  53.7332535   5.4296417  67.9822540
  52.9757805   4.5477180  68.9514999  51.3122826  18.8933754  28.7332706
  51.7087288  18.1559944  29.1973095  50.4749184  18.5547199  28.4164715
  61.7162247   1.0018905  67.5504913  61.0340996   1.4296370  68.0681458
  61.3909111   0.1120380  67.4142380  38.4693146  56.6286469   0.9547266
  38.6136246  57.1048660   1.7724200  38.1448288  55.7714920   1.2308185
  49.5530624  63.8209724   4.9101348  49.6702843  64.3934250   5.6682801
  50.4181633  63.4388161   4.7625308  76.3596268  13.5507164  37.7088509
  75.5543747  14.0680580  37.6958580  76.6159592  13.4834518  36.7890701
   8.8514433  67.0376968  18.7318726   8.6595278  67.8895264  19.1240196
   9.2257557  67.2468567  17.8760834  56.5989113  50.8742523  11.9555798
  56.9791603  51.1832848  12.7778578  56.0908318  50.1014137  12.2021713
  46.3639641  69.9505539  62.6261673  45.6880074  69.2802200  62.7260056
  47.1876717  69.4820709  62.7612877  21.6978798  67.7918320  80.9679413
  22.5342789  67.8216782  80.5034256  21.0379314  67.8322830  80.2758026
  55.0503578  60.4292984  43.4530983  54.2082748  60.3170929  43.0120316
  55.6623611  60.6452751  42.7495117  17.3158970   0.1112775  68.5395355
  17.8931465  -0.5812789  68.8610611  17.9017029   0.8460730  68.3574982
  13.3261347  55.4093781  51.6237221  12.5007820  55.3949509  51.1391449
  13.3549623  56.2793846  52.0218277   6.4776025  27.9651814  79.1196365
   6.5622883  28.4145851  78.2787399   6.2397971  27.0672760  78.8884506
  79.5211411  19.8705769  47.6163101  78.6421356  19.6485233  47.3092880
  79.4010010  20.6700573  48.1287842  63.1709213  16.3089161  73.0160751
  63.3511009  16.5915241  73.9126816  62.2739334  15.9760866  73.0455399
   8.3982830  52.0179825  46.6907196   8.3612881  52.9702988  46.7799377
   8.9226284  51.8713684  45.9034462  74.8909378  47.8075485  72.5909500
  75.2307739  48.4898453  72.0119781  75.0322342  48.1500816  73.4735260
  64.9140320  58.1568985  63.7873497  65.4240341  58.9654808  63.7392387
  64.1475449  58.3241882  63.2389488  81.8735733  25.8228989  32.0888977
  81.8368378  25.9423332  31.1398888  82.7960739  25.6452560  32.2724037
  36.8801537  20.6744652   9.2823191  36.5061989  20.9178238   8.4354630
  36.2416191  20.0705013   9.6614437  68.0924606  39.4650688   8.2146330
  67.6756439  38.9600220   8.9127855  67.5085831  39.3620872   7.4631581
  66.2389374   8.1882343   3.6175129  66.5398178   7.3703299   4.0134082
  65.2840271   8.1231880   3.6297750  78.2880936  70.4582596  45.0080147
  79.0827255  69.9256439  44.9745750  77.8765793  70.2225342  45.8394737
  56.0196533  48.6001282  45.7419281  56.8168678  49.0862846  45.5313644
  55.9177208  48.7053947  46.6878471  58.7153702  66.9871140  77.8773727
  58.8046265  66.8627701  78.8222580  58.4563026  67.9034119  77.7798004
  58.8522263  60.5498199  36.0560837  59.2259560  60.9799500  35.2869644
  59.1676178  61.0674477  36.7969055  43.8641663  25.3926525  84.7563019
  44.2540741  26.1425190  85.2056351  43.1708641  25.7713165  84.2157669
  -0.0619288  45.7181206  72.6894150   0.6280316  45.5085106  72.0599289
  -0.4259439  46.5470505  72.3786087  21.2839985  43.5357628  75.5806503
  20.8574162  42.6923332  75.7319260  22.0874805  43.4942169  76.0992279
  45.2174339  17.6110191  64.7811432  44.8212662  18.4026947  64.4170914
  44.9897194  17.6348686  65.7105560  60.2503471  55.8020706  37.7475510
  60.6117210  55.4232445  36.9462204  59.3058052  55.8293037  37.5948181
  17.9473782  41.5763016  50.7296333  17.1474323  41.0529137  50.7784462
  18.6490269  40.9327278  50.6309509  79.0654068  40.7277451  67.0390549
  78.7017975  41.4306183  66.5005417  78.3030167  40.2198868  67.3166809
  67.1819077  52.5531578  10.8827639  67.3123703  52.5103493  11.8300638
  67.2712555  53.4822235  10.6704264  36.7181854  55.0098076  81.3390732
  36.2081070  55.6833000  81.7890320  37.4328270  54.8072891  81.9428101
  80.5212021   4.3490663  37.3177719  79.6690674   4.2717333  37.7468681
  80.3959885   5.0308809  36.6577110  67.6342087  48.8564568  75.9941940
  67.2243958  49.0059738  76.8462067  67.1627884  48.1072960  75.6298294
  54.3718224  44.0175209  60.7896347  53.5739822  43.8897018  61.3028030
  54.2723770  44.8884697  60.4052010  58.7336960  48.4896812  84.8190308
  59.1470871  48.2221794  83.9981918  59.1663361  47.9600945  85.4888077
  20.7439117  43.5463104  26.4440403  20.2533340  42.9712753  25.8567562
  20.4797096  44.4304008  26.1894569  55.8038597  52.0280495  24.0622005
  56.0013962  52.9637985  24.1020298  56.0059128  51.7787781  23.1603851
   5.4998493  26.7797070  19.3366032   4.9728065  26.0698071  18.9698639
   5.4836726  27.4615974  18.6650429  32.2992859  21.2547779   0.8653660
  31.3609982  21.4068966   0.7526457  32.6734505  21.4133759  -0.0012823
  79.8359528  26.6500359  75.7211380  80.0801392  26.5923176  74.7974091
  79.2574692  25.9007683  75.8632278  46.8854294  26.3130054  12.9308357
  46.5494957  27.0223999  13.4786835  47.7799034  26.1733265  13.2417116
  75.4078522  28.4479275  26.8331623  75.8154297  28.2646732  27.6796436
  75.7605438  27.7779942  26.2474728  37.9296455  53.9582367  73.1560440
  37.3560677  54.4844475  73.7131271  38.6762161  54.5289803  72.9740677
  79.9556656  43.2775955  24.7495327  79.0268173  43.4446487  24.9094257
  80.3355179  43.1813774  25.6228504  34.6071053  66.0482712  58.5344658
  34.9013481  65.8875885  57.6378975  35.3754616  65.8651733  59.0751495
  30.9413147  71.2218704  18.9064102  31.6634960  70.6347961  18.6827240
  30.2799969  71.0547333  18.2348785  25.8091469  10.4495869  81.5449371
  26.4186077  10.2780085  80.8270569  25.1229744  10.9895372  81.1527023
  19.5306187  50.3733406  32.7025146  19.5640202  50.4015923  33.6587143
  19.8014793  51.2492332  32.4274139  43.4595490  71.4504547  45.6044884
  44.2076378  70.9677429  45.2529373  43.0381813  70.8352661  46.2046738
  48.2088890   8.8157454  17.4859371  48.4027634   8.7339115  18.4197197
  48.4441185   7.9644151  17.1169720   2.2467005   6.8932762  13.1057959
   2.2967894   7.6011596  12.4634380   2.0696480   7.3353906  13.9361086
  84.4216995  50.3565140  75.1895447  84.7478409  51.1733208  74.8118057
  84.7091980  50.3830910  76.1021652  24.1622219  55.1366653   6.2201605
  24.1933689  54.8105774   7.1195650  24.7919216  54.5932579   5.7464333
  23.9576702  52.4701309  38.6362915  24.8923264  52.3332939  38.4816055
  23.8981762  52.6875877  39.5665627  31.9268532   1.7350770  81.3353806
  31.9319038   2.3996258  80.6464767  32.8359108   1.6904510  81.6317825
  53.4959869   1.0614201  62.0028381  53.6450233   0.4588745  62.7315102
  52.8847046   0.5981599  61.4301643  68.3561020  53.0632858  32.5606155
  69.1334000  52.8259354  32.0549469  68.6944122  53.2937202  33.4258766
   8.5155563  53.6144333  76.8168793   9.2553930  53.2011757  76.3718033
   7.7567410  53.3913803  76.2777328  23.6187038  41.0497475  18.8659172
  23.7675018  41.1930428  19.8005600  24.4940186  40.9188080  18.5013466
  31.6486530  59.7935982  22.8089561  30.6970234  59.6921806  22.8275738
  31.7940540  60.5985718  22.3118572  35.8946075  36.6315422  81.0947800
  35.5542297  36.6901436  80.2020645  36.7852936  36.9769363  81.0346603
  65.3362885   3.4284811  61.9496346  65.5312424   3.0090578  62.7876740
  64.6820068   4.0942602  62.1614799  57.6847572   9.1725178  30.7211933
  58.1744804   9.9027081  31.0996456  56.9445419   9.0472221  31.3150063
  47.7950211   9.9403324  24.3997231  48.2010918  10.5794973  24.9852200
  48.1168022   9.0936527  24.7092743   5.5346694  49.4022484  74.5267181
   6.3171315  49.0989571  74.9871521   5.0698204  49.9365234  75.1706924
  31.2250423  60.3771935  83.7419968  30.8615208  61.1184502  83.2576141
  30.5005474  60.0679512  84.2857895  82.2846298  33.2489090  24.7000866
  82.8515625  32.4802818  24.6365871  81.5361710  33.0413475  24.1406536
  45.1170578  63.9666252  58.0520172  46.0199280  63.7004280  58.2257881
  44.5996857  63.1772614  58.2116013  50.3501854  53.9306297  58.2040977
  51.2157555  53.7311096  57.8474236  50.4728851  54.7475395  58.6876640
   6.5626812  21.0684624  71.3855820   6.3831549  20.1608810  71.6311340
   5.7167654  21.4099655  71.0956955  48.7983971  38.0089912   2.6106086
  49.2927895  38.6439476   3.1289110  47.8915367  38.1214371   2.8955505
  44.5760117  64.4385681  72.8120041  45.2774658  65.0014572  73.1396561
  44.7693481  64.3325424  71.8805466  43.1918602  34.7905693   7.5841990
  42.6858292  35.4824944   7.1582832  42.5345459  34.2420616   8.0123453
  83.8139114  43.6230850  15.7709246  84.1461105  43.3158607  16.6144218
  84.1239243  44.5263634  15.7060308   6.9724226   2.7527974  25.1595860
   7.8701029   2.7095771  25.4890308   6.5513802   1.9668791  25.5078487
   5.9863062  20.0439644  86.7438507   6.3820553  20.0721378  85.8727493
   5.1049147  19.7013531  86.5955276  12.9872379  33.0371895  80.6364517
  12.7748404  33.1773262  79.7136917  12.2443266  32.5413322  80.9805984
  59.7592773   3.5446546  12.5280209  60.2835579   4.3037896  12.2729149
  59.2015877   3.3728333  11.7692776  34.7839394  56.6605759  43.4801483
  34.5777168  57.1747398  42.6995468  35.4137688  57.1974564  43.9610901
  51.1821747  15.5872574  68.4813919  51.4737587  15.2983599  67.6166687
  50.3858299  16.0899544  68.3100433  64.0004959  35.0904503  68.0086136
  64.5620499  34.3183212  67.9399872  63.9577789  35.4355698  67.1168213
  49.4644547  48.5370483  33.7041817  48.5896225  48.9227486  33.6579590
  49.4792633  47.8915482  32.9975433  55.3631325  46.5305862  88.3529587
  55.7990341  46.7232742  89.1830750  55.3598366  45.5748405  88.3003540
  37.1561928  49.3019981  31.8954411  37.8511429  48.7379990  32.2348251
  36.4700661  48.6954613  31.6169224  43.8315926  31.5595207  30.7544785
  43.4018288  30.7065773  30.8178864  44.6264191  31.4668732  31.2797432
  45.4532814  48.3025475  23.9550838  45.2650757  47.8368187  23.1402798
  44.6428032  48.2384377  24.4603043  34.9820442  50.5546074  58.7042503
  34.2570000  49.9999237  58.4163818  34.8123245  51.4026489  58.2940636
  71.6552200  68.7028809  71.1430817  71.0680161  68.3156815  70.4938507
  71.1270218  68.7610626  71.9392319  19.7528248  62.0792122  46.9225235
  20.2378578  62.7675133  47.3777390  19.0816174  61.8056374  47.5477180
  28.9907608  16.0138741   9.9492149  29.3818989  15.4659872  10.6297035
  28.2650757  15.4909439   9.6083946  72.5704269   4.2670441  72.5925446
  71.8240662   3.6853335  72.4483566  72.9975128   3.9191589  73.3753662
  22.3413372  36.1338463  73.9927597  22.6099796  36.6977959  74.7180328
  23.1634541  35.8472977  73.5949478  72.0857468  60.6929932  31.9906082
  72.2197952  60.8131981  31.0504951  71.2173767  61.0594864  32.1575127
  53.0658340  39.6766510  42.4087334  52.8845367  39.2546158  43.2485237
  52.2096939  39.9730682  42.0998726  82.6291275  67.3103790  42.7223778
  82.7938690  67.9970779  42.0762062  83.2720108  66.6309738  42.5190582
  79.3198013  12.3855829  31.5307312  79.3697128  12.8862963  32.3449974
  80.2305756  12.1802359  31.3196239  36.4904633  40.9580574   6.4120770
  36.7182693  41.8387871   6.1143341  36.1826477  41.0809441   7.3100634
   8.5070868  40.0220222   6.8703790   9.2919779  40.1065521   6.3290553
   8.5113039  40.8041763   7.4221506   1.7226892  15.5339079  52.6940346
   1.3345796  15.2704134  51.8596649   2.5966222  15.8486309  52.4629059
  72.4843674  13.7092180  52.4870796  72.7218094  12.9965925  51.8937683
  73.3076706  14.1694107  52.6502419  55.1016006  13.4511442  41.0369720
  55.0416260  14.3763771  40.7991066  56.0120583  13.3318682  41.3072853
  15.3384790  34.2909966  81.6367645  16.1444321  34.1550865  81.1385651
  14.6498404  33.9223900  81.0834656  68.2909012  63.1930428  54.6974106
  67.7308655  63.6211624  55.3449478  68.8507767  62.6116600  55.2119598
  46.0268097  13.5662899  88.4485779  46.6254616  13.8248177  87.7478561
  45.1938057  13.9760447  88.2152710  72.5683594  65.6468048  18.5520344
  73.1823883  65.0650787  18.1039314  71.9719543  65.0565796  19.0126514
  55.1265221  53.9939041  55.1064339  54.7397385  53.8570404  54.2416229
  55.1446228  54.9449883  55.2129173  28.6503429  43.5237846   7.5165710
  28.0776043  43.5923386   8.2804441  28.1906414  42.9277534   6.9252563
  47.2946053  68.1509933  48.9949532  47.9002342  68.3535538  48.2819252
  47.5950508  67.3069305  49.3318863  84.0656204  21.8527393   9.6217184
  84.2848358  21.5911617   8.7274303  84.5972519  22.6327858   9.7802353
   2.0818715   1.5126939  83.3699341   1.9766520   2.4051044  83.0401382
   2.4727812   1.6222302  84.2367783  17.7179775  51.0500526  44.2775993
  17.7205505  50.3150864  44.8908310  18.3661003  51.6592712  44.6311836
  49.2123184  61.8090401   1.2882444  49.3705597  61.2519798   0.5260907
  49.7808418  62.5671425   1.1529927  22.7433205  25.1708717  13.7749405
  22.3497448  25.7142773  13.0922689  22.3888626  25.5197163  14.5928020
  46.5571136  53.8766861  47.7362022  45.9194450  53.1629028  47.7249718
  46.8665390  53.9072037  48.6414948  21.5334320  23.3834686  10.7041321
  22.3694897  23.8238506  10.8567915  20.8785667  23.9809341  11.0652666
  23.5116615  56.5830765  63.3424721  23.6854210  57.1470299  62.5888176
  22.5950413  56.7511330  63.5610924   5.8451004  35.1233368  72.9436417
   5.9533839  34.7731667  73.8278885   6.7372794  35.2991066  72.6447220
  60.2577591  30.2947559  71.0363464  60.9364166  29.6428185  70.8613205
  59.9798622  30.5899220  70.1692352  67.7110291  32.0461082  74.2742615
  68.6152802  32.2132645  74.0085144  67.7296982  31.1641140  74.6457062
  41.3123283   3.4281538  46.7957382  40.3902130   3.1798520  46.8611755
  41.5119324   3.3640625  45.8617783  50.2083626  47.5859184  37.7466087
  51.0394669  47.1176033  37.8251915  50.4355392  48.5036926  37.8959808
  73.2406540  33.3093338  11.7159252  73.4099808  33.5537872  12.6257620
  74.1102371  33.1877403  11.3347769  18.2821503  29.6007938  62.4306641
  18.2530212  29.4482002  61.4861526  18.0711346  28.7509193  62.8172073
  25.4814472  37.5256119   2.2431440  25.4359283  36.6235161   2.5599811
  25.0909519  38.0460396   2.9452107  20.3913860  22.6365986  68.1410751
  20.9409695  22.0702133  67.5994110  20.9555645  22.8902264  68.8715515
  32.1669655  49.8630829   7.2008743  32.1414223  50.8175354   7.2686934
  31.3120556  49.5771332   7.5227327  62.3729286  43.4056320   8.3221245
  61.9412727  42.7611046   7.7613282  61.9890633  43.2653008   9.1876822
  47.5313911  35.8213348  62.9752502  48.2870712  35.5124054  62.4755096
  47.2081375  36.5739441  62.4799576  17.0131779  24.6020527  76.6725082
  16.8998032  23.9315739  75.9988403  17.2030277  25.4029064  76.1838150
  71.5416336  63.8339081  48.4739265  71.3210754  64.7621994  48.5504608
  72.4895020  63.8014793  48.6032562  22.9999752  56.7153435  37.6498146
  22.1037998  57.0515594  37.6421013  23.1010838  56.2835045  36.8015671
  71.0853882  51.1408386  54.8433304  70.6425858  51.8847313  54.4349442
  70.5630035  50.3808746  54.5868187   2.5203314  11.4497824  32.5955009
   2.0446634  11.6957655  31.8021126   2.3163004  12.1440725  33.2220497
  51.4109230  64.7206268  87.8668137  51.0783348  63.8247070  87.8125687
  50.9863853  65.1780624  87.1410294  86.0461578  13.6836681  43.8074951
  86.6787109  13.4215126  43.1386261  85.5433197  14.3880949  43.3986282
  59.7303276  48.7401695  34.8471146  59.8585320  47.8260002  34.5939484
  60.0012093  49.2418671  34.0782471  78.3354263  16.0615196   0.6145546
  78.5035324  16.9094887   1.0255520  78.7467194  15.4257889   1.2001474
  74.1784515   0.1241905  40.0396500  74.9708328  -0.3913082  39.8892288
  74.5000916   0.9892811  40.2934151  10.8794136  35.1811104  87.2037277
  10.5120134  36.0218391  87.4765244  10.1168947  34.6170578  87.0747147
  10.0477829  47.1336098  33.8479385   9.5561152  46.9786644  33.0414085
  10.9458227  46.8813248  33.6332092  75.0138702  20.3301544  23.2504463
  75.7600632  20.7929001  22.8692780  75.1970367  19.4049263  23.0872440
  56.6739883  13.8665791  73.4699249  56.4640083  13.6975365  72.5514679
  55.8840103  13.6123600  73.9469376  14.0530195  34.5767326  61.5158997
  14.5294151  33.8845749  61.0574226  13.1355543  34.3079720  61.4683647
  29.5482941   6.1730900  18.4898376  28.8281097   5.7040501  18.0684471
  29.2974453   6.2181249  19.4124851  59.0070572  58.5425262  19.2899113
  59.0279808  59.0133858  20.1230278  59.8597183  58.7202148  18.8928852
  74.7219086  69.6883316  87.4061966  75.4885406  70.1455917  87.0606232
  74.9860077  69.4059296  88.2818298   5.9838352   3.3117530  20.0219421
   6.3524990   2.8396704  20.7685719   6.0190754   4.2328687  20.2798882
   1.2713739  15.3235722  75.5881042   2.0300083  15.7595806  75.2000275
   0.9090204  15.9687061  76.1953354  70.3307266   9.9153328  75.5117950
  70.6849136  10.2088785  76.3512039  71.0842896   9.5494318  75.0486679
   3.4121590  51.6385727  85.8594666   4.1929512  52.0646896  86.2130508
   2.9931924  52.3124542  85.3241272  64.4112854  68.9360123  75.3135681
  65.0544662  69.4856186  75.7613144  63.8516388  68.6024933  76.0148544
  48.8053780  46.2880554  61.4537086  48.1800117  47.0124664  61.4732132
  48.9451103  46.1172829  60.5222893  45.1161041  56.2082901  48.4780235
  44.7005882  55.4259186  48.8406143  45.6158638  55.8879051  47.7271385
  81.1276855  20.9127598  89.1864471  81.6603241  20.6144810  88.4491882
  81.1163559  21.8662872  89.1034470   1.2468308  67.5962143  77.7470398
   0.4956622  68.0978699  78.0637741   0.9555762  66.6848526  77.7759247
  77.3882065  61.9553680  48.0799904  77.7881088  61.2961884  48.6472549
  77.2239761  61.4952011  47.2568855  63.3392830  21.9071827  59.9340744
  63.5180054  21.1582966  60.5028114  64.2028809  22.1936722  59.6368217
   8.5593939  41.6605949  58.7135239   9.1661501  41.0326805  59.1057014
   7.7274294  41.1899796  58.6626167   6.2661343  70.0789108  62.9114189
   5.4699612  70.1851807  63.4320412   6.6554213  69.2654953  63.2324295
   2.2190540  43.0693550  80.7688980   2.9319694  43.6981392  80.8812180
   2.2870102  42.7908325  79.8556442   2.8636432  51.7875366  62.0619583
   2.3397288  51.9615479  61.2799950   2.2589209  51.3534393  62.6637077
  51.5182648  44.1230011  61.6842766  50.9320755  43.7895660  62.3635674
  51.1045113  43.8618889  60.8615608  75.1409073  67.5769882  42.4406891
  75.4106827  68.4654694  42.6732101  75.3903732  67.4838257  41.5212784
   0.9492082  52.7477303  76.4344025   1.6706675  53.0130882  75.8640442
   0.8575873  51.8070602  76.2828217  28.5892773   5.6073179  32.7170448
  28.2229557   5.6781745  33.5985298  29.1582394   4.8385143  32.7552032
  33.9798546  60.6586037  34.7390862  33.2609444  61.2899551  34.7671776
  33.9540558  60.3056755  33.8497009  54.3628998  32.9862785  72.8183136
  54.7432976  33.8604355  72.9042282  54.2902451  32.6672249  73.7178421
   1.1693569   4.2083974  50.3507538   0.5402636   3.5222058  50.1280098
   1.6300077   3.8708301  51.1189194  70.5024490  38.9163246  42.4956894
  70.0477829  38.8188438  43.3323555  71.2961884  39.4064598  42.7101135
  39.5092964  43.3752441   7.0693893  38.6909904  43.7479668   7.3975439
  39.7360687  42.6974449   7.7060943  58.2288170  48.5111198  15.6419182
  59.0104790  48.1672478  16.0743351  57.7898369  47.7369194  15.2895832
  40.9074707  21.5509853  88.6915588  40.6756172  20.6285133  88.7989044
  40.7252731  21.9445992  89.5448532   1.2791022   7.7905192  10.4048805
   1.1285372   6.9629192   9.9481087   0.4171662   8.2053909  10.4392309
  71.8314667  42.1622696  30.0224781  71.4152374  41.8511696  30.8263454
  71.2796936  41.8200645  29.3191471  46.8733292  46.5070763  70.2037048
  46.4431381  45.9223824  69.5797653  47.5360947  45.9607315  70.6261749
  30.1016731  67.8145142  13.1317968  30.0280914  67.0626144  12.5440359
  29.4874268  68.4570694  12.7767544  67.1723557  65.5165329  15.5851269
  66.3665543  65.1028671  15.2756195  67.0346146  65.6359863  16.5248032
  46.2147827  44.3867531  29.5801315  46.7931061  44.6905022  30.2797813
  46.2246552  43.4328117  29.6584435   0.4662915  11.4544687  17.2180977
   1.3777133  11.6799469  17.0318127  -0.0430889  12.0065632  16.6248398
  53.1575470  13.1436968  25.2730103  53.5373802  12.3569059  25.6640606
  52.2581825  12.8949118  25.0597496  22.6784363  23.6856937  69.2204285
  22.5293636  23.7183781  68.2754745  23.3532658  24.3456650  69.3794174
  77.3633041  53.2282600  26.6140842  77.0406876  52.3636971  26.8684139
  77.1184235  53.7990646  27.3424015  79.6657028   7.9983635  83.7333374
  80.4309082   7.6822114  84.2136765  79.9323425   8.8525438  83.3934708
  51.8440857  43.1101379  10.2200518  51.4428635  42.7618484  11.0162582
  51.2594757  43.8170891   9.9467611   1.8018571  49.6472015  23.2965393
   2.6225166  49.6682167  22.8042908   1.4026545  48.8097153  23.0609875
  40.0578156  61.6595612  58.7242126  40.2897797  61.1193886  59.4796181
  40.5198479  62.4852257  58.8692551  85.1513748  55.4026680  65.0658264
  85.7672806  55.6379890  64.3719177  84.9302063  56.2356148  65.4823837
  67.4153442  11.0678272   9.0660934  68.2542038  10.9406385   9.5092402
  66.7783127  10.6265593   9.6279688  82.4885941  56.2945595   6.6611462
  83.0431213  56.9361267   7.1051383  83.0967712  55.7762566   6.1341548
  70.5878525  59.2833557  36.1524849  70.9245529  58.3962479  36.0263519
  69.6971130  59.2533607  35.8033180  18.7839642  62.6572647  36.4553337
  18.3435211  63.4935875  36.3043022  19.7167091  62.8632393  36.3937492
  23.5926170   0.1347259  13.5043201  24.1556587   0.4369823  14.2169619
  24.1880760  -0.3089852  12.9003496  80.5296555  67.0539703  53.2130165
  80.6750259  67.4868774  52.3717766  80.3273239  67.7677155  53.8178787
  58.7585106  17.0655670  45.3637238  58.1344795  17.1437950  46.0853195
  58.2252464  17.1606808  44.5745392  31.7653561  38.5339661  68.6542130
  31.7203102  37.6105194  68.9021072  32.0605202  38.5234184  67.7437210
  86.1146317  31.4179668  80.8314514  85.9267426  30.5144196  81.0854874
  86.4803543  31.8175335  81.6206436  60.3242378  15.8502531  55.9300194
  60.2224846  16.7090549  55.5197334  60.4318848  16.0411987  56.8617859
   8.4958420  51.0805664  14.2732821   9.1306829  51.7451286  14.0057631
   8.9901867  50.4937019  14.8455076   5.4275484  38.0292931  54.1459579
   6.2587581  38.3702431  53.8156929   4.9083281  37.8610001  53.3596230
  56.1977615  61.2894745  58.0121880  55.7292328  60.9104767  57.2684975
  55.7893143  62.1454315  58.1415749  78.7815247  29.7264023  41.0817986
  78.4737015  30.5750999  41.3998985  78.8899841  29.1989861  41.8731880
  54.3390694   5.7586474  14.1271706  54.0846443   5.1447387  13.4382467
  53.5493050   5.8641229  14.6576252  77.8588104  37.1773033  78.9046097
  78.7888870  37.3998413  78.8637390  77.5852966  37.1220589  77.9889832
  67.6007233  33.8690147  86.6765060  67.4400330  34.3950691  85.8931274
  68.4459534  33.4500351  86.5144348  77.0033417  31.1166096  31.0133457
  77.2631760  31.3819885  30.1311398  77.3927383  30.2496262  31.1271095
  73.7587509  20.6027584  34.2500877  72.8627243  20.3752708  34.0018539
  74.1775665  19.7616463  34.4327240  32.5987167  52.5724907  40.0000572
  32.2068863  51.7018738  40.0687943  33.5002632  52.4536743  40.2989349
  40.8984299  61.7571487  70.9189377  41.3796883  61.8680954  71.7388840
  41.1555405  62.5099449  70.3865662  31.1902943  46.9581375  24.9775677
  31.7383423  46.2408829  24.6591034  30.6190491  46.5518799  25.6293831
  85.7788696  14.4335976  61.7234688  86.5130997  13.8896122  62.0084610
  85.0396576  13.8280582  61.6676254  17.6215420  65.0179443  27.3121471
  17.4168243  64.1129456  27.0769844  16.8597202  65.5191879  27.0212612
  29.7930756  56.0235405   9.5372849  29.6483536  56.9467316   9.3299007
  30.7453766  55.9300957   9.5622339  57.4706573  31.2362900  33.8899765
  57.7871170  31.5641232  34.7317657  56.5565529  31.5176716  33.8516846
  36.1601295   9.6702890   4.9023271  36.3684883   8.9868956   5.5393443
  36.3423805   9.2692051   4.0525341  16.3958244  47.7781372  41.5475845
  17.1882305  47.2422104  41.5809021  16.7169743  48.6796837  41.5301743
  20.3114719  68.6252518  25.1514225  21.1633873  68.3064957  25.4495277
  20.5187435  69.3676071  24.5838089  58.5957336   7.1631289  12.0605755
  58.0985870   7.6297083  12.7324247  57.9468689   6.6139126  11.6206131
  11.2202320  14.1984701  72.1230850  11.3693905  13.2622948  72.2555923
  10.4378700  14.3918171  72.6395721  45.9358978  36.9519691   4.3141289
  45.7359962  36.5052948   3.4914784  45.6931534  36.3227921   4.9934244
  72.7778549  70.5136261  74.2071457  72.6522141  70.9837265  75.0314331
  73.6513824  70.1293335  74.2813263  50.1994705   0.4760691  13.5894079
  50.9885330   0.2920355  14.0990553  49.4774246   0.2562131  14.1780882
  83.1752319  45.4030113  18.7377357  82.5152512  45.1950760  19.3991108
  82.6718445  45.5665474  17.9401836  64.6939545  22.6094303  21.8324242
  64.4548111  22.9117565  20.9562740  64.4465942  23.3310528  22.4106159
  12.4015837  24.9163837  66.2862396  12.5578117  24.6531086  65.3793182
  12.9459085  24.3238945  66.8047943  28.2359123  67.5333176  69.6416016
  27.4095020  67.6411972  70.1123886  28.2327175  68.2332230  68.9886398
  77.3069534  54.2087669  67.9822006  76.5858765  54.1316795  67.3574371
  78.0237274  54.5896950  67.4748917  35.2177505  44.8348312  49.1980858
  36.1429939  45.0095558  49.0259514  34.8900528  45.6442375  49.5901375
  20.7720776  10.2351885  59.8193169  20.6625614   9.4360695  59.3039093
  21.5429173  10.0668936  60.3612747  73.5108109  18.1301556  30.9339199
  72.9294662  18.8549919  31.1638794  73.7017288  18.2616253  30.0052109
  56.2703972  58.7667885  21.7717667  56.1429558  59.5617218  21.2540112
  57.2191658  58.7011223  21.8802090  47.1514816  12.8646784  14.0994339
  47.7117958  12.5644970  13.3837719  46.6106224  13.5508833  13.7085018
   6.6666927  14.3540297   6.2623577   6.3029947  14.1115303   5.4108005
   6.4253998  15.2737179   6.3727369  46.3994141  18.8596325  18.4961891
  46.2745171  17.9260635  18.3256569  46.3397675  19.2707138  17.6338177
  45.1465836  44.7587662  34.0208206  44.3894577  44.7295265  34.6057434
  44.9111824  45.4065018  33.3565483  48.9195328  65.1544876  57.5641174
  48.5083656  66.0166626  57.5022049  48.3503304  64.6594391  58.1533279
   0.6932478  15.4824085  50.0466309   0.3661058  16.3401890  49.7756691
   0.0280686  14.8652058  49.7419548  61.3915672  46.0129700  79.1050873
  61.3665771  46.9642868  79.2080688  60.4795761  45.7643204  78.9544830
   6.2266898  66.9574127  40.9945488   5.9864860  66.3607101  40.2856941
   6.8503957  67.5642319  40.5958099  23.0403271  52.8788567  80.0072021
  22.1792088  52.4617844  80.0347061  22.8532810  53.8043785  79.8501816
  36.2509003  47.8534927   2.5661678  36.0631638  47.0416222   3.0371788
  35.5704041  47.9037895   1.8948828   5.5952859   7.6046772  12.5911055
   6.3111830   7.4892702  13.2159290   5.2359557   8.4680395  12.7953568
  53.1670761  27.7121048  69.2268982  53.5302505  28.2982368  69.8908157
  52.6641960  27.0679741  69.7253342  16.6197720  11.2490587  15.2727909
  15.9382906  10.6438074  15.5651703  17.4407635  10.7940702  15.4603796
  65.5152969  28.7466068  67.7099686  64.6829529  28.2746449  67.6838226
  65.8031921  28.7751961  66.7975388  54.9234276  24.7431049  19.1617126
  55.2028427  25.5501156  19.5940247  55.5399704  24.0796413  19.4714222
  37.8998566  47.7793274  64.0062408  37.2426262  48.3099518  64.4564819
  37.4726639  47.5073662  63.1939735  85.6826477  24.2445736  34.6681671
  86.4520493  23.8572273  35.0855560  84.9448013  23.7404461  35.0111885
  35.1501427   7.7257833  43.6953926  36.0204239   7.8412318  43.3139305
  34.9001198   8.6012115  43.9909363  81.2407837  58.1783257  24.4750252
  81.1037979  59.0188065  24.9121304  80.4956207  57.6426315  24.7470493
  52.9849396  50.2191315  27.6833916  53.1279144  50.2425880  28.6295624
  52.8482780  49.2928047  27.4847031  55.9907227   6.4088001  75.6832809
  55.3849754   7.1279011  75.8627167  56.8588219   6.8091583  75.7317200
   0.1445058   0.6666484  67.9965820   0.2437136   1.4498473  67.4552994
   0.0541132   1.0018648  68.8885956  73.5514221  33.5852394  79.0306931
  74.0318527  32.8035736  79.3034897  73.7572479  34.2384262  79.6994324
  42.0871582   9.7959204  46.8044739  41.5027924  10.5452404  46.9196701
  41.6820984   9.0954580  47.3158569  84.0549545  44.7695084  53.2415352
  84.5153427  45.6052399  53.3178787  84.5536804  44.1697693  53.7963448
  37.1881752  57.3440247  36.1215706  36.5580063  56.6261482  36.1829834
  36.7509308  58.0008507  35.5796928  24.4003143  15.4728384  68.8209076
  25.1123524  14.8475971  68.6856003  24.7550259  16.3088970  68.5185471
  46.8111267  19.8661022  68.5737000  46.6471558  20.3237553  67.7491379
  46.7594185  18.9376450  68.3467026   4.0077801  70.4581451  64.2842789
   3.2982466  70.5126648  63.6441078   3.6055639  70.0554886  65.0539093
  28.2682228  42.6210594  86.1725616  27.4884434  42.5414886  86.7219620
  27.9689369  42.3807602  85.2956848  63.2689667  49.8012581  42.3138390
  63.3108902  48.8969116  42.6246948  64.1258087  49.9580879  41.9170227
  74.7062531  17.3279781  49.3837891  74.0080643  17.6342182  48.8050156
  75.2812500  16.8157635  48.8152428  47.9156189  57.9025955  86.7203827
  47.3066635  58.3353920  86.1219711  48.6587601  57.6567459  86.1694412
  12.3807983  50.4735336  32.7917824  12.0750647  50.0958176  31.9671078
  12.9218578  49.7878075  33.1832733   5.5929070  32.5435715  40.4871979
   5.3211508  31.8877659  39.8450928   6.5491619  32.5012779  40.4827232
   1.9047263  50.1212120  58.8578300   1.1207418  49.9775696  59.3878937
   2.0407441  51.0683594  58.8831558  14.2431030  32.3405838  12.1303864
  13.9945593  31.6685104  12.7650318  13.7398224  33.1124763  12.3894615
  53.3966599   9.4083052  78.3451691  53.8464699   9.3229446  77.5045624
  53.0848961  10.3132019  78.3591843   9.3174810  40.5674477  88.9715729
   8.9626579  41.1804771  88.3277359   8.7160301  39.8231087  88.9504013
  14.7505817  71.2842407  73.8447571  15.5849209  71.0537033  74.2533722
  14.9941626  71.6637650  73.0004501  34.5803452  36.8117294  29.9280987
  35.2035484  36.0858841  29.8964958  34.6538429  37.1518631  30.8198032
  20.3321056  64.9539337  47.5254250  20.7119999  64.2947083  48.1062241
  21.0378761  65.5852661  47.3856430  85.0698242  69.4323654  28.4719925
  84.4801865  68.6783676  28.4649353  85.7866364  69.1704483  29.0497608
  17.7508240  34.4899292  20.0486698  16.8664799  34.6748352  19.7324772
  18.3251324  34.7977982  19.3475170  80.5166550  20.1237717  17.3962784
  81.0837402  20.3244724  18.1408348  80.4986649  19.1674347  17.3598518
  65.8646011  51.5681076  48.9678841  65.7717209  50.8808441  49.6276360
  65.1061935  51.4543114  48.3950806  57.3181992  59.5152626  59.8022385
  56.9735947  60.0633888  59.0972290  56.6006775  59.4573860  60.4331474
  43.8900566  44.7544746  20.6520977  43.1351318  44.6381454  20.0752163
  44.5148048  44.0879402  20.3663502  45.2511177   4.0388775  58.7075386
  45.6545258   3.6875174  59.5012894  45.0134430   3.2649288  58.1969070
   1.0674434  55.6708298  71.8053284   1.3667558  55.4722595  70.9180756
   1.1438994  56.6223068  71.8765717  44.0512543  17.8888645   6.7099514
  44.0820160  17.5218544   5.8264418  44.7105637  18.5827751   6.7041421
  45.4298210  36.5384026  74.5175552  46.0515938  36.2156143  73.8653030
  44.9255753  37.2088318  74.0565872  57.3872757  68.8213882  74.8157272
  58.2884254  68.6278992  74.5574188  56.9158363  68.9156036  73.9880142
   2.3927124  18.2300568  36.1486435   3.1597621  18.2462673  36.7210121
   2.1037316  17.3176079  36.1612091  84.4924240  62.0183182   5.5351276
  83.6105652  62.2163620   5.8503103  85.0334625  62.7319374   5.8731456
   3.0687635  39.6829872  44.7132645   3.5448921  40.0307465  45.4673195
   3.4229105  38.8020325  44.5918961  20.4255390  51.4463348  27.3914814
  19.5894966  51.5099907  26.9297333  20.5308361  52.2983665  27.8147907
  84.7954941  48.2354851  56.1105042  83.8464661  48.3544846  56.1480598
  85.0237427  47.8607368  56.9612122  59.2303810   4.8354526  54.3824081
  59.4470139   5.2757502  55.2042580  59.3333511   5.5124588  53.7136078
  53.3711472  51.2083931  63.1324463  53.4066963  50.3242912  62.7672958
  54.2877045  51.4747505  63.2046204  75.5684814  45.3125076  64.8554382
  74.6996460  44.9879074  64.6187973  75.6930237  46.0861740  64.3057556
  73.1299667   9.6213531  65.3324738  72.8572235   8.7079430  65.2457047
  72.9748001  10.0008421  64.4675217  81.0397110  51.4688377  17.1217880
  80.1319809  51.1719894  17.0573845  80.9786148  52.4239006  17.1405449
   2.0386288  53.4127617  39.2350960   1.3686873  54.0963058  39.2483635
   1.7425077  52.7745361  39.8841057  62.6522331  19.9988461   9.2695026
  63.2093124  20.6237640   8.8054228  62.3904037  19.3676338   8.5992422
  59.5857964  41.3580132  29.7762051  59.3393402  40.4374237  29.8656769
  59.3217392  41.7582588  30.6046429  13.5994024  51.9540138   9.4379606
  13.3283873  52.6159325  10.0740767  12.8334398  51.8333969   8.8767252
  29.4873180   2.8704436  78.4390182  29.2410526   3.1989133  77.5743256
  29.9567986   3.5981016  78.8468628  49.5943260   7.4278536  50.2008018
  49.5969086   8.2998905  50.5954857  49.6835480   6.8291006  50.9422646
  84.1166763  24.3002148  48.1068916  83.5849457  24.0234299  48.8531418
  83.4830933  24.4594078  47.4072762  52.0450058  67.5676346  48.9023552
  52.9432182  67.4463425  48.5945587  51.5273018  66.9577484  48.3767586
  69.8426056  69.8192673  12.6781492  69.8543396  69.2860184  13.4729691
  68.9589081  69.7074280  12.3277216  63.2795296  52.4345207  31.0416088
  64.2234497  52.4423065  30.8829269  63.1946373  52.5553627  31.9873466
  47.8849525  14.5942507  86.6643295  48.3473778  13.7630424  86.5571594
  47.4868813  14.7588215  85.8095245  28.1843948  69.4041901  50.5610046
  28.6415558  68.5937500  50.7855530  28.8532829  70.0848846  50.6349983
  43.8096046  44.3516655  58.0700836  43.3137321  43.9137459  57.3782959
  43.8860703  43.6950340  58.7623405  54.5556946  46.5350914  59.7027321
  55.1678734  47.2630844  59.8099632  53.7254257  46.9522247  59.4727745
  44.5005836  41.4555244  39.8052826  44.5755806  42.3985786  39.9510689
  44.5682602  41.3538017  38.8559113  16.1639118  58.5327530  84.0383072
  16.2881126  58.7239227  83.1086502  16.9777260  58.1056976  84.3058243
  43.9641151  61.5196190  84.0268326  44.3909454  62.3623924  83.8726120
  43.2227554  61.7271461  84.5956497  81.0841751  71.3672714  25.3295326
  80.5245590  70.6837845  25.6981773  81.3289413  71.9075165  26.0808372
  71.7430878  10.5838013  48.9408226  71.4501038  11.4929943  49.0021286
  71.3148041  10.2466888  48.1539536   0.8940083  58.2876854  66.0609436
   0.9291338  57.5123138  66.6211243  -0.0377202  58.4992104  66.0028839
  46.0950012  44.5136185   7.0865941  45.1440277  44.6168175   7.1216598
  46.2851677  43.8271904   7.7260318  85.6672058  18.7480412  13.0309095
  85.3544388  18.6156311  12.1359921  85.4925690  17.9162464  13.4711952
  32.4344635   3.6760044  21.4466648  31.5803566   3.9800639  21.1396122
  32.3612709   2.7216208  21.4518299  55.6474800  46.7723694  37.9152794
  56.1093636  45.9932785  38.2249756  54.8331985  46.7838516  38.4183159
  46.8740921  70.4387207  55.2385101  45.9875031  70.1575317  55.4645996
  46.9618492  70.2296371  54.3085556  55.1073074  44.2465248  40.4882088
  56.0555305  44.1777687  40.5994797  54.8798103  43.5149193  39.9144249
  30.3696346  32.6078568  18.5104046  31.0781250  32.8412437  19.1102409
  30.5005875  33.1770592  17.7520580  48.7250900   7.4547739   5.5632157
  47.8387909   7.0932455   5.5641742  49.2113876   6.8983507   6.1716061
  43.7724113   9.1742010   5.1485553  43.3408165   8.4150896   4.7565017
  43.1223526   9.8745918   5.0928202  39.3407326  41.5046577  23.4516678
  38.8521309  41.7202759  24.2460289  39.7509918  40.6615524  23.6442509
  33.0554962  61.7943916   1.3976829  32.6082039  62.1116905   0.6131557
  33.1743774  60.8572655   1.2431140  29.2269325  70.2620316  38.2803078
  29.5418816  70.6493835  37.4636078  29.8306847  70.5872574  38.9481010
  34.1627769  65.6087189  31.5892906  34.4216690  64.8614807  31.0499916
  34.2134666  65.2841949  32.4883728  21.3654041  52.5251961  66.4528427
  20.6540260  52.1910515  65.9064789  21.0685654  52.3755455  67.3504639
  23.1773968  62.1488228  55.5350418  22.6309566  62.5091743  56.2334557
  23.2757988  61.2238922  55.7609940  24.9018230  50.1543617  62.2137222
  23.9871368  50.0021591  62.4512405  25.1235714  49.4248886  61.6349945
  79.4104156  21.8227615  54.8701172  80.0642395  21.2941151  54.4126434
  79.7581558  21.9193096  55.7566757  72.9437943  18.9756756  55.6830673
  73.3741608  19.1835480  56.5124092  72.1902390  19.5649872  55.6499596
  24.6478634  14.4514704   4.0902233  25.5688381  14.2653666   3.9074626
  24.3967400  15.0931187   3.4258006  41.5931091  70.1129150  81.5396805
  41.9478798  70.8266296  82.0697632  42.2136002  69.3940353  81.6598206
  83.4439697  65.6654205  59.6166573  84.1508789  65.8879623  59.0108643
  82.6707153  66.0945969  59.2504501  36.6661606  53.3576393  84.8134384
  37.6121788  53.3318291  84.6698685  36.5612450  53.1875992  85.7495499
  21.8277111  39.0287476  16.1646080  22.6940022  38.6492577  16.3121185
  21.5684471  39.3732262  17.0192127  79.1151733  42.2620926  31.2484627
  79.1419373  42.2605247  32.2052879  79.9015884  41.7836227  30.9860744
  62.1322556  57.5134773  65.6757736  63.0422821  57.2243729  65.6086807
  62.0151978  58.1096649  64.9361191  13.2650099  41.9716988  40.0494308
  12.3778639  41.6296997  39.9388008  13.3106718  42.2254066  40.9712639
   1.7240113  63.8226891  34.4026794   1.7171535  64.7662201  34.5637436
   2.6486716  63.5790443  34.4459381  46.8256340  36.2923622  57.6287689
  46.6608353  36.2090530  56.6895485  46.2201080  35.6716995  58.0341682
  69.8162994  67.6013641  14.4650421  69.5832062  68.1387177  15.2221117
  69.2878189  66.8091660  14.5617857   3.6189170  68.0068970  15.9977121
   2.8536541  68.5366058  15.7740688   3.4033663  67.6211853  16.8468266
  75.5325851  16.8745689  51.7033195  75.1879578  17.2266521  50.8826523
  75.4462891  17.5947685  52.3278999  15.1322803   5.1848879  11.0956831
  15.1476641   4.3974557  11.6396923  14.2498293   5.2029090  10.7252951
  69.9136810  41.6733818  69.2535095  70.4578094  41.7976494  68.4758682
  70.3394547  42.1995697  69.9303284  54.9081230  57.7703362   1.1544813
  55.4992714  57.2773399   1.7234524  54.2352829  58.1097260   1.7446791
   4.6552758  35.5883217   4.4611650   4.1718435  34.7846146   4.6524310
   5.3915930  35.5762024   5.0726566   1.9792620  26.7866783  77.7992249
   1.6955580  26.6041965  76.9034348   1.8011214  25.9763870  78.2766418
  26.5998611  37.8957787  35.3160172  27.4060383  37.5753365  34.9115105
  25.9381828  37.8134956  34.6292572  52.0962143  54.3505325  17.0202618
  51.3193321  54.0751839  17.5069523  51.7654457  54.5826797  16.1525459
  31.1647987   1.3109684  45.8310051  30.8043613   2.1203725  46.1931953
  30.9627991   1.3559656  44.8964462  66.7328949  58.5501938   9.0182953
  67.1555099  58.0980072   9.7484694  65.8002548  58.3660431   9.1300764
  75.1226730  34.7256050  30.6231308  76.0737915  34.7672729  30.5238171
  74.8295898  35.6289825  30.5037823  50.3756828  43.4324341  87.7503891
  51.2615967  43.7517471  87.9219208  50.4612503  42.9029503  86.9575729
  25.2932587  36.2292900  53.0231514  24.5010414  36.2530441  53.5598640
  25.0672417  35.6600113  52.2875786   1.9067546  31.0152283  15.3431749
   2.3622353  31.7269630  15.7928419   1.3881314  30.5925274  16.0277081
  45.9555359  60.6568260   9.8809738  45.1275024  60.8714638  10.3105354
  45.7066536  60.0906219   9.1504259  11.5611706  55.3051834  40.2588882
  11.3594904  56.1491280  39.8547668  11.2902641  55.4057617  41.1714287
  53.4999695  41.6180038  88.9146423  53.3087845  42.0253639  88.0698166
  53.1528969  40.7294083  88.8360901  72.3070297  25.3114090  74.0459595
  72.1784134  24.3642464  74.0966568  72.4012985  25.4905834  73.1104126
  60.1275902  22.1728649   8.0245409  60.5361061  21.6728916   8.7312050
  60.7744026  22.1627121   7.3190169   2.9183912  15.0300350  82.0560150
   2.8017633  14.5534592  81.2341309   3.7910454  15.4171953  81.9866333
  34.0678329  28.5869617  72.9924698  33.8966408  27.9151306  72.3324890
  34.3096123  28.0954647  73.7774506  85.5666580   1.2430122  38.9836044
  86.3776321   0.9907997  38.5420837  85.7108994   2.1513202  39.2489395
  23.8467102  59.8806114  13.5236521  23.2495747  59.1868134  13.2438221
  24.6931973  59.6323700  13.1520758  84.7882462  47.4280815  58.9299011
  85.1815338  46.8561478  59.5890312  84.6317215  48.2523422  59.3906898
  54.8889847  33.2999573  64.7524033  54.5877571  33.2034454  63.8489761
  55.8248138  33.1022835  64.7152634   6.2582388  41.5495110  30.4459400
   6.5424185  41.5373344  31.3599014   5.3031492  41.5925751  30.4926395
  86.3892746  24.6368122  23.1150913  86.1795959  23.8811665  23.6639652
  86.7226028  25.2925797  23.7275429  72.8668137  29.6719322  13.0927563
  72.2720718  30.4153576  12.9935942  72.3019257  28.9475174  13.3617563
  35.5518265  41.8831940  23.3882618  35.7483711  42.7614822  23.7141647
  35.1072502  42.0313606  22.5536175  85.1933289   6.8420548  72.9709244
  85.1572418   7.1729035  73.8684082  85.9701691   7.2554760  72.5943146
  13.2731171  49.8393593  67.9873276  13.1077013  49.1255684  68.6032639
  12.4027891  50.1095200  67.6944580  84.2990799  26.5620899  80.9160690
  84.2499542  26.1560116  81.7814713  85.2299118  26.5407333  80.6939697
  82.5565414  66.7864456  36.6832886  83.2447281  66.8607330  36.0221405
  82.9760208  67.0635681  37.4978256  61.9424362  29.7222996  61.8464851
  62.8095016  29.4314709  62.1290550  61.5598946  30.1266880  62.6251793
  53.0872307   9.1386652  61.1363258  52.3859749   8.4897785  61.1947784
  53.0701370   9.4282770  60.2241478  50.2511292  40.4526939  65.1944885
  50.9106636  40.8937950  65.7299042  50.7122765  39.7050629  64.8141937
  37.8826485  39.1848984  27.8265724  38.7159386  39.1249237  27.3593826
  37.7490425  38.3100510  28.1912994  41.5747757  66.0479584  84.7966309
  41.1875648  66.6378784  84.1498718  41.6637993  66.5826874  85.5855408
  58.9459076  55.0758400  59.1107025  58.6814804  54.6671257  58.2865295
  59.9013481  55.1112480  59.0647736  29.6585922  19.1853161  88.1969757
  29.4709377  20.0017529  88.6600647  30.1166801  18.6447620  88.8405533
  14.1633730  56.0807343  87.3557053  13.8006973  56.4610596  88.1557388
  14.3368235  56.8331909  86.7900620  42.6638527  40.9384727  11.0122452
  42.2442665  40.1025810  10.8086119  42.8935585  41.3054123  10.1585360
  19.0577259  65.7509155  84.1957550  18.7974739  66.4005356  83.5426941
  19.8549938  65.3590698  83.8393021  59.0355072  42.3081169  73.9671555
  58.6259880  41.4813194  74.2219772  58.4485588  42.9818878  74.3103104
  39.1170273  57.7639771  84.8119125  39.9505005  58.1384010  84.5266800
  39.3192024  57.3350830  85.6434250  27.4506149  45.5654144  63.2837639
  28.3837280  45.7708817  63.2261925  27.4025021  44.6230431  63.1229820
  59.5312462  58.6105957  50.1598396  60.4727631  58.6842537  50.3159065
  59.3187675  59.3683891  49.6150169  40.7116776  28.7521820  57.0513382
  41.5518341  28.3926506  56.7665520  40.7131424  29.6519489  56.7247658
  17.1510525  24.2452145  79.3869171  17.2455769  24.4282074  78.4521408
  16.2471523  23.9449558  79.4819946  84.7617188  28.2926102  87.2745209
  84.2239151  27.8900967  86.5926285  84.1370850  28.7663612  87.8237228
  53.4606133  37.2292328  10.4607153  53.9967003  36.4478188  10.3256836
  54.0939751  37.9319153  10.6067142  66.3860703  10.2370052  69.2572098
  66.3484421   9.8703089  70.1405792  66.0661621   9.5337486  68.6921234
  23.4634666  57.5597954   5.9601741  24.2729263  58.0122414   5.7229009
  23.7345924  56.6579628   6.1316900  86.0867157  48.4429016  21.1021118
  85.6685715  48.9119148  21.8241997  85.6052399  47.6178169  21.0417099
  85.0134506  12.6330757   3.5871778  84.1059570  12.7479324   3.3052359
  85.0594101  13.0777779   4.4335580   1.9101650  -0.0548124  10.3683386
   1.0083138  -0.2868720  10.1468782   1.8496644   0.8339152  10.7186737
  61.9525986  43.8742409  48.4619446  62.8646622  43.9012222  48.7511520
  61.7779121  44.7577515  48.1377068  17.1413651  60.9063911  69.7692871
  17.7227058  60.1734276  69.5666962  16.4578457  60.8618546  69.1006699
  38.3542595  17.8040428   2.7035604  37.4576302  17.6711826   3.0111918
  38.3928604  17.3368130   1.8690311  38.3562927  43.4324455  32.8718033
  38.0344620  42.5433197  33.0204964  39.1404190  43.3167229  32.3351593
  29.6411991  70.9461823   9.6449385  30.1531143  70.1377487   9.6204529
  30.1523209  71.5690689   9.1282177  36.1594009   7.3318830  77.8520508
  36.2911530   6.6040902  77.2444382  36.3539505   8.1136646  77.3351364
  57.4448891  53.4015236  77.5383377  56.7104301  52.7980003  77.6504364
  58.0885277  52.9043617  77.0335693  50.3244705  66.1492386  61.7158699
  49.5320549  65.6619949  61.9414902  50.0219498  66.8373108  61.1231842
  34.1387024  42.0401268  50.5233307  33.3785553  41.9860649  51.1025429
  34.6612816  41.2683601  50.7413063  26.0554562   1.4371380  77.1646576
  26.4898872   1.8934840  77.8852463  25.8873692   2.1200557  76.5153503
  15.5697842  26.2451591  21.8741398  15.0191622  25.6344967  21.3841000
  15.1985979  26.2472591  22.7564354  80.3699188  10.7238436   2.6579659
  80.0352249  11.1685276   3.4367261  79.8511124   9.9216232   2.5986826
  10.4451637  14.7101955  57.8808899  10.1725092  15.5463982  57.5031891
   9.7482224  14.0999279  57.6398964  60.5708733  38.9784164  77.8974533
  59.6874466  38.9223175  77.5332413  61.1457100  38.7449608  77.1685562
  34.1819077  59.4787292  59.7753143  34.0442314  59.5837593  58.8339081
  34.5988884  60.2957077  60.0490074  10.4273100  40.3538284  33.9318542
   9.6720419  39.7679672  33.8812141  10.6283388  40.5648079  33.0200958
  63.3915710  28.1540852  11.9329834  63.8269196  27.8162174  12.7156372
  63.7313385  29.0435791  11.8350515  42.2496071  11.6695280   0.7596356
  42.9694977  11.6147604   0.1311520  41.5097694  11.2581434   0.3128299
  82.4888153  70.3054428  28.3976860  83.4419098  70.3886414  28.4280243
  82.3344421  69.3726425  28.2484322  79.6399612  10.1827745  29.1690292
  78.9228439   9.7850771  28.6752644  80.2438736  10.5024967  28.4987297
  10.4775190  11.3176155  78.7685776  10.0147629  11.9660959  79.2992020
  11.2268000  11.7927370  78.4093170  46.6198463  52.3976479  54.6356010
  46.7055283  52.9257011  55.4293594  47.4737015  52.4668770  54.2085495
  13.3444920  44.4350052   1.6055521  12.4453173  44.7389984   1.7292709
  13.5716705  44.7138252   0.7184883  72.3053741  31.7513199  56.7930679
  72.3150864  32.0936775  55.8992424  72.5377274  30.8275986  56.6982765
  53.0872688  54.6183090  73.5801392  53.7662811  54.4729691  74.2389603
  53.1700974  53.8749657  72.9827957  28.0049210  49.8552284  67.9597015
  27.8918972  49.2046928  68.6527100  27.1889572  49.8177986  67.4606705
  65.8032532  53.2947998  51.2603455  66.1294708  52.8508682  50.4775696
  65.0091248  52.8145027  51.4946671   7.0675569  62.8803062  63.8024330
   7.8081207  62.2961235  63.9653053   6.6888375  62.5639763  62.9822273
  42.3649597  56.6364937  56.5704384  43.2599297  56.7002182  56.2369728
  41.8128738  56.8357925  55.8143234  16.6257954   8.7224932   8.0558538
  16.9060936   9.6205940   7.8795595  16.3446980   8.3877878   7.2042742
  55.7176285   1.7700166  11.4335260  55.6083260   2.2525465  12.2529459
  55.2045250   2.2642708  10.7942514  70.2052383  21.2394371  28.3077965
  70.2908173  21.9909573  27.7211742  70.7742157  20.5712700  27.9256306
  40.2262192  32.2426796  77.1291199  40.1200027  33.1840591  77.2660904
  40.4212837  32.1569252  76.1959381  42.8881416   4.5301347   2.4576192
  42.8693085   5.3242784   1.9235661  42.5133095   4.7970104   3.2969706
  61.1433868  61.1970596  59.2402802  62.0676689  61.1158676  59.4755402
  60.8479538  60.2952194  59.1152267  22.9147072  26.2700577   7.7518020
  23.6456337  25.9156971   7.2454386  22.1486187  26.1332550   7.1944628
  10.0352526   7.4603004  12.0530996  10.3264046   8.2282066  11.5613861
   9.1636963   7.2700033  11.7060986  83.0463867  34.0660286  67.2684326
  82.8865509  33.2208405  66.8484955  82.2331619  34.2593422  67.7348251
  29.5652504  68.7468414  61.0130882  29.9727688  67.9758987  60.6183624
  30.1466064  68.9811172  61.7365303   2.9117196  58.8141899  40.6478233
   2.3817604  59.4996071  40.2409096   2.3069537  58.0815086  40.7647285
  60.7104073  23.0546894  25.3766956  61.4466934  23.6561394  25.4879055
  60.8415222  22.3882847  26.0511913  41.1334152  29.0003567  75.4830780
  40.9636726  29.1339207  76.4155884  40.9044113  29.8358078  75.0758820
   2.6792884  39.6376038  65.4882126   2.2262952  38.9330559  65.0249252
   3.3100533  39.1877861  66.0503845  58.8453293  65.3973465  35.2440453
  58.5768967  64.6138229  34.7641830  59.5618172  65.7624588  34.7248459
  78.5111160  18.5299034  57.8416023  78.2525635  17.6098328  57.8950233
  78.7848587  18.6493530  56.9321899  72.9949570  27.7631588  82.9437561
  72.4189377  28.5073357  82.7687073  72.4276047  27.1136265  83.3590317
   7.3134160  60.5020485  49.8509445   6.7020426  60.2412758  50.5397491
   7.5049119  59.6905251  49.3808441  39.4672623  36.3471375  89.1400146
  38.8835945  36.7310944  88.4856873  38.9504623  35.6485901  89.5414810
  55.8349991  36.9365883  40.5717392  55.2939949  36.4726028  41.2106934
  55.4188232  36.7554283  39.7290001  35.0362587  70.8791809  49.7072639
  34.5911407  71.7198944  49.6009293  35.1639938  70.5610809  48.8135490
  28.7730007  16.1254654  84.5647812  28.1389561  16.5135803  83.9617996
  28.2850075  15.4352179  85.0138321  64.9029770  16.7819729   1.5744621
  65.6622391  16.8600750   0.9968349  65.2745972  16.5740452   2.4317234
   2.2574897  65.5529175  51.8240814   2.5044415  66.0047150  51.0171585
   1.3249106  65.3652573  51.7177238  67.5258102  66.4187622  62.6017380
  66.7756042  65.9189682  62.2798386  67.6683044  67.0920639  61.9364624
  -0.0789430  15.2718878  17.7378101   0.8550380  15.2931299  17.9462814
  -0.2661685  14.3481140  17.5710125  79.4803848   1.3512024  77.4131470
  80.0502319   1.9487147  76.9289093  79.7118454   1.4909272  78.3313751
  24.8207874  41.7807312  56.8482780  24.5315609  41.1045303  57.4609222
  25.7264843  41.5476036  56.6443253  30.3120136  50.3238525  60.0971031
  29.7895889  49.5663757  60.3607941  29.6713104  50.9529877  59.7655602
  79.7712784  15.6628704  54.6618767  79.0055237  15.5535536  55.2257042
  79.8122787  16.6042461  54.4934616  56.6039505  26.7706947  86.2377548
  55.7476616  26.3694553  86.3861237  57.2322311  26.1027603  86.5122681
  64.0770111  63.8561859  32.8869286  63.5527306  63.2011719  33.3477058
  63.5433655  64.1016769  32.1311569  69.7672195  22.2846928   5.4080968
  69.2748642  23.0488052   5.7080169  69.1702194  21.5482006   5.5400257
  46.9482346  50.3280869  32.5225525  47.1551666  50.6790695  31.6563988
  45.9916420  50.3210373  32.5558434  82.4509354  22.9251270  49.9176750
  83.0344162  22.1663895  49.9079323  81.5709686  22.5501175  49.9531441
  29.2418289  47.4726791  56.6985817  29.7205944  46.7875061  56.2321548
  28.9229927  47.0438690  57.4927483  53.5470009  69.6354904  29.5007935
  54.0400810  68.9468307  29.9467239  52.6299057  69.3876343  29.6179733
  -0.1368228  71.2791595  85.4322662   0.2200106  71.5847855  84.5983047
   0.2192418  70.3967361  85.5361328  30.2005424   9.6422930   7.8383312
  30.2117100  10.2873373   8.5454559  30.9791336   9.1066656   7.9904232
  31.2295055   1.1385665   8.1487207  31.9532909   0.9420103   8.7434740
  30.8468800   1.9446245   8.4952755  36.0014114  30.9528828  13.6645813
  35.6006088  30.2042179  14.1062708  35.2885056  31.3418617  13.1579323
  -0.0609965  15.8942156   2.7168553  -0.0388418  16.7825108   3.0727661
   0.5409958  15.3986559   3.2720652  76.2280502   3.0204308  61.5076981
  75.6489868   2.6557891  60.8384018  75.7624283   2.8764391  62.3315277
  47.5041008  25.6523266  27.0198307  48.4590302  25.6950836  26.9696369
  47.3274231  25.2125378  27.8514576  74.3852692   3.2588410  79.2638626
  73.6872177   3.3058808  78.6106033  75.0935516   2.7885556  78.8241043
  66.4822845  54.8159523  71.8773880  67.2779770  54.3287621  72.0912933
  66.3767700  54.6996307  70.9331589  65.9098511   5.7289653  88.0087280
  66.0999985   5.5201492  87.0941391  65.2058029   6.3760076  87.9652939
  40.8128586  47.7725945  61.4877815  41.0796623  47.2396812  62.2368164
  40.8597641  47.1761131  60.7406235  62.3879051  25.0163269  25.2735100
  61.9668198  25.8674431  25.3940163  63.1546097  25.0452518  25.8458366
  51.7018356  10.2596884  28.3280010  51.1529350  10.4414310  29.0908298
  52.5733414  10.5631018  28.5822754  49.0745049   4.2500305  13.4239159
  48.7142372   3.9003620  12.6089487  49.5716667   3.5224342  13.7976322
  72.4510269  52.4467049  61.1801529  73.4000626  52.3906059  61.0687141
  72.1343765  52.8150749  60.3553696  62.4584427  26.6633224  44.2623520
  63.2174835  27.1734772  43.9797974  62.5232925  26.6462955  45.2172012
  81.1889496   7.9764361  70.1806564  80.5466843   7.4614906  70.6690750
  82.0046844   7.4824677  70.2631454  43.1875534  23.9444122  11.9528017
  42.6860580  23.1441174  12.1085653  43.3520470  24.2979469  12.8269796
  36.2558670  32.0916367  21.5179806  35.5723267  31.6793156  20.9897823
  35.9185829  32.9678040  21.7045479   8.5519686  12.5490494  19.4792843
   7.7565656  12.6543694  20.0012741   9.0301676  11.8414297  19.9115257
  63.8572540  70.4323654  85.2007370  63.4293365  71.0117188  84.5702820
  63.6716270  70.8268509  86.0528870   6.4373012  70.2120514  71.5821381
   6.7207694  70.2614670  72.4950638   6.0881062  71.0828323  71.3923035
  43.6734848  19.0807858  71.0408325  43.5189896  20.0232792  70.9770355
  43.1938858  18.8119602  71.8243866   0.0135557  24.3624477  58.8751488
   0.8308335  23.9758720  58.5607452   0.0280534  24.2168140  59.8210945
  43.7729645  43.5811577  15.7206860  43.3135262  44.4188805  15.7787247
  44.1115494  43.5551834  14.8257465  29.4576283  26.6404247  81.6419220
  29.0655117  27.5069046  81.7500381  30.2515469  26.7988377  81.1312103
  72.9291840  66.7908707  10.9299412  72.6863861  67.2505188  11.7336836
  72.5648880  65.9122162  11.0371418  74.6632004  63.7337456  12.2555523
  73.7847595  63.3658447  12.3516092  74.7417297  63.9253883  11.3210268
   7.5247350   9.6421146  77.7971115   7.2760849   9.1887245  78.6026154
   7.9102197   8.9598303  77.2474518  47.1303139  43.2460251  24.7995796
  46.5319939  43.4511757  24.0811348  47.0728569  44.0029526  25.3826714
  61.0155487  53.0185089  19.3936424  61.0871582  53.1886864  18.4544182
  60.5364304  52.1918678  19.4514313  85.2922668  31.0546951   1.5958796
  86.0035172  31.4331150   1.0790100  84.7074738  31.7912560   1.7739789
  13.0391808  15.8058634  87.9093018  13.8676977  16.2608261  87.7583008
  12.3841114  16.5033360  87.9347916  83.9662628  27.1619492  34.3869438
  83.9069443  26.3424892  33.8958244  84.2767029  27.8026810  33.7471581
  59.2563591  44.5708847  49.2646828  60.1940536  44.3827209  49.2253304
  59.2076950  45.4982109  49.4969063  28.0271988  48.7533569   8.1054792
  27.9371662  49.2767677   8.9018250  28.7996655  48.2101746   8.2619362
  30.3337364  59.8515358  32.5327682  30.5488434  60.1506500  33.4162216
  31.1212749  59.3956070  32.2358742  64.7078552  17.9177628  45.2938919
  65.0104294  17.2056904  44.7303047  65.5097427  18.2902451  45.6605759
  57.4725342  18.1300812  16.7608910  57.1639023  18.1027393  17.6665592
  56.9454193  17.4716759  16.3082485  68.3584671  41.4487610  42.3243980
  68.5374680  41.6245575  43.2481308  67.5544052  40.9294662  42.3308449
   6.5448308  26.3134937   7.5760689   5.5975800  26.2152061   7.6724391
   6.8945184  25.4379044   7.7412748  56.5700188  21.4585209  57.1361771
  56.8149529  20.5848236  56.8313942  55.6950722  21.6015358  56.7752762
  62.8443451  11.0736256  25.0671101  62.6100464  10.3765926  25.6798763
  63.7257500  11.3379765  25.3306866  33.1341705  63.3162689   9.1638021
  32.4928894  62.7463837   8.7392807  33.9729462  63.0606537   8.7799387
  54.6082153  14.8675518  54.2613640  55.2974892  14.2033739  54.2610321
  53.8176537  14.3921709  54.5168266  55.3525047   3.0262465  31.9239006
  54.9533463   3.3045974  32.7481728  56.0343742   3.6767790  31.7562828
  48.0642967  22.5957527  19.0513439  48.5159912  22.2908611  18.2644234
  48.6720314  22.4043751  19.7656727  68.6820526  17.9845448  43.8211174
  69.4689713  18.3406887  44.2336159  68.7767334  17.0356483  43.9039764
  53.3235893   7.0212336  42.8779335  53.4716377   7.4529495  42.0365448
  53.7485733   6.1683235  42.7875633  80.0082474  32.4815445  22.5452633
  79.4694595  32.6680908  21.7764072  79.3873215  32.1666183  23.2021580
  77.1473083  44.9924316  14.0637484  77.7010803  44.6129189  13.3814392
  77.5639267  44.7291489  14.8843250  68.1064148  69.4177856  81.0763397
  68.7276764  70.0363617  81.4605637  68.5563354  69.0749054  80.3041763
  58.9923325  39.6354942  13.1227045  59.3462753  38.7684746  12.9246197
  58.6238937  39.9390602  12.2930470  69.8576813  11.3087521   3.1044412
  69.1081161  10.8595686   2.7137790  70.3008957  11.7233162   2.3642211
  51.0274734  33.0502586   1.4949633  50.0965462  32.8332481   1.4448117
  51.0451279  33.9692497   1.7621245  58.3010368  53.5872536   7.5272446
  58.2723007  53.4366646   8.4720879  57.6035347  54.2222900   7.3646007
  80.3398514  37.4690361  21.4634743  79.8283234  37.6226311  20.6691360
  79.9031830  37.9934464  22.1346989  24.1277294  42.2062531  14.9871435
  24.7198620  42.9399986  15.1521473  24.5072708  41.7573967  14.2316923
  56.8907814  55.7264481  39.1374054  56.7362251  54.8794975  38.7190475
  56.2789459  55.7452850  39.8732948  59.2422867  60.8397446  48.7432480
  59.4106331  60.9879189  47.8126907  59.9400368  61.3173370  49.1918945
  41.1081352  10.9649687  22.7408791  41.7579460  11.6570711  22.8632507
  40.9043083  10.9903908  21.8059788   6.5079918  19.9022293   2.0453372
   6.3907647  20.2896900   1.1779474   5.6273398  19.6363544   2.3099017
   7.5791683  42.1786804  45.0146599   6.8547301  42.6817017  44.6426544
   7.3045688  41.2655411  44.9309578  25.2992554  47.9497414  21.4630051
  26.1848278  47.5872459  21.4873562  25.2171478  48.4366875  22.2829876
  52.8078957  46.5401497  62.7032585  52.9296684  46.4128571  63.6441078
  52.3935432  45.7309380  62.4037285  64.8907471  68.2237244  43.6660004
  64.2133865  68.5065536  43.0516548  64.4303589  68.1192322  44.4986839
  61.4697838  53.9302330  34.8483620  60.5696106  53.8868904  35.1709213
  61.7544289  53.0171700  34.8092804  43.6906052  55.2195091  37.0115891
  43.5505676  55.6017570  37.8779068  43.3365593  55.8683662  36.4034233
  25.6702881  44.2083321  11.9446020  26.3213215  44.4712753  11.2940283
  26.0877323  43.4940605  12.4260502  40.7566986  62.9767494  16.3554344
  41.5093231  63.4185066  15.9621878  40.6145897  63.4364815  17.1828899
  72.8356857  60.3712730  64.5887680  72.7358322  59.7785568  65.3337173
  72.0107193  60.8556061  64.5557938  21.1725159  32.1160889  18.3122406
  21.3159981  33.0541992  18.1873569  21.5841293  31.9208145  19.1540699
  31.5876732  63.5985909  15.5742865  31.1822071  63.0874863  14.8738585
  31.9688129  64.3552475  15.1288280   2.1109028  36.9183388   3.7285779
   3.0061941  36.7379303   4.0151772   1.6283190  37.0816154   4.5389385
   5.3986049  45.4708023  74.1827545   6.2479239  45.8937340  74.0561981
   5.6014709  44.5367661  74.2343063  18.8071384  11.3480587  86.9074326
  18.0856552  11.5757055  86.3210220  18.6733055  10.4206629  87.1030273
  69.5260925  61.8010750  32.1026459  69.3685913  61.7975235  33.0467949
  68.7336502  61.4182549  31.7261906  28.6093636  39.0024147  26.0203228
  28.5522213  39.3647995  26.9044285  29.3661957  38.4171219  26.0498314
   0.8857973  54.5791817   0.3107305   0.0483988  54.1179962   0.3587204
   0.8896042  54.9788742  -0.5590174   1.8308616   7.4917188   7.2012362
   1.0623803   6.9579816   7.4032087   2.4823561   7.2293220   7.8515706
  60.8922768  14.5406008  29.5942173  60.4472427  14.8648224  30.3771973
  60.5312233  13.6644812  29.4589844  83.9881516  49.6157379  60.3170891
  83.1216278  49.2908821  60.5616989  83.8634720  50.5557632  60.1865501
  37.1538773  63.0951958  24.5551567  36.5903893  62.5325203  25.0862961
  37.0335350  62.7781944  23.6600246  12.6094322  33.2161369  37.4823303
  12.2035046  33.2957764  38.3455276  12.0627918  32.5821266  37.0181656
   0.0483079  50.6382866  29.8445129   0.0972602  50.4991302  28.8987484
  -0.1387137  51.5721893  29.9398308  33.0985374  67.5569763  55.2856674
  33.1478157  68.0163040  54.4473228  34.0080528  67.3468628  55.4974785
  68.5094452  40.3299522   3.9021144  68.2759399  39.6637497   3.2556806
  67.8904190  40.1948624   4.6196003  71.2070389  65.9682999  32.0870895
  70.8148193  66.6661835  31.5623531  70.4598694  65.4835434  32.4377708
  71.1819229  12.8175459  61.1189346  70.5843048  12.0729971  61.1877174
  70.6202850  13.5539198  60.8769836  66.5415726  51.4975967  28.6652088
  67.4077759  51.0931320  28.6169262  65.9331818  50.7847366  28.4704914
  27.6520329  34.1493492  53.5594673  28.5054626  34.5465889  53.3859978
  27.0376053  34.6635323  53.0357056  15.6663055  51.7493591  11.9130039
  15.2584019  51.0736580  11.3714533  15.8248005  51.3194237  12.7534008
  29.8256702  46.8543510  63.0144844  29.4523563  47.6765900  63.3319588
  29.7320786  46.9004135  62.0629845  61.8268623  51.4566650  60.6643486
  62.4947548  51.0113220  61.1857185  61.0186310  51.3454094  61.1649666
  56.8377762  15.7929115   9.5415678  57.0839577  15.1470232  10.2037268
  56.6386909  16.5845242  10.0415144  33.5490952  51.8983116  44.7516670
  33.9418869  51.0586014  44.9900627  33.6544075  52.4422073  45.5322533
  11.3327332  42.6323586  57.2988510  10.7660093  43.2885284  56.8932648
  11.6046171  42.0696449  56.5738220  69.0783691  12.9443665  58.0922356
  68.6748886  12.8770056  58.9576263  69.9230347  12.5041199  58.1868668
  27.5370369  45.4553032  23.4875832  28.0698471  46.0333748  22.9415302
  27.2058907  46.0220337  24.1842823  21.9965668  67.1004639  46.7415657
  22.3350277  67.9758301  46.5533829  21.8935871  66.6934509  45.8813515
  40.8457909  38.0794868   3.4555721  41.3547134  37.3771706   3.0506270
  39.9335442  37.8301697   3.3076410  65.5251007  35.3722649  37.4822235
  66.2314682  35.7222672  38.0251541  65.9126511  34.6144943  37.0442429
  24.6551991  35.6190758  69.9300385  23.8151894  35.2541313  69.6517715
  24.5008774  36.5622787  69.9827805  74.4120941  28.4168968  70.3377380
  73.7063065  28.3672905  69.6930389  75.0858002  27.8260231  70.0012589
  60.8522797  41.7189255  20.6236362  60.3136635  41.9728966  21.3730526
  60.2413025  41.6934586  19.8872318   5.1552925  55.4459724  21.4203930
   6.0773039  55.2702484  21.6081390   5.1414070  56.3537483  21.1171074
   9.1660814  32.7771835  38.6790543   9.1316109  31.8610592  38.4038086
   8.5741024  33.2301331  38.0785294   4.6827669  48.1029816  25.2343044
   3.8471274  48.5584259  25.3368149   4.5237336  47.4642296  24.5393677
  37.0516472  71.5226288   0.1805197  36.7363396  70.7205658   0.5970716
  36.3074646  71.8331757  -0.3352115  82.9477615  70.4683914  75.7999344
  83.5645981  70.9112091  76.3827362  83.1516037  70.8116760  74.9299698
  42.6493378  54.5667877  73.6015778  41.9872513  54.1804733  73.0283127
  42.9890404  53.8282089  74.1068878  33.8441925  53.7249870  86.2757797
  33.4453583  52.9335670  85.9140854  33.8892288  54.3302460  85.5355988
  24.0039310  46.3176537   3.0269716  24.2760010  46.3267174   2.1092966
  24.3952179  47.1072845   3.4006081   2.8696485  55.2430954  65.7215195
   3.6354308  54.6978531  65.9018478   2.4875529  54.8649788  64.9295197
  77.9548340  18.9562435  53.4378395  78.5700073  19.2064819  54.1271706
  77.1342163  18.7848110  53.8998260  28.3645973   3.5502293  76.1498413
  27.9094048   4.3178639  76.4959183  27.6677094   2.9984045  75.7947769
  41.8383408  61.0132370  65.6889114  40.9653206  61.3380928  65.9092178
  42.3811951  61.2581863  66.4382706  64.8567047  11.5749207  38.1043777
  64.0885696  11.3950262  38.6464539  65.2413635  10.7138195  37.9407501
  43.4550323  41.4600449  44.0044632  44.3427811  41.7235718  44.2467232
  42.8883781  41.9549522  44.5962410   1.1267303  35.0941582  19.9223099
   1.8627143  35.6420670  19.6496258   0.3637031  35.6684685  19.8576012
  82.2914276  41.8125153  14.3575792  82.9809189  42.3806458  14.7011690
  82.3298035  41.0299034  14.9073763  34.7220535  68.2230301  49.2231293
  35.0581207  67.8633347  50.0440521  34.4998627  69.1302719  49.4323311
  50.2897110  23.0429268  42.8248787  49.4552231  22.9310207  42.3695335
  50.0822296  22.8887138  43.7465057  11.4972420  58.2752953  41.8112450
  11.5451937  57.6333694  42.5196686  10.5869598  58.2400932  41.5173416
  74.1539993  22.5192394  85.6016083  74.7864532  21.8008747  85.6149979
  73.3020248  22.0871620  85.5408936  73.9981232  45.6609650  12.2435637
  73.2930527  46.2409782  11.9559889  74.5251083  46.1991577  12.8342113
  67.8886108  17.3114796  12.9306135  67.8194199  16.3579903  12.9786062
  67.7169342  17.6093464  13.8239403  45.0749245  58.7780228  39.9144707
  45.7606773  59.3882713  40.1857033  44.2891846  59.3193092  39.8379478
  54.2984314  16.5689678  69.4416428  55.0185928  17.0449982  69.8551559
  54.4979439  16.5983505  68.5059280  85.4967346  10.9685736  31.7600937
  86.3279114  10.9978380  31.2862549  85.2124481  11.8816385  31.8016434
  36.0489731  21.8236198   6.9257946  36.4367790  21.9329414   6.0575271
  35.8803635  22.7164307   7.2269425  59.9234886  70.7343292  66.3341064
  59.8329964  70.4907532  65.4128494  59.3518715  71.4950409  66.4379883
  74.8404312  30.5690193  40.1975632  74.8786392  31.4116650  39.7451019
  74.6772614  29.9312363  39.5027008   9.6440229  27.7773018  69.3283081
   9.1487970  27.2360668  69.9431610  10.0360737  27.1509533  68.7198563
  56.0697365  34.4989281  78.7008286  55.4673691  34.7245941  77.9919891
  56.6890106  35.2282257  78.7301865  54.1024933  70.8544235  44.6984901
  53.6050110  70.3858795  44.0282631  54.4748917  70.1639023  45.2468758
  74.4216537  26.2879086  78.7715912  74.5397568  27.1483765  79.1739349
  73.9685593  25.7718658  79.4384079  10.1817217  45.6525383  12.8392115
  10.7779961  45.7516098  13.5814199   9.6408653  46.4420319  12.8594513
  25.4424744  13.8493757  77.2393570  25.9733429  14.2844667  76.5721970
  25.2140083  14.5455942  77.8552475  64.3749542  32.6718102  78.4276505
  64.8379745  32.9683685  79.2111664  64.2389679  33.4680176  77.9140396
  63.8989258  65.7635803  83.8712082  64.1822128  65.9940491  84.7560043
  63.3110237  66.4742584  83.6152115  27.7130089  69.8268509  81.4666061
  27.1276493  69.4146194  82.1019440  28.5861301  69.7284622  81.8463593
  38.5336494  60.2788391  77.6714325  38.8491364  59.7271919  76.9556198
  37.9409981  59.7131805  78.1664352  48.9266472  69.8324280  33.4036369
  49.5422668  70.3565979  32.8913040  49.4740028  69.1814804  33.8428421
  66.9653244  29.0240688  75.0602036  66.1376648  29.3714066  75.3927307
  67.4018326  28.6647282  75.8325806  14.9860744  48.5547485  18.9693222
  15.2102270  49.4319038  19.2801056  15.8228788  48.1739197  18.7029419
  40.9600945  34.6737022  65.2460556  40.6182594  33.9324989  65.7460556
  41.1738319  35.3310852  65.9081650  78.9317474   6.4861822   9.2185316
  79.1234360   6.7625461  10.1146946  78.0311966   6.7729692   9.0668983
  77.8819504  57.7360916  -0.0278271  77.7640991  58.6264420   0.3032599
  77.0848999  57.2755394   0.2345179  21.0829468  64.1961060  82.4289322
  21.7616920  64.4581070  81.8069305  20.2597275  64.3721085  81.9733353
  65.4324341  23.1124935  29.4754639  66.1854477  23.5582981  29.0875683
  65.5589752  22.1903152  29.2522926  85.7906952  18.0138817  41.7174149
  85.4779968  18.0964241  42.6183281  86.7428665  17.9588356  41.7984657
  12.3910007  67.1814117  10.8618135  12.5055571  67.7792206  11.6005497
  11.5990000  67.4919205  10.4230108  65.6666565  20.3865566  38.1594086
  66.0050507  20.4929695  39.0484505  66.3953552  20.0050354  37.6698418
  -0.1569424  34.0780983  70.5313263   0.5527799  34.6407471  70.8410873
   0.2777963  33.4225044  69.9859619  63.1346245  15.6795368  41.9932785
  62.9560204  15.0955048  41.2562294  64.0821686  15.6254282  42.1175919
  84.8579483  39.3713875  77.8805008  84.5316620  38.5112038  78.1448059
  84.9222336  39.3204918  76.9268188  76.9470444  28.3717766  76.8355713
  77.0258865  28.1631393  77.7664261  76.0065231  28.4777527  76.6926956
   1.9376819  34.8960609   7.3957639   2.5273423  35.2016525   8.0850725
   2.4547400  34.2584000   6.9035511   0.2423054  39.4823952  44.2680931
  -0.0797837  40.3563347  44.4888153   1.1717880  39.5051575  44.4956360
  81.7229385  69.5366058  16.7071972  82.0269547  69.1148987  15.9034710
  81.4176559  68.8142166  17.2559986  43.1124039   2.2595727  55.5681038
  42.9118843   1.3291246  55.6695404  42.3219337   2.6339262  55.1792030
  13.9822035  34.9855843  33.5894241  13.8733492  35.7824707  33.0704308
  13.8430414  35.2676659  34.4934692  67.1055374  44.0796509  44.2729836
  66.3106766  44.3545036  44.7300224  67.3212814  43.2300453  44.6575050
  69.3059311  50.6267166  84.2071304  69.3744812  50.1688232  85.0449066
  69.8701706  51.3935280  84.3064194  76.3192215  41.4386292  28.2061596
  76.4258957  42.0087624  27.4447136  76.0815659  42.0322685  28.9184380
  75.9027863  56.3526306  54.4042435  75.9566116  57.0705757  53.7734604
  75.7144928  56.7810516  55.2392502  43.9344978   6.1035061  82.4324417
  43.0592117   6.4260674  82.6470642  44.1033974   6.4373016  81.5513687
  11.0806894   0.3049152   4.6717591  11.8035831   0.4130906   4.0537343
  10.7984686  -0.6021022   4.5538487  65.6063232   2.5525062  68.9938889
  65.3589172   3.2511446  68.3881454  66.5630493   2.5396290  68.9667664
   2.7364726  17.5344181  39.5087357   2.3354752  17.3680286  40.3618164
   2.3607836  18.3681812  39.2260170  31.6885357  40.9339638  22.0674725
  31.5316830  40.1002274  22.5107727  32.0939522  41.4875336  22.7348766
  63.5812874  67.9480515  34.8975296  64.0523682  68.5470428  34.3182869
  63.7234039  67.0826416  34.5139885  48.1104851  24.5166969  75.5320511
  49.0333328  24.4971104  75.7854309  47.8553391  25.4343166  75.6274567
  40.5268173   0.7177764  62.6530113  40.9093475   1.5384049  62.3424110
  39.8495216   0.9886941  63.2727737  67.0384750   9.0128212  82.4026871
  66.1906738   8.9813747  81.9594345  66.9049835   9.6178646  83.1323013
  50.7229652  58.9467125  72.2171478  49.9690742  59.1886787  72.7550430
  51.2480545  58.3796883  72.7819366  25.6200809  49.2821655  23.7653160
  26.1790600  48.5876198  24.1137142  24.9868641  49.4524307  24.4626522
  45.4030724  20.6654530   7.0847621  45.6639633  20.0360737   6.4124146
  45.2978439  21.4910984   6.6120362  22.2287807  62.2399940  19.9049683
  23.1105518  62.2380180  19.5325375  21.9187088  61.3415833  19.7911911
  41.2641563  33.5313873  84.5701599  41.4780273  34.4417992  84.3661041
  41.1368866  33.5220947  85.5188141  17.8333759  54.6775932  16.6779137
  17.6119442  54.1109619  15.9389076  18.7838287  54.7784691  16.6260052
  65.9395218  62.1791153  35.5136833  66.2305450  61.7038689  36.2919350
  65.0639267  61.8353119  35.3365784   8.1427517  15.9239073  15.5310116
   8.4477291  15.8916388  14.6242704   8.6301498  15.2284002  15.9725370
  39.5397682  12.7329922  72.6170654  39.8913956  11.8849087  72.3462448
  38.5969162  12.5874844  72.6950989   5.7263975  50.6998062  18.0361977
   5.3330622  49.8542099  18.2518101   4.9799843  51.2777367  17.8777885
  81.0759048  71.8068085  68.6866760  81.3531342  70.9035187  68.5335846
  80.3224716  71.9273376  68.1087112   0.8968995   4.8896418  12.1716852
   0.0652893   5.2122860  11.8244715   1.2684399   5.6384931  12.6379585
  81.8960037  50.6771202  57.6461105  82.4988403  51.0763359  58.2733612
  81.2572556  51.3644905  57.4570084  49.3299942  64.1832428  41.7291756
  50.1231384  64.5980606  41.3899384  48.6654549  64.3557281  41.0621872
  26.6912270  30.0460835  67.7066345  26.9928093  29.6603622  68.5291367
  25.8564625  30.4590645  67.9276505  26.9454575  44.9570541  17.5020218
  27.7538624  45.4390297  17.6764164  27.1542740  44.4033813  16.7496433
  26.0103130  26.8783226   4.4825430  26.1192036  26.2158451   5.1648178
  25.6454296  27.6357250   4.9401808  45.6383820  24.1062469  26.1334743
  46.4930534  24.4802971  26.3476028  45.4416580  23.5231285  26.8666210
  72.7776413  61.7773399  77.3160019  72.1142120  61.1191673  77.1088867
  73.4140625  61.7080917  76.6043854  63.7713089   0.4075980  36.4395828
  63.3657112   0.9639144  35.7745743  63.2305031  -0.3820626  36.4535789
  31.7431030  52.0277023  85.1512070  30.8103828  51.9971313  84.9382935
  31.9048672  51.2181168  85.6355972  81.8974915  39.6212425  59.1654053
  81.5623779  40.5088692  59.2920761  81.5059052  39.1136780  59.8762283
  27.6832561  61.1418839  86.9979630  27.9128132  61.2299232  86.0728760
  28.5244141  61.0530663  87.4460678   6.5516510  28.3624763  11.2532930
   5.8334808  28.9335880  10.9807205   7.3405743  28.8011189  10.9348211
  13.1780968  19.4326744  81.4949646  12.2358580  19.2692833  81.4534531
  13.5047503  19.1707325  80.6341934  21.1255970   6.9817367  61.9014473
  20.5897045   6.9289989  61.1100769  21.6077271   6.1550279  61.9197578
  85.3617325   9.0554390  70.1430283  86.0842438   8.5831671  70.5567474
  84.7786865   9.2832603  70.8671722  37.9663925  37.3901672  31.0061474
  37.8227425  36.5134735  31.3625278  37.0901337  37.7050209  30.7841778
  85.3153000  69.6584091  57.7373123  85.6710815  69.0691376  57.0721703
  86.0788879  69.9393387  58.2415390  74.2947006  33.8557396  72.6868591
  73.9107742  32.9797592  72.6482391  74.9563065  33.8579865  71.9951248
  60.0744629  64.0373764  20.1214867  59.1373367  63.8456192  20.0859776
  60.1456604  64.7721939  20.7307453  42.5102005  25.5557785  19.0248566
  41.6250305  25.9187412  19.0559464  43.0782585  26.3186779  18.9175129
  50.4404411  47.0500755   8.7432547  49.9658508  46.2558632   8.9886532
  50.0915260  47.7265701   9.3236399  22.0490685  68.1198883   3.9101932
  21.5373440  68.3988876   4.6694875  22.0088196  67.1637878   3.9324448
   2.5063484  10.2222385   6.6704674   3.3941822  10.3458700   6.3347616
   2.3840640   9.2729340   6.6803818  15.8328733  24.9319630   2.3506081
  15.0236731  24.8880463   2.8600185  15.6002102  24.5618610   1.4990655
  46.6149254   6.3034773  83.3851395  47.1478271   5.6082063  82.9993362
  45.7233620   6.1109571  83.0948257  72.0727768  47.8848305  15.1337433
  71.9779587  46.9350319  15.2053289  72.6417923  48.1245308  15.8651810
  54.1988716  14.1588526  22.7322788  54.7370071  14.6637688  23.3419533
  53.8107300  13.4688377  23.2702904  56.6442413  34.1280060  38.3782997
  57.0287781  34.8815765  37.9305344  55.7201958  34.3559456  38.4803581
  67.4094925  64.7499847  45.5665550  66.7903671  64.6853943  46.2937050
  68.2361069  64.4284973  45.9265251  80.5456161  35.1904144  76.0843124
  79.7327576  35.6804390  76.2082977  80.2810211  34.2717209  76.1314774
  46.9466476  62.9410172  29.3390141  47.7842598  63.1024475  29.7732716
  46.4687996  62.3734207  29.9437695  65.0156937  19.1330833  73.2159348
  65.3852997  19.3484554  74.0722275  64.1061172  19.4268551  73.2669067
  27.6005363  66.3644257  33.8858871  27.1770287  65.5519714  34.1629906
  27.6543751  66.8906326  34.6836586  69.5033798  49.4603882  81.3251419
  69.3253479  49.8109665  82.1978607  70.4173965  49.6894989  81.1568680
  62.4280243  44.8066788  71.3647156  63.0236778  44.3638420  70.7602997
  62.8464127  44.7183113  72.2210922  31.5062160  29.0239849  83.1053848
  30.6588211  29.4571362  83.0027542  31.4286938  28.5374813  83.9260712
  44.8554420  37.9291496  38.3291397  45.5303497  38.1118126  38.9828720
  44.0638199  38.3351974  38.6822586  65.1212082  42.8561363  40.9088440
  65.7907104  43.4744797  41.2014999  64.4625015  43.4018784  40.4793091
  62.4552803  67.6817551   1.9762564  61.6644859  67.5607834   1.4506713
  63.1655159  67.3693008   1.4157465  25.3310089   4.5787997  83.5402298
  24.7884216   4.5226793  82.7536697  24.7310925   4.8760257  84.2243271
  62.4716415  64.4985199  17.9322243  63.1392021  63.8307953  18.0895233
  61.6543846  64.0930481  18.2219086  58.4413872  39.0162468  42.7133255
  57.5536880  39.2807007  42.4718971  58.6538124  38.3077278  42.1057816
  43.8222122   1.3655491  33.9254494  43.4133034   2.2288055  33.8636780
  43.8315392   1.0399841  33.0253639   6.5844269  50.3209915  87.7646637
   6.1838846  50.5818214  88.5939789   6.0151234  49.6274109  87.4313965
  77.8399963  42.6715965  55.9743767  76.8908691  42.7845345  56.0256691
  77.9580460  41.8510590  55.4958267  51.0120735  26.9934235  10.4575081
  50.8163147  26.1865692   9.9811697  51.9574165  27.1065464  10.3586855
  27.6467094  64.8164062  22.4563255  26.9707336  65.3679886  22.0625725
  27.2505074  64.4927292  23.2653313  50.3631020  67.0446091   5.8636274
  51.2339592  67.3112717   5.5691247  49.9713211  66.6209106   5.0999398
   5.8786888  67.2584152  63.8760223   5.1397014  66.7077637  64.1346893
   6.0149641  67.8423538  64.6221313  70.5927353  15.0546007   1.9313250
  71.5065918  15.1463270   2.2009251  70.4800262  15.7077951   1.2407715
  74.1870270  36.6566124  61.0649872  74.1103745  37.4734154  60.5718422
  73.9364471  36.8917961  61.9583702  81.9754410   9.8729181  17.3724499
  82.1029129   8.9770947  17.0602245  82.2773132   9.8552628  18.2806301
  72.0165329  34.2896996  88.7945709  71.8002167  33.4826088  88.3276138
  71.6585464  34.1614799  89.6729965  39.2771873  58.2926941  75.7869186
  39.2503395  57.9223328  74.9046783  39.9656487  57.7993965  76.2329102
  63.2522202  33.6920013  84.1952667  62.5280838  33.1158829  84.4401016
  64.0282364  33.2723808  84.5666809  43.3826027   7.1658726   0.5388924
  43.8451576   7.7736568   1.1158432  44.0545845   6.8513341  -0.0658702
  31.0198441  44.0503502  15.2719994  30.6740952  43.2097130  14.9719601
  31.6936398  43.8179054  15.9109058   2.9537766  37.8610115  50.8326912
   3.3966396  38.7065659  50.9044037   3.4798181  37.3677406  50.2032547
  58.9622498  58.7178993   4.0491643  59.1720886  59.6208801   3.8107829
  59.6878700  58.4433975   4.6098390   1.2915072  16.6371479  60.5103760
   2.1613870  16.8254070  60.8626518   1.3067024  15.6984482  60.3237076
  84.5368729  25.4613438   1.3024266  84.6012497  24.7407322   0.6756833
  85.1831818  25.2510262   1.9764277  73.9046249  43.1081352  28.2836781
  73.2284393  42.9357224  28.9388752  73.4768753  43.6744003  27.6413326
   4.3295593  67.6943130  35.2638588   3.7572763  68.3654938  35.6356697
   4.5882006  68.0453110  34.4117241  72.9658585  14.4617682  28.8870850
  73.7211533  14.1047401  29.3543110  72.5238495  13.6941261  28.5243359
  82.3583298  56.2652779  38.0404816  81.6632309  56.8917694  38.2419167
  82.7495651  56.5936966  37.2309685  75.6452789  37.2428932  37.4777603
  74.7930984  36.8549232  37.6765213  75.4532089  37.9272690  36.8366928
  51.7046356  34.9729538  87.2753372  50.7892990  34.7025490  87.2027130
  52.1218185  34.6196442  86.4896164  45.3682823  34.9671478   6.0332346
  44.7971420  34.7696419   5.2909241  44.7863655  34.9546585   6.7931356
  72.2068481  13.6761227  23.8648987  71.4827499  13.9383631  23.2964344
  72.2740402  14.3817863  24.5081367  15.0558290  21.3382339  71.4245453
  15.9722176  21.5758610  71.5659561  14.5590525  22.0609074  71.8081894
  60.5822372  46.0766792  59.2930832  60.8371429  46.9449501  58.9810600
  60.5096970  45.5482979  58.4982376  50.2669945  16.0735378  40.1163483
  50.8950615  15.8396301  40.7997589  49.5428619  15.4590998  40.2360764
  47.0798454  67.3612289  57.4711990  46.7356300  68.1909714  57.8017654
  46.3468513  66.9702911  56.9956856   8.3951054  22.1709328  20.1293545
   8.7911425  21.9162140  19.2959843   8.0055628  23.0281906  19.9573135
  33.9696426  39.0578194  24.0505962  34.3228607  39.1878929  23.1705112
  33.0887489  38.7121620  23.9064636  57.9735603  61.9702072  15.4222536
  57.4977379  61.4285316  14.7926435  57.6726532  61.6635513  16.2776184
   1.6006615  13.7669687   0.7692179   2.4021997  13.5187063   0.3086374
   1.4738916  14.6898108   0.5489374  50.1261635  44.9936867  12.4230185
  49.9742737  45.8123436  12.8952036  50.3896599  45.2689819  11.5449457
  68.4466782  15.8597383  37.8281593  68.2916565  14.9151793  37.8310814
  67.9532394  16.1811047  37.0735283  60.2913551  20.9220581  57.4945564
  60.6986389  20.5481834  58.2759476  60.8782082  20.6784039  56.7786903
  80.4712296  48.1820831  79.9731598  80.3897018  48.4521561  79.0584717
  79.8917007  48.7756424  80.4507141  73.0565491  67.8934555   0.5893802
  72.2210770  67.5410919   0.8960747  72.8167801  68.6622009   0.0719128
  35.2074661  49.9183197  79.5622101  35.1346245  50.6853485  80.1301880
  34.9698219  50.2406387  78.6928024  86.9593277   3.5454493  82.6283035
  86.3414841   2.8225081  82.5194016  86.6813965   4.1970673  81.9845810
  81.2085953   5.5011234  74.7005310  81.5602112   6.1186614  74.0592422
  81.2691650   5.9634752  75.5364685  29.5149364  35.6509209  12.9805727
  28.6237755  35.4089890  12.7285156  30.0385494  34.8739624  12.7846212
  34.8733521  63.7945786   2.2290835  35.6564369  63.3437157   2.5448930
  34.2697220  63.0899124   1.9939051  29.4764385  63.0011711  45.0513954
  28.6562805  63.4926605  45.0065193  29.2058048  62.0830269  45.0506172
  16.1482677  29.2199593  17.8366127  16.0051384  28.8129082  18.6910458
  15.7162933  30.0716610  17.9016838  85.7822723  21.4417534   7.1311808
  85.3834610  21.5414162   6.2667470  86.3086700  22.2331028   7.2447729
  68.6036835  60.7849236  50.6995316  69.5011139  60.9802742  50.4299240
  68.2714844  61.6136665  51.0445786  63.2724457  18.9221115  26.9131584
  63.2529182  18.6103897  26.0083485  62.6454391  18.3634796  27.3725300
  69.1294174  39.0474052  36.4839783  69.3003540  38.3467293  37.1133194
  68.8131180  38.5950356  35.7019615  55.4582481   8.8609266  27.4630394
  54.9275665   9.0276604  28.2420197  55.2092781   7.9785490  27.1879845
  37.5544853  47.6059113  44.8633728  38.1260033  47.2571068  44.1793137
  36.7704468  47.0583191  44.8226929  15.5800161  12.9272518  10.1063156
  16.0583096  12.8377829  10.9306107  16.0600872  13.5993881   9.6225824
  56.3331680  26.0534172  77.8352814  56.5194397  26.7368279  78.4790878
  55.3866577  26.1022110  77.7012405   7.5792356  35.9712067  88.3173676
   7.8189669  36.4315987  87.5131302   6.6341825  35.8378601  88.2443924
  10.3880997   5.6895037  75.1231384  10.1787291   4.8378558  75.5066681
  10.0522060   6.3256421  75.7545929  77.1967010   0.0338671  40.5679855
  77.4437332  -0.4977471  39.8112869  77.8460999   0.7367647  40.5891457
  64.5964813  55.5427322  64.5001297  63.9154015  55.3139343  63.8676643
  64.7954407  56.4607925  64.3162537  85.5601273  61.9297333  72.1954880
  85.7986374  61.3514824  72.9200439  86.3099976  62.5171051  72.1010056
  72.8342056  52.4449539  86.6192322  72.8342056  53.0606499  85.8863220
  73.2709885  52.9167366  87.3283691  17.9327450  66.1224670  14.4320736
  17.6062107  66.5438690  13.6370735  18.2626915  65.2743301  14.1353636
  12.0357523  52.0536575  13.1796608  11.6807709  51.9915276  14.0664310
  12.8516369  51.5541840  13.2127390   5.7372451   0.4118392   2.1440670
   6.5722179  -0.0499834   2.2200401   5.5982347   0.5018433   1.2013013
  81.2347031  50.4287300  29.0484276  82.0388184  49.9741745  29.2994328
  81.1723251  51.1612434  29.6614246  60.7763481  11.1623573  44.3076782
  61.3727188  11.7479715  44.7741852  60.7691650  11.4935741  43.4096375
  63.2491112  40.4232750  78.4004822  62.3303032  40.2105942  78.2367935
  63.2754135  41.3800621  78.4102783  86.4976196  68.4357605  55.6936188
  86.5369339  68.2303314  54.7595520  87.2105103  69.0593872  55.8319054
  40.2392960  40.2068863   1.2404299  40.3379250  40.3686447   2.1786933
  39.2983093  40.2822456   1.0820084  37.0415039  66.4049072  11.7912903
  36.1228447  66.1568909  11.8951483  37.0154762  67.3391571  11.5846043
  55.6969872  54.0257568  74.9724808  55.2649040  53.2837257  75.3954773
  56.5696449  53.7005043  74.7513275  12.4745731  31.9589672   7.5532589
  11.6475563  31.7529602   7.1175575  12.3974733  32.8835716   7.7886229
  41.9392624   0.1929140  51.1111412  41.8611565  -0.5522141  50.5153923
  41.1906776   0.7498775  50.8974915  68.0314560  67.6474991  73.8134613
  68.9204330  67.7220840  74.1604309  67.5036774  67.3740158  74.5637131
  53.6252975  16.0739098  87.6979980  53.7672691  15.1440029  87.5209427
  54.4988022  16.4184284  87.8838272  80.2912674  11.9114723  51.4857445
  79.9371567  12.3844900  50.7326927  80.4587402  12.5912933  52.1384544
  41.4883041  44.0798378  11.7382336  41.1460915  43.4756584  11.0793781
  42.4152336  44.1737328  11.5186491  13.0243578  43.3256111  49.8354416
  13.5690346  43.5339966  50.5944786  13.5353870  43.6265068  49.0840797
  37.7005157  17.6969967  12.4755211  37.7219772  17.0808430  13.2077274
  36.7722931  17.7748299  12.2551184  62.8890648  24.0595188  80.7332916
  63.7821274  23.8157940  80.9767456  62.5715370  23.3196182  80.2156525
  69.9669876   3.1649663  22.4141369  70.8380203   2.8359854  22.6361809
  70.0224609   3.3803592  21.4831371   2.4914193  59.9714165  83.8865128
   3.1040709  60.0291481  83.1533279   2.2340939  60.8777504  84.0555496
  86.3580475  41.8907776  36.7508049  85.5077744  41.7684898  37.1730881
  86.8403702  41.0874557  36.9464302  10.9133730  49.4663658  47.0050354
  10.0672979  49.2615013  46.6070175  10.7341127  49.5001831  47.9446907
  69.0900040  56.8443184  42.3951683  69.9701462  57.0490303  42.0794487
  68.5248642  57.4823837  41.9595909  61.4149475  41.3131943  84.0604019
  62.0640411  42.0017586  84.2045670  61.3801918  40.8390541  84.8911896
  18.6974182  36.3612137  75.1001663  18.2072735  35.9921722  75.8348770
  18.0269661  36.5947189  74.4581375  85.8036423  17.6215096  49.3068962
  85.2253418  17.7102909  48.5493164  86.3555984  18.4030704  49.2797699
   5.2599325   7.3753681  62.3903961   4.6733456   7.5238070  63.1320915
   4.7958732   7.7465525  61.6399956  18.4379253   0.8033520  17.2859936
  18.7548904   0.2159628  16.5998898  18.5454922   0.3052478  18.0962734
  38.1747704  62.5075684  18.3546829  38.6102982  61.6675224  18.2102184
  37.2559662  62.3402100  18.1448650  65.1260147  12.9787331  45.4501343
  64.2963028  13.1485186  45.0040588  65.2083664  13.6924973  46.0825806
  65.3172989  29.1379375  47.3647919  64.5562363  28.6252747  47.0924110
  65.0063782  30.0432091  47.3713684  73.9974899  47.7060623   7.9906220
  74.3265762  47.3488007   7.1658216  74.6936874  48.2887459   8.2939701
  56.7834702  33.4971924  85.2967758  57.3540955  32.8323708  85.6822968
  57.3325844  34.2789841  85.2375107  52.6301003  62.7265396  69.9269562
  52.8372612  61.8734207  70.3084030  51.8101616  62.5846481  69.4538803
  49.4230270  38.5513115  82.0244446  48.8215256  38.9113998  82.6761856
  48.9162788  38.5377274  81.2125015  66.8321915   4.5446529  21.2927246
  66.5674820   3.9031584  21.9520016  67.3555450   4.0433908  20.6673717
  42.1773338  26.5097008  12.0006685  42.6836357  25.7384872  11.7454863
  41.3736877  26.4503078  11.4840860  36.1950912  46.5723381  59.1512184
  36.1943130  46.9447823  58.2694473  35.2685738  46.4709091  59.3691940
  69.6198120  15.1389313  71.1966858  69.2146759  14.3403797  71.5349274
  70.5470657  14.9182892  71.1086273  84.5980072  39.1536980  75.2866592
  83.8518448  38.5541840  75.2788925  85.1610718  38.8445091  74.5770187
  22.9792690  64.8832321  18.5423660  22.5817528  64.2789230  19.1692772
  23.5330524  64.3284531  17.9930286  32.2702599  39.3807716  84.9615021
  31.7311363  39.1993866  84.1916504  33.1471672  39.0871811  84.7143784
  49.5878868  19.4862766  62.4897461  48.7041740  19.4286976  62.1264725
  50.0890236  18.8298492  62.0058060  79.1774673  23.6032925  52.8650818
  79.3887253  23.0670261  53.6292953  78.4325714  23.1595135  52.4595947
   9.1272936  36.6846581   4.9868069   9.4722338  37.1579437   4.2296739
   9.0310335  37.3540649   5.6641994  65.7409363  18.9319820   8.4702711
  65.5263062  18.2975254   7.7864342  65.5295639  18.4827557   9.2886543
  76.8251343  30.9704704  35.6050339  77.2706070  30.5575562  36.3448181
  75.8954468  30.8069057  35.7636642   7.5861464  53.3556900   3.5415564
   8.2684965  53.6660118   2.9462998   7.2401843  54.1517296   3.9451163
  48.1760521  59.1203842  31.5044022  47.4796486  58.4749947  31.6257591
  48.8201180  58.9076347  32.1797905  78.4790955  44.3468285   4.2404137
  77.6198883  43.9255905   4.2637439  78.9968719  43.8021317   3.6475816
   0.8085483  33.5454636  78.0990906   1.5032631  33.7458572  77.4718399
   1.2704831  33.2254448  78.8739700  44.6883621  22.6391678  59.2047195
  44.7916985  23.2517281  59.9329529  45.3856583  21.9958973  59.3320503
  68.8542709  27.5109177   1.5156958  69.0538712  27.8991642   0.6638417
  67.8988113  27.5305939   1.5699184  27.6211720   4.3522491  68.6912766
  27.4969006   4.0110078  67.8056412  26.7377319   4.3964458  69.0570755
   7.2929053  64.8064041  17.2581291   6.9973359  64.7420807  18.1662769
   7.9787817  65.4738464  17.2761803  81.5169144  38.7601776  32.9780045
  82.0428772  37.9705811  32.8509941  82.1290207  39.4816170  32.8327866
  86.9371185   7.7056875  62.0707169  87.2296371   7.5949063  62.9753685
  86.0944061   7.2532067  62.0343704  52.0562134  35.4205933  70.6413574
  52.3953438  35.1311188  69.7943497  52.3279381  34.7374344  71.2542953
  74.7508011  12.1472654   8.1744804  75.5418320  12.5648403   7.8337040
  74.2877197  12.8489447   8.6321239  55.3042374  53.0098152  28.8651695
  54.4515953  53.4443016  28.8865929  55.7609787  53.3403244  29.6387215
  53.4647751  25.6250610  75.4886093  53.5925980  25.8909054  76.3992233
  53.0637321  24.7578430  75.5463104  23.2123108  14.5159082  73.4337997
  23.8954411  14.6380892  72.7745285  23.0076084  13.5816050  73.3962784
  85.8321304  46.0708885  41.6269264  86.4340210  46.5949707  41.0984421
  85.1768494  45.7574081  41.0035706  32.7831879  36.7619553  63.5958786
  33.5446281  36.2424850  63.8539314  32.0496483  36.3586922  64.0601273
  30.1710644   5.5922065  79.4238663  29.9387989   6.4507780  79.7776184
  31.0790386   5.6891017  79.1367722  16.0146656  48.6098633  15.9548588
  16.5417500  48.2568436  16.6716499  16.2394867  48.0644379  15.2010708
  29.5734329  39.2749405  42.2426796  30.3987103  39.4594955  41.7942467
  29.4011784  40.0613060  42.7605515  72.5001755  48.8801498  21.6586304
  72.7768860  49.4016037  22.4121227  72.5631561  47.9734001  21.9587555
  84.8826218  50.3883591  32.8102455  84.5320053  50.8012848  32.0210686
  85.5411453  49.7736931  32.4865723  23.6467323  51.1311722  34.3262787
  24.5125504  50.7582512  34.1603851  23.5722198  51.1484909  35.2804184
   1.2018752  20.4503975  12.8952761   0.3290983  20.1654091  12.6245842
   1.6865022  19.6370277  13.0359888  58.2735710  15.3634920  36.7466049
  58.8912239  15.1972456  36.0344963  57.4110298  15.2667961  36.3429909
  21.8402386   0.7664954  66.1940689  21.0034504   1.0951778  65.8654633
  21.9628277   1.2166827  67.0298538   1.6407127  66.1778793  56.7846336
   2.3309548  66.4879150  57.3708725   1.5705348  66.8591385  56.1159096
  42.0061035  69.8450394  53.0079079  41.1148758  69.5448914  52.8294220
  42.0951157  70.6489639  52.4960365  73.5566788  66.3118362  38.4424171
  73.9157944  66.8555679  37.7412529  73.6459808  66.8476028  39.2305908
  23.2921944  68.7322540  20.7408028  22.5907803  68.1393738  21.0105095
  23.7553558  68.2571411  20.0508862  18.2336674  55.3184700  60.7888680
  18.2747536  54.4102020  61.0881958  18.2673149  55.8372765  61.5925713
  31.3953533  46.8641891  66.0021591  30.5753403  47.2620468  66.2945938
  31.7929459  47.5245552  65.4346466  79.7646103  19.3165417  20.9667702
  80.5141983  19.8066540  20.6289272  79.0010147  19.8080902  20.6642303
  62.4624290  63.2814064  44.6903496  62.6695480  63.7343559  45.5077667
  62.6522179  63.9232941  44.0061073  58.7622910  71.6971054  48.9884033
  58.3878632  71.3024368  48.2008324  59.7087860  71.6461868  48.8550377
  77.5473099  15.7320986  33.6002808  77.2940598  14.8523474  33.8798065
  78.4982224  15.7531023  33.7077255  86.8226852   7.8497086  67.8119354
  87.1629257   7.2208180  68.4483032  86.0241928   8.1903210  68.2152023
  86.1598892  18.0405636  69.8949585  85.7875595  18.6975441  69.3067627
  85.4541702  17.8429203  70.5106964  51.8464928  55.6412163  38.3536758
  52.5430679  54.9862404  38.3985672  51.0399933  55.1293221  38.2924080
  83.2678986  54.5903130  61.2032166  83.6766281  54.2763062  62.0097961
  82.3316879  54.6110725  61.4014778  10.8716202  48.7255096  37.4314728
  10.6666718  49.1259727  38.2763710  11.1212721  47.8268356  37.6466331
  66.5675201  39.6826401   5.7225080  66.2066803  39.2313385   4.9593883
  65.8459625  40.2228127   6.0446744  44.6414375  45.9537010  77.6854553
  44.5705833  46.4918175  78.4738998  44.3517189  45.0843239  77.9619980
  51.5655327  69.1959381  42.8559418  51.7341919  68.5152817  43.5074730
  51.9860268  68.8738022  42.0586700  69.3920898  23.8818817  56.0685921
  68.6862488  23.4735489  55.5673027  69.3746490  23.4347134  56.9147415
  45.0948448  38.4536972  64.2495422  45.9625816  38.3877640  64.6481934
  45.2554092  38.8408623  63.3889923  71.8428879  50.3147163  10.2494535
  72.1078415  50.8389587   9.4936752  70.9234543  50.1052475  10.0851755
   8.8504801  29.2677174  10.7533760   9.3817987  28.5343952  11.0634890
   9.4839001  29.9611950  10.5687132  17.4854851  64.8380280  17.6616421
  18.4142284  64.9986420  17.8285847  17.0869617  65.7082977  17.6681728
   0.7401913  12.3212500  21.5369530   0.8257119  13.2150383  21.2052021
   0.9024772  11.7661190  20.7742443  64.5820007  10.7068071  12.9706793
  63.8903847  10.4512062  12.3602962  65.3066635  10.1132603  12.7737226
   6.3815913  45.7833328  43.3703308   6.3259640  46.2104683  44.2251358
   5.4712648  45.6897354  43.0896568  64.3359756  65.4199524  64.2964401
  64.1899109  65.9498367  65.0800934  63.4644432  65.3088760  63.9165497
  11.4242496  55.2889214  28.2738266  12.2327557  55.7336121  28.0192719
  10.8871593  55.9758644  28.6686325  23.8906765  42.7841797  45.2789307
  23.0622559  42.9466286  45.7301102  24.5608730  43.0814018  45.8943405
  85.9056702  33.2827148  20.0096169  86.5574341  33.9338188  19.7498226
  85.6931076  32.8199844  19.1991043   9.5124626  34.4121666  63.7709084
   9.1114407  35.2801323  63.8161697   9.1946678  33.9604340  64.5526810
  85.5753250   3.8953857  39.1741486  86.2401886   4.1422067  38.5312843
  84.9994278   4.6580586  39.2279854  60.6311684  52.6360092   6.2633967
  59.8026886  52.9621544   6.6147957  61.2340164  52.6639137   7.0063829
  69.1986160  44.2917786  16.1032619  69.0577469  43.3471298  16.1667233
  69.3012848  44.4561920  15.1658936  66.3355637  54.3260078  18.6626720
  66.3006134  53.7110291  19.3953438  66.3409500  53.7701340  17.8834362
   1.3195853  27.1522751  63.8440094   1.0129958  27.8287792  63.2402077
   1.5643845  27.6310883  64.6358719  -0.2054929  29.3826313  42.7971497
  -0.1687632  28.7510643  42.0788155   0.4754095  30.0222912  42.5887299
  23.9751892   9.3856869   2.6921940  24.8516560   9.7093487   2.9002347
  23.3907337  10.1036177   2.9355466  59.3737297  69.8273010  63.8687515
  58.5272713  69.3808060  63.8884888  59.5449028  69.9751434  62.9386597
  51.1336098  24.4811268  52.3921585  51.3627090  25.4064503  52.3054352
  50.4088707  24.4713993  53.0173721  72.2307663  17.6794128  66.3467941
  71.4404221  17.1909351  66.5769577  71.9111710  18.4297085  65.8456421
  76.7697754   1.0623770  57.2419891  77.1940842   0.9967154  56.3864899
  76.2933273   0.2376296  57.3369675  60.1994362  50.8319130  32.9001427
  60.2235069  51.6700706  32.4384651  60.7795410  50.9555473  33.6514244
  71.3231583  28.3892422  20.4956589  70.7932816  29.0950947  20.8661194
  71.9729843  28.1973953  21.1717911  62.1018639  56.8797798  59.1357536
  61.2521362  57.2876587  58.9689369  62.1004639  56.0922546  58.5916672
  37.3929482  59.2676544  28.6557064  37.1726456  58.6253204  29.3303204
  37.0514259  58.8902931  27.8450336  14.2948360  60.5237160  62.8548164
  14.0824213  60.2873039  61.9519196  14.6144123  59.7108383  63.2463913
  73.8682785  54.1018448  88.6925583  74.7682343  54.3837013  88.5286331
  73.5313950  54.7336082  89.3278656  55.9471779  54.8579941  63.6377754
  56.7378006  54.9087563  63.1005859  55.8676300  53.9303055  63.8598099
  81.1583252  41.7222481  69.1098633  80.5733948  41.7345238  68.3522720
  81.0654526  40.8402138  69.4698944  45.9152260   4.9925237  40.6175079
  46.4260101   4.2790728  41.0000229  46.2540169   5.7823653  41.0389366
  11.8350840  19.0588856  74.0442505  11.2653484  19.3364868  73.3269119
  12.6147184  18.7121544  73.6104507  35.7385483  57.3241043  82.6819839
  35.2803574  57.6053429  81.8900223  36.4241104  57.9801598  82.8078079
  84.5843735  39.3093948  63.7892303  84.8995514  38.5154076  64.2210693
  83.8778839  39.6243515  64.3530502  66.8011703  38.1584320  76.8452835
  66.4654846  38.4753532  77.6837997  66.7050171  37.2072601  76.8928833
  40.1769333   0.8353513  17.1066055  39.4408302   1.0903862  17.6627922
  40.7963905   1.5612395  17.1813927  78.1795731  56.7878494   8.9736786
  78.0611954  55.9152565   8.5984392  77.9793472  57.3869972   8.2545395
  38.8124428  47.4001312  82.2771835  39.6052666  46.8717422  82.1851807
  38.6458740  47.7373466  81.3969727  50.6404762  39.2776146  86.6500397
  50.5052605  39.1915970  87.5937347  49.9855728  38.6983337  86.2604675
  78.2359009   4.6492910  34.7265854  78.2774506   3.9343467  35.3616943
  79.0325546   5.1560593  34.8839684  10.4202013  37.3570175  36.2222099
  10.5967464  36.5309753  36.6724510  10.4231901  37.1285515  35.2926788
  23.2161217  70.9278336  87.0903931  23.9948025  70.3751526  87.1569977
  23.2078514  71.2211990  86.1792984  67.5125809  63.7618866  59.4316330
  66.7297516  63.9144592  58.9023628  67.1813049  63.3814049  60.2450981
  50.5752983  48.4946251  19.0482502  50.2093506  49.2212753  18.5439758
  51.4936676  48.7314339  19.1776695  75.8300781  26.7686367  51.1287766
  75.6374588  26.0253677  50.5572205  76.6789246  26.5579815  51.5177612
  59.7555923   7.2599831  50.7771454  60.6345367   7.2525444  50.3981514
  59.1707535   7.3441815  50.0240822  69.6023254  38.5126534  49.4352531
  70.2104111  39.1054955  48.9936638  69.9146576  38.4790764  50.3394394
  13.7843685  44.9374504  25.9770927  13.6338072  44.0612717  25.6223049
  13.2409039  45.5111923  25.4370041   3.6320984  21.2451859  73.0809097
   3.5713601  20.2974129  73.2003632   3.3337910  21.3930912  72.1834869
  70.6617737  43.1288948  71.4371490  70.1858597  43.5270500  72.1659851
  71.3998108  42.6801567  71.8496475  34.1319199  64.8886414  66.1082382
  35.0711021  64.9345093  66.2873077  33.9649887  63.9610558  65.9410553
   2.0171254  57.1976700  52.9002304   1.3104993  56.6837997  52.5092697
   1.6530015  57.5160980  53.7262154  70.8091125  53.0449905  19.4996319
  70.1182404  52.6801834  18.9466000  71.5735321  52.4974747  19.3204041
  43.0049973  63.8389969   7.4986148  42.6187859  63.0636139   7.9058619
  42.4903564  64.5703201   7.8400087  42.5060272  40.5474548   3.7124798
  43.0042953  40.1178017   3.0172415  42.9384651  40.2736778   4.5213532
  58.7702179  54.3326797  32.7283669  59.2287674  54.7061424  33.4810219
  59.4569778  54.1868134  32.0777397  16.1744442   1.3629845  71.6491547
  16.0308990   2.1328197  71.0987167  16.1704140   1.7039356  72.5435638
  26.6057186   2.5125618  18.4139977  27.1600227   2.1713746  19.1158295
  25.9369850   3.0273035  18.8657360  80.2896194  45.3155098  60.2747383
  79.8124466  45.9282150  60.8343163  79.7958755  45.3056755  59.4547691
  60.2259293  54.5935440  77.5914230  60.6527863  54.0671539  78.2673950
  59.2897224  54.4600563  77.7395096  71.0997543  56.6885948  68.7813950
  70.3146820  56.1686020  68.9531403  71.5396957  56.2290535  68.0662003
   8.9456768  46.4167900  54.5963821   8.5207434  46.8847084  55.3152084
   9.5576048  47.0524979  54.2253685  59.0293694  13.0432186  38.5995750
  59.5870628  12.8441629  37.8475227  58.7320671  13.9401188  38.4465599
   6.0448594  68.9747009  76.8895950   6.1464806  68.1155014  77.2990952
   5.0990329  69.1205750  76.8705292  75.7891617  18.4683933  25.9328194
  76.0022278  18.9631519  25.1415844  75.7281952  17.5597725  25.6379948
  35.2511978  31.3558044  66.7460938  35.2714195  31.8784752  67.5477371
  34.5163536  30.7551250  66.8702774  64.2308197  58.2630997  10.0771570
  64.4400177  59.1495705  10.3714962  63.4032669  58.0556679  10.5111628
   9.8713818  42.2659492  17.0956039  10.5360861  42.5194855  16.4551983
   9.9259510  41.3110046  17.1321754  47.4775925  14.0133514   2.0289347
  46.6233406  14.3818541   1.8037864  47.3387337  13.0662899   2.0239735
  40.6056671   2.7113643  54.4062996  40.4383202   2.1035113  55.1265373
  39.9717484   2.4649706  53.7327499  25.1671181  29.2095222  82.8414154
  25.3765392  28.8197613  83.6902161  24.2522564  28.9731445  82.6884918
  76.9771423  13.2775335   2.5707014  77.0673065  12.5239429   3.1539712
  76.2547760  13.0440722   1.9876779  35.3904724   2.3515618  10.4566393
  36.3270683   2.1540673  10.4610138  35.3408737   3.2714219  10.1965828
  71.4598999  56.2953148  36.5887985  70.8695145  56.0345688  35.8819160
  72.3236389  56.3326721  36.1779518   2.6412568  61.0783119   0.9740503
   2.5604572  61.9398193   0.5647690   3.0843413  61.2486382   1.8052527
  55.3145638   1.6763420  21.2450485  55.0942764   2.5430167  21.5864887
  55.6681290   1.8457040  20.3718128  64.2311401   2.9354184   8.0655880
  64.9166718   2.6604178   8.6743937  63.7592812   3.6253772   8.5319986
  69.0948105  31.5212860  55.8589287  68.7327347  32.3513603  56.1689453
  70.0152206  31.7135201  55.6796761  86.3534088  52.3572807  11.3534632
  86.3756027  51.9727135  12.2297325  86.3993759  53.3012962  11.5049658
  76.9633255  49.9517250  52.4742393  76.1479492  49.4938087  52.2700310
  77.6473007  49.2968712  52.3343430  61.7562943  57.6767006  11.6465063
  62.1371269  57.2712669  12.4254942  61.1459656  58.3291206  11.9901371
   8.4185658  36.1147842  26.1833191   9.2102785  36.5697136  25.8961525
   8.1899166  35.5451317  25.4488487  42.7821350  48.0968475   8.1599350
  41.8915596  47.9681282   7.8335271  42.6848221  48.7154694   8.8838596
  75.1349411  48.1086807  75.5837555  75.9313736  48.3188210  76.0713654
  74.4274445  48.4859200  76.1065979  76.6695709  62.6577606  41.2786484
  76.0912323  61.9717865  41.6120987  76.2399979  63.4757538  41.5288162
  12.7014856  53.2839622  30.3459167  12.2560463  53.8530884  29.7182922
  12.5199623  52.3968430  30.0355949  28.1681061  69.1107635  67.5292664
  29.1113129  69.0732956  67.6879807  27.9264297  70.0139847  67.7342606
  86.5732651  63.4557228  36.4287186  87.5122757  63.5554276  36.2720566
  86.1770554  63.5227394  35.5599480  83.2213135  20.0528240   3.1680276
  82.7438507  19.7729950   3.9490261  83.2034454  21.0090961   3.2061851
  73.0961685  68.0743484  36.3159904  72.2650299  68.1776123  36.7794266
  73.2791824  68.9422455  35.9561348  49.5990906   9.1945257  66.7056808
  49.9612923   9.8706131  66.1330185  50.2818947   8.5250015  66.7474442
  11.0208187  51.7553482  15.7309055  11.2277861  50.9958115  16.2754211
  11.2523499  52.5092087  16.2734184  27.0890617  37.1003418  77.3648682
  26.2418251  36.7823792  77.6768341  26.9787617  37.1861992  76.4179306
  27.2936363   3.7446074  65.7489014  26.5073795   4.2377853  65.5147934
  27.0406628   2.8272698  65.6453323  41.0681686  31.4587746  57.0563583
  40.2878075  31.9074097  57.3819313  40.9718513  31.4712734  56.1040993
   8.4834852  40.7467346  10.0424852   8.7732658  41.0404053  10.9062080
   7.5301666  40.6979790  10.1134710  85.3247299   3.2163701  68.4464493
  84.6420975   3.7585359  68.0510941  85.4307480   3.5707760  69.3292770
  82.3129883   0.8525960  82.5249023  82.5800705   0.7489486  83.4382248
  81.9007111   1.7158449  82.4924088  85.9032593  41.3497887   9.2821875
  85.5376663  41.0193863  10.1028032  86.5903168  41.9583511   9.5539236
  65.2597656  66.5362701  74.5600967  64.4895096  66.0580444  74.2531281
  65.0466309  67.4568863  74.4075241  32.4848404  60.3990669  42.7704010
  32.2855186  61.2975845  42.5073967  33.4196663  60.2987099  42.5907784
  32.5159569  41.0043297  12.2330713  33.1188545  40.3703728  12.6214657
  31.9507389  41.2723198  12.9575987  23.0630169  49.2431412  81.3956833
  22.2387600  49.1379356  80.9205322  23.6333466  49.7105026  80.7853241
  36.9814644  42.0865669  72.1945190  36.8022728  42.8232079  72.7788925
  37.0629807  42.4832153  71.3271942  48.6060638  39.0893745   5.6951213
  49.3872757  38.6015587   5.4343915  48.7941895  39.3844261   6.5860682
   7.3777909  49.3348465  72.0725021   8.2121553  49.3008041  72.5403824
   6.7547784  48.9108276  72.6626740  75.9830627  43.7093010  83.9916000
  76.0317917  42.8464508  83.5800781  76.8364563  43.8237801  84.4097290
  28.0921745   7.3938241  15.7838097  27.3826580   7.5106554  15.1520100
  27.8219757   6.6420298  16.3110943  82.0132217  23.4637833  19.4696541
  81.3961792  24.1891441  19.5662937  82.1708298  23.1625805  20.3644543
  70.3157578  17.5854950   6.2255001  70.3987274  17.7652416   7.1620045
  69.7883759  16.7879524   6.1804919  53.3460045  64.5041809  22.1232281
  52.5406113  64.0915222  21.8113194  53.0773735  64.9988632  22.8974113
  38.6699677  39.8358192  38.4324341  39.2538681  39.2082901  38.0064049
  39.0548019  39.9713936  39.2983170  56.0685043  34.9054031  50.2986794
  56.2951927  35.4064827  49.5152473  55.7357216  34.0731621  49.9627266
  37.4482956  61.8790359  27.4985428  38.0134583  61.4888306  26.8317909
  37.2484512  61.1576843  28.0951557   1.9363039  27.9525490   8.9348068
   1.5406477  28.8127575   8.7943478   1.9832937  27.8630657   9.8866558
  65.0468521  31.2483406  42.3682098  65.7146378  30.9558735  42.9884949
  65.3033447  32.1429329  42.1442719  64.9699554  26.0510330  34.4900589
  65.8290710  25.7994385  34.8289490  64.5697861  25.2259789  34.2154922
   4.2202191  40.2312889  50.6247406   3.7361584  40.9900627  50.2988968
   4.5683875  40.5143471  51.4702530  36.1297874  41.6773148  67.2513046
  35.2344475  41.6866570  67.5896988  36.0804062  42.1658821  66.4296646
  31.7572498  36.3316498  77.5698318  31.3816090  35.5998802  77.0802994
  31.6470814  37.0874519  76.9928894  21.1400356   9.4242725  34.4039268
  21.9816418   9.2557030  34.8276138  21.3581467   9.9646997  33.6445847
  10.0175552  40.2650490  75.3228531  10.3038321  39.5064201  74.8141708
  10.6363354  40.9571228  75.0896606   3.7184975  47.6532860  73.3691788
   4.1298966  46.8292961  73.1083679   4.2959399  48.0054245  74.0465164
   3.4621410  31.5957756  45.0526161   3.3795061  30.6519241  45.1888084
   4.4049745  31.7463017  44.9845047  12.2911520   2.5037079  12.4925489
  11.9970760   1.9928113  13.2466946  11.4833431   2.8179166  12.0864077
   4.0764751  49.7916374  46.5595818   4.4525037  48.9230118  46.7021370
   4.6190195  50.1775780  45.8718834  72.4325333  67.7061081  13.4364996
  71.5353241  67.8480835  13.7382984  72.9300766  67.5355225  14.2362394
  39.1872520  61.9175720  66.2391052  38.8647156  61.9932709  67.1371384
  38.4910965  61.4548111  65.7727890  31.7439651  36.0101814  52.4694366
  32.0192337  35.1098747  52.6423645  32.5324364  36.4430122  52.1420212
   5.1566014  49.8127708  38.0730896   5.8837061  50.3298302  38.4197884
   5.4409366  49.5581207  37.1952858  12.2183743  57.1624336  68.3759384
  12.7544994  57.3845024  67.6147003  11.8864756  56.2846603  68.1872864
  31.9847183   1.4759525  12.8102617  31.6669674   2.2549286  12.3536854
  32.9270782   1.4677502  12.6425676  46.9853058  71.2612686  47.8886909
  47.1885033  70.3457565  48.0804749  47.5046616  71.7592087  48.5200081
  17.3808022  54.0776291  36.2250595  16.6957836  54.2344246  35.5751381
  16.9275608  53.6520576  36.9528580  11.8616972  46.2556343  38.5861855
  11.9220753  45.3029594  38.5154762  12.7714920  46.5524521  38.6062775
   2.6023080  69.3972168  31.1098843   2.7095006  69.7905350  31.9759331
   2.0130138  69.9931412  30.6474590  37.5060768  43.3777924  79.4767303
  37.6779861  43.7968102  78.6334610  37.2403641  44.0958328  80.0512238
  43.4910736  15.1290989  83.3217773  44.0631676  15.5561275  82.6841354
  44.0704498  14.9021206  84.0491257  27.5680962  63.8979683  60.2575760
  27.7874794  63.2741165  60.9496117  28.2853031  63.8198395  59.6284981
  48.0122795  26.5329895  43.7491302  48.6613770  26.8952980  44.3521576
  47.6983643  25.7398262  44.1833916  29.8765030  59.2371864  26.5547161
  30.2995071  59.9171677  26.0303822  28.9394684  59.3803177  26.4216270
  13.1082811  63.1605721  78.8046112  13.6317854  63.0718842  79.6010513
  12.6856556  62.3081627  78.6996307  53.3926697   8.4868145  86.0796432
  52.6078033   9.0265684  85.9854202  53.5606079   8.1524601  85.1986008
   5.2124434  44.6451645  82.0184174   6.1492209  44.6362381  82.2148895
   4.7968946  44.8935471  82.8441696  82.4553299  30.7661743  32.6222916
  82.0179672  30.0899429  32.1049385  82.0609055  31.5866280  32.3264656
  41.8495026  54.4377670  59.7923203  40.9956741  54.1151772  59.5039711
  42.4692154  53.7692719  59.5002632  81.9575348   2.7858388  17.5103703
  81.1664352   2.2469628  17.5089569  82.3255081   2.6687753  18.3862247
   4.3461909   8.5005341  89.1586761   4.4688544   7.8843760  88.4365082
   5.1932254   8.9374876  89.2472000  64.5318756  50.2056351  13.8885841
  63.6523895  49.9184494  14.1340799  64.9152908  49.4496498  13.4439335
  60.7229385  50.8708000  65.9519653  60.4658127  51.7743340  66.1356506
  60.0675278  50.5572357  65.3287888  80.6849442  23.5486565  33.7100334
  80.8943710  24.2670784  33.1131706  80.2616577  22.8927345  33.1561165
  26.9186764  27.1015949  17.5504856  26.7252750  26.2031803  17.2827549
  26.2961655  27.2807827  18.2551880  14.6430187  31.8150177   9.4570475
  13.7426014  31.7184258   9.1469669  14.5539408  32.0806923  10.3723154
   5.9345899  60.4986229  44.5104980   6.1410613  59.5880089  44.2998276
   5.0628157  60.6382751  44.1407127  17.5418682  15.9853563   6.6173530
  17.5742931  16.6227264   5.9039526  16.7268372  15.5048094   6.4723392
  12.7462721  40.9808655  52.5784492  12.5704050  40.2978897  53.2256279
  13.6416769  41.2629852  52.7652435  57.6890106  46.2375031  77.2258148
  58.3878822  45.9141617  76.6572495  57.9229622  47.1495781  77.3979187
  79.7072906  68.5547714  24.0156593  78.8148422  68.7333527  24.3120899
  79.7862244  69.0342941  23.1910019  44.0574684  43.1200104  12.9373589
  43.7918587  42.2004204  12.9434357  44.3040314  43.2920990  12.0286093
  25.3757038  36.1293297  87.9692154  24.9593525  36.1453323  87.1074600
  24.7581863  35.6536560  88.5247726  46.6070366  59.4780121  61.7164993
  45.6650047  59.4240036  61.8773994  46.8457947  58.6077232  61.3973961
  70.8927612  44.6412315  86.1229630  71.1081543  45.5181847  85.8054886
  71.7070541  44.3199883  86.5102005  41.3643646  36.3755569   6.2584991
  40.4834671  36.1432419   6.5522361  41.2475662  36.6586075   5.3515968
  31.3555737  43.1224937  84.7434998  30.4717255  43.0601158  85.1056519
  31.3806267  42.4561157  84.0568161  61.2834778  13.0648050  80.1254654
  62.0531693  13.1408672  80.6893921  60.7287712  13.8034286  80.3763962
  57.1939240  47.2981758   3.4970117  56.9136505  47.1589661   4.4016109
  56.7669220  48.1144066   3.2368836  76.3894958   3.7815459   0.5067946
  76.7017059   3.3846726   1.3199664  76.4069748   3.0674415  -0.1303722
  74.6731567  27.2847214   1.8135663  74.2979355  26.4059181   1.7575257
  75.6140060  27.1376934   1.9106132  71.9146729  52.2971153  44.0973282
  72.7181244  52.5955429  43.6711388  71.3783798  53.0859947  44.1766357
  64.1600723  60.5191498  16.4490089  63.2107124  60.6293030  16.3959522
  64.3810730  60.7740288  17.3447914  19.5292053  26.8606071   6.9962883
  18.7420464  27.4002666   6.9229412  19.3769646  26.1319351   6.3945484
  23.8361626   5.2359705   1.0142021  24.2419395   5.6538577   0.2546319
  24.4339638   5.4226494   1.7380924  79.6499405  27.6837578  17.6662178
  78.8730927  28.1111259  17.3055248  79.3204498  26.8696499  18.0468712
   9.3525248  28.9883480  81.6671600   8.8246994  28.1933098  81.5926819
   8.9867935  29.4487667  82.4224701  23.3527317   4.0991640  16.4705238
  23.2946243   3.6852634  15.6093950  22.8953819   3.4967437  17.0571690
  76.3791122  58.6987801  10.3270378  76.9970016  58.0108299  10.0797205
  76.0008850  58.9905281   9.4975433  64.0706329   6.7238932  24.9671822
  64.3352585   6.4962549  24.0758991  64.0498886   5.8873343  25.4319096
  73.7948227  52.4259644  30.8771610  74.2368698  53.2085571  31.2063751
  74.0173264  52.3988037  29.9465771  45.7273064  27.5041847   7.7414622
  45.5431175  27.2972298   8.6576910  46.5310135  27.0231876   7.5441618
  69.2956085   1.3087640   3.7341580  68.6641006   0.6042187   3.5891073
  69.2982483   1.8008347   2.9131274   9.4782848  52.7971268  67.4675598
   9.4944563  51.8564491  67.6438980   9.1212521  53.1845207  68.2667389
  62.0037193  35.8479614  45.3663788  61.8099022  36.2793045  46.1986122
  61.2564125  36.0598640  44.8070374  83.7290573  31.6382332  37.3874245
  84.0058365  31.4838829  36.4842110  83.6603546  32.5903893  37.4574890
  16.2839947  48.6921310  82.7348404  15.8692560  47.8294868  82.7266617
  15.6001825  49.2895279  82.4319382  59.7774239  25.0231686  60.9149780
  60.4262161  24.4296150  61.2931213  60.2808723  25.7952728  60.6568527
  19.3250942  67.2595596  68.9454193  19.6942234  67.0542908  68.0864410
  18.5126076  67.7269745  68.7514725  70.5573883  24.0084686  67.8816071
  71.2795868  23.3805981  67.8605957  69.9664230  23.7170963  67.1872711
  68.3049240  42.4702530  81.7089081  67.6919556  41.9867439  82.2627335
  68.5521011  43.2318459  82.2334137  57.5643539  21.8126526  86.7567520
  57.6118164  21.5515022  85.8370895  56.6435699  22.0342693  86.8955917
  71.2824631  31.0696812  39.4176483  71.4689026  30.2283649  39.0009232
  70.3683701  31.0028896  39.6936913  55.7596397  16.2544212  21.4394016
  56.4817429  15.7424374  21.8036404  55.1069298  15.6016035  21.1863594
  64.2142792  35.2625046  75.0654907  64.8305511  34.5428047  74.9295807
  64.1507492  35.6881180  74.2104797  50.2007866  50.2662201  30.1667633
  49.2788162  50.5032730  30.2667751  50.5822716  50.9914894  29.6721058
  15.9557648  31.0992107  65.1236343  16.4265003  30.8802185  65.9278030
  15.6110735  30.2622261  64.8123856  53.0631447   0.6987603  30.8406048
  53.7212830   0.5752805  31.5245914  53.4943504   0.4061608  30.0376873
  20.3038540  46.7601166  69.1326447  21.0371666  46.2128601  69.4136963
  19.5285568  46.2216034  69.2912140   3.4924455  36.6867981  27.9993725
   3.5420039  36.7655029  28.9520435   4.1442733  36.0211067  27.7798100
  28.3834515  45.7327995  52.4511490  29.1288509  46.2772560  52.7044792
  28.0177937  46.1701126  51.6821976   7.2534256  44.7563438  70.6428070
   7.4247026  44.0551262  70.0141602   8.1138935  45.1382484  70.8159409
  60.3098679  44.8756218  75.9927139  60.8858948  44.1642876  75.7126694
  59.6546936  44.9408951  75.2979279   3.7491801  53.9660873  44.7378120
   3.2357762  53.2671242  45.1429024   4.5925941  53.9363480  45.1894760
  16.3036270  41.3967972  23.1911488  16.8137836  40.9447479  22.5191193
  15.5501165  40.8265877  23.3438416  46.7415009  62.4325790  68.8853836
  47.6556129  62.2472763  69.1005402  46.7547417  62.6539688  67.9542313
  27.9093990  22.7177162  85.1618423  28.2527428  21.9025326  84.7960205
  28.0962315  23.3773899  84.4938889  84.6839905  54.5395393  35.0163956
  83.7295151  54.4924850  35.0711746  84.9895172  54.1877441  35.8525314
  83.4071274  23.6436787  37.5492134  83.6893158  23.1973705  36.7508354
  83.5780106  23.0134354  38.2490883  71.2081451  50.3797188  63.1512794
  71.8288879  50.9014435  62.6426353  71.7296829  50.0186386  63.8681145
  57.8482513  61.7022057  88.7824478  57.0143776  61.2769012  88.9824448
  57.7483559  62.0141640  87.8830338  62.3192406  11.1703386  55.9452591
  62.6048775  11.6886330  56.6975975  62.5825539  10.2748671  56.1574554
  77.0114212   4.1617031  32.3382759  76.6216507   4.9222031  31.9070587
  77.3527527   4.5037050  33.1645737  12.5590134  30.8530636  50.5937996
  12.3116875  31.1171207  49.7076073  11.8622704  30.2574253  50.8694725
  78.2582474  28.8720207  31.6203842  77.8931503  27.9910164  31.7026310
  78.9801331  28.8917427  32.2486534  65.0199432  42.1998520  70.9359131
  65.7286530  41.7911568  70.4389954  64.7439041  42.9397774  70.3950424
  50.8271523  71.0935516  39.3270111  50.3801956  71.4353027  38.5526276
  51.0704880  71.8729401  39.8265800  38.3458824  43.3329697  55.6117554
  37.5947266  42.9597206  55.1505775  38.0621300  43.3909836  56.5240898
  67.2014694  35.9575920  11.3677912  67.5358429  35.8287506  12.2553892
  66.3375473  35.5455055  11.3751307  20.0845699  60.7334290  78.8466873
  20.4551086  59.8550224  78.7610321  20.8277912  61.2838821  79.0933762
  33.5829277  31.6684875  11.8527946  32.8708496  32.3054848  11.9111929
  33.2443161  30.8895817  12.2942476  83.6779251  35.5563622  55.3160629
  83.2457352  36.2747917  55.7779083  82.9597168  35.0431747  54.9458580
   3.7335472  19.2255859  82.4725876   4.4940777  18.9520416  81.9597473
   3.0482047  18.6003418  82.2367706  17.4456978  11.4396887   7.5732961
  17.6489429  12.1631660   8.1661739  16.9186783  11.8383474   6.8807983
  83.6359787   5.4833016  78.5867233  83.6795502   4.7129130  78.0203018
  83.3187866   5.1467676  79.4247971  61.6726608  43.2647858  88.6254959
  60.9690056  43.8442955  88.3334808  62.0164490  43.6840973  89.4143066
  45.4022522  28.2327194  43.3207130  45.7214432  28.7725677  44.0438385
  46.0262833  27.5087624  43.2686882  72.2615128  67.3884354  78.0431824
  73.0135803  66.8504868  78.2906342  72.3545837  67.5100937  77.0983200
  68.8957138   6.9744864  31.2862473  68.5581207   7.3083644  32.1173820
  68.4085922   7.4573460  30.6185741  23.8717842  29.0455856  87.2639008
  23.5767193  29.9000511  87.5786362  23.1653786  28.7436733  86.6928711
  62.9221077  34.1462784  47.2976875  62.8894424  34.7059441  46.5218430
  63.3564606  34.6820602  47.9613953  63.3718491  45.0500259  39.9859886
  63.5582848  45.9861870  39.9147072  63.4342041  44.7243462  39.0880585
   1.4593661  54.1161804  73.8945847   1.5042406  54.5307961  73.0330048
   1.0720220  54.7831459  74.4614639  86.2747955  25.8741150  50.9092598
  86.1714020  24.9606705  51.1760139  86.8472595  26.2548027  51.5752907
  45.9090919  58.0760612  80.8239594  46.6205864  57.4361038  80.8025665
  46.3372040  58.9028511  81.0461578   1.3504695   1.9408962  13.8833427
   1.8081537   2.0056844  14.7215309   1.0999467   2.8413954  13.6770144
  16.7011662  22.7656612  67.0625992  15.9819832  22.1418896  66.9630203
  17.0573940  22.5836620  67.9322052  31.1054897  37.6475716   3.9439950
  30.6400356  37.1686668   3.2582567  31.9354877  37.1807365   4.0409713
  54.1685791  71.5143661  54.4933434  54.0435371  70.8601608  55.1808128
  53.2861328  71.8314972  54.3011360  27.2788811   4.6856599  72.8573380
  27.6233349   5.5418954  73.1111984  26.4582329   4.6039820  73.3432388
  64.6189957  59.7101936  66.7969742  64.0725937  59.8005905  67.5776825
  64.7820053  58.7696266  66.7263107  83.2331772  57.3659477  33.2921181
  82.5880508  58.0555115  33.1354561  83.5246353  57.5106621  34.1923065
  37.6242523   9.2314796  80.3164825  36.9048004   8.9832754  80.8970108
  37.8898926  10.0989656  80.6216583  65.7128754  55.8364410  31.4906845
  65.9201889  54.9046631  31.4196301  66.1404114  56.1158752  32.3002281
  70.8131180  32.1078987  11.8422060  71.5825729  32.6747246  11.7885513
  71.0364914  31.3491688  11.3030720  46.7338448  71.4011765  73.0316696
  46.8799820  70.7035675  72.3927536  46.7438126  70.9559174  73.8789444
  84.8474808  28.2131920  10.2543306  84.0493698  28.1592903  10.7800159
  84.6284332  28.8208981   9.5479698  61.0677261   9.8676987  13.9655724
  60.2321701   9.7856665  14.4252996  61.4416580   8.9868793  13.9893332
   1.7860619  47.5266418  54.2221947   2.6916835  47.2502937  54.0817947
   1.8587081  48.3435631  54.7157516  14.8953905   0.3627572  11.1510315
  14.7898006   1.2653141  10.8502436  14.3181572  -0.1479557  10.5834007
  67.2568207  24.0623875  72.1604843  66.8817978  24.8483486  71.7631683
  67.9347916  23.7831421  71.5451736  25.1772308  64.9806595  28.9237747
  24.2615185  65.0217438  29.1994801  25.5767174  65.7638016  29.3023624
  72.7043762  10.4721174  68.1521149  73.5244217  10.8891907  68.4163208
  72.9090500  10.0478563  67.3188400  26.7595501   7.0567021  84.9096985
  25.9754601   7.5887108  84.7740402  26.5016804   6.1761651  84.6369476
  83.2699661  56.2831383  72.5813980  82.7038498  56.3852730  71.8163376
  83.1370468  55.3765869  72.8583908  47.7935486  51.7967644  41.5679436
  47.8615303  51.9817696  40.6312561  47.0244713  52.2895203  41.8542061
  70.5466843  52.2617836  49.5190277  69.8021698  52.6905594  49.0970306
  71.0541840  52.9800987  49.8967857   9.4934168  46.7493973  69.8727188
   9.8206568  45.8603096  69.7361069   8.8119974  46.8583832  69.2093811
  40.2105942  53.0158119  22.6364517  39.8676224  53.5747528  23.3337250
  40.9718475  52.5861740  23.0264988   9.2488537  34.0778961  21.3867130
  10.0736666  33.8822021  20.9421692   8.7575045  34.6066246  20.7580223
  63.3715286  24.6752472   2.4333413  63.0914764  24.6518898   3.3483586
  64.1691055  25.2044430   2.4404047   4.2654996  37.0845413  41.1578255
   3.8312814  36.3479996  41.5881653   5.0016823  37.2969971  41.7315216
  75.5205536  29.3264866  11.7932148  75.1583099  28.4477177  11.6801901
  74.9468460  29.7409859  12.4376354  53.1114273   2.8527355  69.1092606
  52.7314453   2.1482031  68.5843964  53.0823631   2.5243552  70.0078964
  35.3872871  70.7058487  43.5251617  35.8406067  69.9545898  43.9077148
  34.8227806  71.0281677  44.2277794  39.1673241  22.3970737  67.3726501
  38.4976616  22.6578541  68.0049286  38.8924026  22.8040218  66.5510330
  54.1811638  34.9911537  33.4823418  54.6643753  34.1650238  33.4981461
  53.4224472  34.8142471  32.9262047  70.3445511  56.9573250  33.8396454
  70.3507919  56.7909050  32.8970451  69.4242325  56.8784256  34.0906982
  82.6743698  12.6394577  45.1860199  81.7349014  12.7830114  45.3001442
  82.7318954  11.8977108  44.5837479  85.9753189  16.1377430  14.1816921
  85.3245850  16.0069809  14.8713875  86.8141861  16.1474571  14.6426039
  53.1768150  31.6186104  70.8075867  53.5937500  32.1504402  71.4854889
  52.2397156  31.7770977  70.9214096  57.2724686  16.5938644  27.8085632
  57.1730957  15.6793737  27.5438652  56.3784752  16.8944492  27.9718323
  48.5596046  20.1970501  32.3194313  49.1374626  19.8181705  32.9818230
  47.8552742  20.6064739  32.8219528  59.2080688  28.0791626  54.9508591
  58.3224831  28.3821907  55.1512222  59.4125938  28.4791718  54.1056404
  33.6717987  56.6506958  59.8729858  34.0880051  57.4956932  59.7027359
  33.8042450  56.5028076  60.8093719  44.8453903   8.3179741  64.4491730
  45.7656937   8.4718895  64.6626892  44.4204483   9.1626425  64.5981369
  52.2712250  12.5891733  75.7553177  52.7551956  12.3185205  74.9750900
  51.7992020  13.3762255  75.4833374   6.9893379  50.6048660   1.6084304
   6.2542615  51.0410156   2.0393248   7.7389612  51.1755753   1.7775124
  51.0982285  61.9490128  46.6483345  51.9500885  61.7431793  46.2633705
  51.2596283  61.9664917  47.5916710  84.8963852  17.0786934  62.0521698
  85.3805237  16.2579231  62.1426125  84.2669754  16.9095058  61.3511391
  76.9331131  40.9210625  21.6361809  77.0576248  40.6758308  20.7193451
  77.4094696  41.7459602  21.7302895  63.3610039  66.2372513  52.2449951
  63.7269897  67.0638428  52.5596733  63.1640701  65.7439423  53.0412979
  81.7925339  46.7553253  66.2815018  81.7080383  47.4199371  66.9651566
  82.4558411  47.1060715  65.6871719  50.9482117  70.6692047  35.9854965
  50.4840584  70.9294586  36.7811508  50.9761086  71.4644623  35.4535065
   7.2825489  37.6603813  68.6915207   7.2796259  38.6139641  68.6084061
   6.6191368  37.4758797  69.3564148  19.2259731  59.6337471  39.1854248
  19.6623383  60.4821320  39.1075974  18.2946129  59.8340034  39.0921555
   6.4274626  39.5996475  44.8236427   6.6892295  38.8963966  45.4179077
   5.8921771  39.1652412  44.1595726  36.3566818   2.4100392  39.7880936
  35.8534088   3.2000299  39.9852295  37.2660904   2.7070491  39.7565689
   8.5724430  22.1466427  89.3345108   8.7932663  22.1514091  88.4031448
   7.6703110  21.8281288  89.3651505  63.1888809  49.8455124   7.9848032
  62.7761230  49.5445709   8.7943087  63.9084167  50.4053040   8.2765818
  44.1453934  64.1040268  86.0960617  45.0148392  63.9417458  85.7300491
  44.2388611  64.9240417  86.5808945  70.1875610  37.9857330  30.2629185
  69.3112106  38.3304329  30.4344711  70.1946487  37.1276093  30.6869545
  65.8136902  59.3967552  26.0602551  65.4151459  60.0341911  25.4677410
  65.1589661  58.7032318  26.1414661  84.4393387  57.2010231  74.9566040
  83.7521591  56.9225540  74.3512344  84.4513321  58.1552925  74.8827286
  32.5363655  33.1660919  82.7864304  32.0726929  33.7353897  83.4005508
  32.7254448  33.7280159  82.0349579   1.0817919  27.6090260  52.5156898
   1.0208151  27.3736897  53.4415016   0.7221959  28.4949131  52.4695587
  34.5782890  19.1535778   9.7427120  34.9160919  18.5356045  10.3909616
  34.5287781  18.6470795   8.9320087   5.2448854  40.2822838  21.8666210
   5.3807120  41.1762848  21.5527000   5.6364255  40.2730446  22.7400284
  27.6626110   0.7224676   3.2379365  27.5107632   0.7730484   4.1816611
  28.3419704   1.3753635   3.0693219  71.6828842  49.0817032  38.1697807
  72.3315735  49.2968330  38.8399734  72.1157761  48.4304771  37.6177444
  43.8647919  43.0866890  31.9190845  44.3591309  43.8041191  32.3155060
  43.9625549  43.2206764  30.9763641  62.9149895   8.1511831  42.1139641
  62.7339516   8.5027027  42.9856834  62.2098656   8.4953814  41.5657310
  53.1002541   8.8588066   1.8348856  53.8712044   8.3636417   1.5579715
  53.0085297   8.6581106   2.7663035  45.4855919  49.7299690   1.5681635
  46.1823196  49.7809296   0.9137881  45.9406433  49.5377655   2.3880508
  17.1104202  56.0163269  88.5208054  16.5437565  56.7261162  88.2186127
  17.7661533  55.9226456  87.8298187  56.2826920  52.0193520  62.8496895
  55.9037933  52.1389809  61.9788551  56.4099579  51.0738602  62.9276962
  30.4396496  14.0677185  72.1629410  30.8874245  14.7746410  71.6981964
  30.3878803  13.3564520  71.5244675  31.1787090  56.3953285  39.9117088
  32.1060371  56.6008759  39.7931938  30.8542271  57.0806694  40.4958725
  85.2842560  34.5956383  25.7680511  85.6322861  34.0092087  25.0963306
  84.7073212  35.1915131  25.2902279  74.9778976  15.1023369  23.6281872
  74.2143326  15.2913065  24.1736164  75.1562881  14.1741104  23.7791901
   8.2937698  34.8651886  18.8503151   9.1117907  34.4079933  18.6552563
   7.8964725  35.0213089  17.9935684  51.7516212  43.7355080  25.8519135
  51.3976326  44.6121445  25.7021408  51.0253296  43.1460152  25.6488667
  75.5272369  49.6973228  64.1123810  76.0027008  49.6950989  64.9431381
  74.6306686  49.4597206  64.3489075  65.1156540  37.4183502  26.3368912
  65.3532791  36.5162621  26.1224155  65.6300507  37.6223068  27.1179333
  59.1759605   4.0378175  45.0395851  58.2941780   3.8727734  45.3734245
  59.4849701   4.7918196  45.5418053   7.1840682  53.9443321  57.0256424
   7.5784321  54.7909317  57.2353592   7.9113622  53.3236351  57.0704727
  77.9208603  24.0039692  58.0183563  78.8206406  23.6985950  57.9026756
  77.4279251  23.5648613  57.3252296  68.1122131  29.3501644   3.5279427
  68.4876709  30.0331440   2.9722452  68.6246872  28.5676060   3.3249586
  72.0365219  48.6630478  76.5417252  72.5925751  49.4384727  76.6175461
  71.5238266  48.6560059  77.3500137  86.0960388  34.3880692  15.7696381
  85.2251282  34.6597710  16.0593300  86.0075150  33.4520569  15.5899782
   2.7566938  11.1161327  79.7346497   2.3213191  10.5909157  79.0632095
   2.7008512  10.5841484  80.5284424  73.9600601   3.3737347  63.1695976
  73.4580231   3.4337041  62.3568306  73.3967743   2.8768604  63.7629433
  75.7702637  32.9986343  83.4662552  76.6044769  33.1208839  83.9194412
  75.7231750  33.7294655  82.8498917  40.7903976  36.0083466  67.6000214
  40.6701698  36.9176559  67.8737564  41.4629974  35.6676292  68.1897278
  72.7629013  39.2903786  87.5910568  73.5628891  39.0938759  87.1035690
  73.0595779  39.4364586  88.4893188  41.0392685   9.0082092  44.4396820
  41.6723976   8.6786079  45.0774460  40.8756371   8.2652941  43.8587036
  84.5481033  69.1656952  31.5312748  83.9555130  68.4159546  31.5856819
  85.4227295  68.7779617  31.5008125   2.9738078  10.5201092  44.6599655
   3.6935260  10.4317684  44.0351181   3.2940636  10.0954571  45.4557877
   3.7042336  30.6491261   0.6785849   3.8631532  30.8152657   1.6077644
   4.1059885  31.3932228   0.2300921  49.5647774  40.9562378  39.1467438
  49.4908867  40.0383072  38.8856354  49.7593918  41.4217148  38.3333015
  46.3129387  50.9705620  14.5877037  45.8194847  51.4504471  13.9225378
  46.4467812  51.6056442  15.2912579  57.7335205  66.7250748  61.4511719
  56.8609200  66.6131668  61.0739822  57.5930862  67.2779236  62.2198486
  45.5148659  44.9122963  37.7961693  45.4523735  44.6505203  38.7147522
  44.6413803  44.7486534  37.4405289  42.8896637  67.0079117  64.6678238
  43.2501411  66.3211060  65.2287064  42.9020805  66.6300812  63.7884369
  11.2181768  52.8062057  26.1503716  11.1482859  52.9461975  27.0946960
  10.3316174  52.5707245  25.8768883  67.6984482  63.2687721  52.0359421
  67.9783783  64.1832352  52.0762939  67.8819656  62.9233398  52.9095726
  82.5111694   2.9436903  25.7036915  82.2780914   2.3002558  26.3729420
  83.0721436   3.5710785  26.1596813  18.2893200  27.4415550  76.1614304
  18.6835747  27.6706238  75.3198090  17.5258923  28.0146198  76.2321777
  77.1193771  46.6400375  81.2847519  76.6146774  47.4512215  81.2256775
  77.6719437  46.7574806  82.0574875  43.1206474  66.2106552  13.6828737
  42.2773476  65.8093719  13.4729919  42.8984642  66.9595490  14.2360744
  53.4043770   2.9380016  73.5887680  53.5476036   3.8471825  73.8516541
  53.7873878   2.4206603  74.2972183   7.4009757  55.6857986   4.9480815
   6.9590640  55.8142052   5.7874012   8.3046637  55.9571152   5.1092253
  67.2236099  50.3160439  56.1970329  67.1799774  49.7026749  56.9305916
  67.6054916  51.1100540  56.5711327  48.6291466  27.2164516   6.9255762
  48.3673248  26.5875130   6.2531786  48.6856537  26.6987896   7.7287359
  15.4228220  17.2078934  76.1605682  16.2829952  17.0787487  75.7610016
  14.9812422  16.3650818  76.0561371  16.8624420   1.4720219  20.5475101
  17.0399990   2.3809092  20.3053741  16.1703815   1.5304571  21.2061958
  37.5014648  26.3542976  87.9374695  36.6255569  26.0937157  88.2222748
  37.4279404  26.4426270  86.9871902  27.3833942  56.6502533  42.2472992
  27.1879005  56.9356689  41.3548012  28.2306252  56.2102394  42.1778831
  12.7219505  26.2375984  70.5759583  12.2256203  27.0031052  70.8655930
  12.0996065  25.5126476  70.6339798  15.2768526  46.1829109   2.4887280
  14.6704655  46.8961143   2.6883948  14.7120752  45.4493752   2.2454541
  75.5012207  16.8514175  18.4228821  75.9646988  17.0670376  17.6136036
  76.1830826  16.8437233  19.0946236  31.0660744  16.8190498  12.0585566
  31.4283276  17.4155807  12.7136564  31.0696564  17.3249264  11.2459631
  46.4224281  51.1254692  60.5868454  47.1899338  51.3236008  60.0502739
  45.8792915  51.9114151  60.5274315   0.4484419   5.3466816  55.0248222
  -0.4118863   5.7353024  55.1830635   0.8465975   5.2846379  55.8930702
  11.9596891  40.0802841  84.3445053  11.9293041  40.3987694  85.2466583
  12.7233648  39.5037308  84.3196411  44.6085968  23.6827793  67.1331482
  44.3371086  24.2861710  67.8248520  45.5114975  23.4550076  67.3547821
  33.8037567  24.6529388   9.9552622  34.6891747  24.3812943  10.1970825
  33.7907181  25.5966225  10.1150188  77.0962219   1.9000372  49.4407158
  76.7749710   2.7423279  49.7625504  76.9552078   1.9355633  48.4946289
  79.2296295  29.4905262  85.9281311  80.1588364  29.2634430  85.8927612
  79.1894150  30.2437973  86.5173569  42.4473801  61.5091438  40.9454842
  42.2344398  60.9354782  40.2094154  42.9354477  62.2324753  40.5520172
   9.3479223  18.3889542  16.0964222   9.0112181  17.5034599  15.9594431
  10.1377039  18.4309578  15.5572433  56.2226372  56.1325607  72.4914017
  56.9519730  56.4716949  73.0103302  56.0575600  55.2610435  72.8511810
  55.8890381  30.0493870  44.4657021  56.2586861  30.1458912  43.5880470
  56.1023445  30.8714886  44.9071541  39.9877014  41.1223831   4.4033279
  40.8841629  40.8412170   4.2201962  39.5411911  40.3263206   4.6916776
  66.8409271  70.9187012  22.6902122  67.2382965  70.1257324  23.0501328
  66.2981033  70.6070938  21.9660053  29.2896557  49.9920273  85.4617004
  29.1947403  50.7724762  84.9156952  29.8345299  50.2775879  86.1950455
  17.1900864  64.9172058   5.6223693  16.7202015  65.6108170   5.1593957
  17.9124031  65.3679581   6.0597630  79.4039383  40.9027100  40.0223923
  79.3696594  41.1101875  40.9562073  78.5006561  41.0020523  39.7216530
  10.9992399  30.1898327  84.7646866  10.9715748  31.0442810  84.3341217
  10.0838041  29.9134827  84.8075638   4.0721302  15.5563831  77.9936066
   4.7216330  14.9110250  77.7145157   3.4936914  15.0740089  78.5843353
  70.2361526  26.3360195  65.0678635  69.4536896  25.8874664  65.3884659
  69.9105148  27.1657047  64.7188416  14.2872076  42.3848495  69.0995026
  13.5907164  42.3244820  68.4456787  14.0920038  41.6850357  69.7227097
  47.5058022  35.7949524  72.9103165  48.1318512  35.3281822  72.3567657
  47.7846260  36.7096863  72.8684921  68.2871475  33.9419594  29.7100582
  67.9994888  33.8358078  28.8032951  69.1687317  33.5694580  29.7268295
  14.2028074  28.5123749  60.4123993  13.7777853  28.9012108  61.1768570
  15.0736971  28.9092045  60.3948517  21.3167706  67.6786423  22.3674335
  21.3429623  68.5878143  22.6656818  20.5949116  67.6533127  21.7393341
  30.2150249  40.5284081  16.9164772  29.9060612  40.9880600  17.6971798
  31.0364132  40.1192551  17.1887779  20.6790962  46.9241066   0.4890395
  20.1898079  46.7334785   1.2893454  21.1960201  46.1342468   0.3304667
  64.5697174  17.9272995  70.8667068  65.2576523  18.2064285  71.4709091
  64.0692368  17.2758884  71.3580475   2.5178170  66.9104767  10.2756405
   2.0833111  66.1017532  10.5465565   3.4484737  66.6874619  10.2562885
   4.2320657  55.8671227  27.9623680   4.4278440  55.3907890  27.1555176
   3.6063709  55.3090210  28.4241714  56.9068336   6.3940063  41.5027237
  56.9188347   6.9725776  42.2651825  56.2418251   5.7376552  41.7105598
  15.4080229  54.1508560  68.8932190  14.5622063  53.7173576  68.7796173
  16.0418625  53.4343452  68.9262695  22.9961586  49.0176430  19.6883926
  22.7774944  49.3661499  20.5526638  23.9530983  49.0153542  19.6661606
  40.1445351  26.5006199  10.2477102  40.1376610  25.7186604   9.6956911
  39.9564629  27.2205391   9.6455679  69.7890549  36.0404930   9.6163578
  69.8647156  36.8964005  10.0381765  69.6077805  35.4345665  10.3348455
  70.5895386  39.4271965  51.7916756  70.6616821  38.6574707  52.3560791
  71.3896637  39.9244385  51.9613342   9.0697098  71.1844025  64.8229218
   9.9863672  71.4496536  64.7480164   9.1035566  70.3170853  65.2264786
  62.4139442  44.4937248   1.8665941  61.8088531  44.1044044   2.4978821
  62.8355370  45.2062798   2.3469667   5.4101462  15.5880404  72.7809982
   5.8857961  15.0655088  73.4267120   4.5506434  15.7331524  73.1765060
  53.8642960  54.7849197  50.2965775  54.7344131  55.0864296  50.0353775
  53.3891220  54.6815910  49.4720993  76.8449707  31.6736717  22.1565170
  76.2471237  30.9992409  22.4789314  76.3216782  32.4751511  22.1516476
   8.1675224   1.4626530  74.8052444   8.2997494   0.7837559  75.4669418
   8.4582272   1.0596008  73.9871521  53.5096741  13.5737228  32.3751640
  52.8414879  13.4772472  33.0537300  53.0317917  13.9015932  31.6133480
  64.0012970  61.2289619  24.7280731  63.3424034  60.7128983  25.1925831
  63.8873711  62.1189041  25.0616264  17.1022072  32.7715263   8.2647400
  17.5784969  32.3893967   9.0018673  16.1973782  32.4855270   8.3901072
  86.5907974  60.1553192  15.3722954  86.6861725  61.0615196  15.0791388
  85.6474457  60.0377960  15.4841366   1.1690621   6.9643497  83.8039322
   1.7941045   6.6910167  84.4753799   1.3783084   6.4189224  83.0456772
  18.5077629  36.9056091   3.7919586  19.0708447  37.6684227   3.6604860
  18.2425365  36.6486397   2.9088652  62.0617447  27.3305035   6.3948741
  62.4161720  27.4784393   7.2716455  61.1130333  27.3911953   6.5066605
   7.2325354  63.5577240  73.0227814   7.2557893  63.6297379  73.9769821
   6.3002815  63.5326500  72.8071289  29.2354927  61.0614777  51.3149109
  28.9731884  60.4568596  52.0090790  29.0842094  60.5755348  50.5042267
  62.3224525  58.8358459  79.0969391  62.1843910  59.7595482  79.3065720
  62.8432693  58.8477364  78.2939224  78.7762222  56.9023399  11.7615147
  79.5629272  57.4447479  11.7057076  78.6016464  56.6398735  10.8577070
  60.3519020  34.8313980  60.3408089  61.1374321  34.3085556  60.1801453
  59.9691277  34.4517479  61.1317482  13.1997766   5.9881206   6.4021182
  13.3938961   5.0791879   6.1732292  14.0530100   6.4219618   6.4045525
  31.4785728  56.7857208  53.6825409  32.3650932  57.0776367  53.4701729
  31.1429539  57.4541435  54.2798691  44.4056206  70.0295486  42.1196556
  43.5789146  70.2009277  42.5706749  44.9860497  69.6939011  42.8027916
   6.5071754  69.2505035  11.5349712   5.8406463  69.9373398  11.5199614
   6.9070277  69.2857513  10.6660013  73.3211823  55.6065941  85.3935776
  72.8493652  55.4196854  86.2051697  72.7650757  56.2345314  84.9324188
   7.3594866  41.5239563  63.1266632   6.8490863  41.8997345  62.4093666
   6.9136610  40.7024765  63.3331528   5.3155823  25.2619324  82.4791565
   5.3828402  24.8444786  83.3378983   4.5410614  25.8205833  82.5444183
  64.5927734  36.8705444  47.7840767  64.2294235  37.6848335  47.4360275
  65.5259781  37.0526276  47.8945541  19.3952560  59.8511505  42.5384903
  19.6429005  59.2407150  41.8440361  19.9096661  59.5732269  43.2963638
  30.2008038  20.0178661  80.1159897  29.5907421  19.3455715  79.8125534
  29.6970673  20.5307159  80.7480240  40.6278534  55.9765396  10.6312895
  41.5066605  55.7354393  10.9242067  40.4323578  56.7867432  11.1020126
  66.7369766  15.4641628  35.7181015  66.6162567  14.9043140  36.4850616
  65.8967667  15.9104490  35.6127014  26.2214146   7.5079851  57.7565956
  25.3590565   7.6119738  58.1587906  26.5760670   6.7120657  58.1527863
  69.2841568  32.4847679  65.8862839  69.6775360  32.1158028  65.0954895
  69.1833954  31.7368164  66.4750519  34.9987946  64.7278976  75.5536346
  35.4268570  64.8143692  74.7018585  35.2669487  65.5094223  76.0368958
  40.6347504  43.8648796  79.3440094  39.8435974  43.6529388  78.8486404
  41.3435898  43.4504738  78.8520203  13.7746601  67.0564880  57.8100204
  13.5405159  66.3236008  58.3794785  13.1065826  67.0501328  57.1245537
  84.6180420  47.8249855  67.9296036  84.9229507  47.3817902  67.1378784
  84.5770416  47.1336555  68.5903778  22.6614075  64.6841202  29.7787094
  21.7546730  64.9436569  29.6152954  22.5937119  63.8199959  30.1848450
  38.8792305  56.9626808  26.5871201  39.5773087  57.4665833  27.0054493
  38.3314018  56.6640167  27.3130112  25.6940327  44.0952339  72.6388397
  24.8052235  43.7597427  72.7558746  26.2470341  43.4827499  73.1239014
  73.5395737  59.4789009  82.8077621  74.3949432  59.4237556  83.2338181
  73.7018204  59.1971588  81.9074631  83.9518280  16.4044151  21.8389473
  84.8259430  16.1367016  21.5552540  84.1057510  16.9351025  22.6205559
  74.0378952  11.9377527  54.9927597  74.4469376  12.0084114  55.8552704
  74.4077759  12.6648264  54.4919739  69.1079865  41.8080254  49.2340431
  69.5033951  41.9820786  48.3798828  69.6440277  41.1087608  49.6081009
  21.1605587  47.7344246  73.3064346  20.5045300  48.4306412  73.3402786
  21.0867004  47.2943649  74.1532669  41.6060257  49.6201935  75.9096680
  42.2381935  50.1986237  76.3363037  41.8858757  48.7379608  76.1537552
  48.5137329  71.0037689  26.6008244  49.3346329  70.9931412  27.0930042
  48.4564247  70.1310883  26.2117558  85.4650955  18.5406513  57.0510025
  84.6263046  18.8121910  56.6782761  85.8345871  19.3432045  57.4192696
  63.2618103  40.7560272  38.6508789  63.9300194  41.0717010  38.0425377
  62.5231590  41.3517761  38.5255356  47.1343613  52.5402946  17.2007217
  46.8926659  53.1994896  16.5501213  46.7832451  52.8772774  18.0249748
  75.9550629  58.8867493  83.6766891  76.8875427  58.9191437  83.4630051
  75.9114304  58.3692398  84.4807510  77.4102478   0.1097512  81.6269836
  77.4104462  -0.0994972  80.6929398  78.3232346   0.0071717  81.8956146
  52.0738106  14.5825911  21.0195808  52.9673691  14.5082502  21.3546314
  51.5729752  14.9435110  21.7511082  54.5047455  21.5817585  17.0021057
  55.4230957  21.8471966  16.9530087  54.5200233  20.6369476  16.8493652
   4.5624704  36.2234612  21.5032711   3.8530531  36.7770958  21.1770039
   4.9213891  35.8073845  20.7195034  60.1110153  44.2473488  56.9077492
  60.9434280  43.9192619  56.5676346  59.7409439  43.5076828  57.3895912
  60.9082298  62.1369171  50.5611725  61.4465485  62.9238091  50.4760361
  61.4854012  61.4955635  50.9756279  61.9107666  65.6679306  73.5794983
  61.6129761  64.7619324  73.4975204  61.8953247  66.0070343  72.6845093
  64.3898926  50.2570152  20.1824951  65.0481033  49.6045914  19.9430389
  63.8290558  49.8099442  20.8163891  51.3450012  17.8459415  55.1547813
  51.3038788  18.3904228  55.9409637  50.5488663  18.0642891  54.6703033
  10.7819929  49.3919640  11.2515526  11.7003098  49.4022331  11.5214062
  10.8121109  49.2548599  10.3047018   2.3827124  51.0638275  44.6598091
   2.7971838  50.2704086  44.9988213   1.5359074  51.1004601  45.1045685
  27.4410973  70.0601883  27.6023540  26.7621861  70.6987381  27.3842678
  27.2935429  69.8599625  28.5266743  23.4668884  22.8144321  88.0389481
  23.4147987  23.2300339  88.8996429  24.3000851  23.1163635  87.6772079
  55.3132858  39.6001740  60.9754677  55.8008003  40.2692299  60.4949226
  54.4000473  39.8808670  60.9168701  83.6864853  64.4399414  74.1700897
  82.8655777  64.8073502  73.8424530  84.3440933  64.7159271  73.5316467
  51.8448029   2.8754404  80.0855331  51.4095345   2.0831542  79.7708054
  52.0812874   2.6751277  80.9911728  14.3522568  45.1083755  76.5134964
  15.0111465  45.6863976  76.1288071  13.9699984  44.6496086  75.7654037
  33.3144836  38.4561768  75.6748505  33.7604675  38.9449921  76.3665009
  33.8610420  37.6824036  75.5378036  69.3090973  51.0690765   9.0853720
  68.5557785  51.5244713   9.4613409  69.1349258  51.0544968   8.1442642
   9.6899662  30.1876297  71.8662643   9.3213911  30.9563255  72.3015671
   9.1793146  30.1003342  71.0613708   2.8646507  51.7756310  74.2687454
   2.4877050  52.6494026  74.1654892   3.6772580  51.8041191  73.7636871
  86.7075500  68.7688141  18.8757267  86.9178772  67.8660660  19.1145611
  86.6264572  68.7515945  17.9221230  76.2241135  62.3920441  56.7646255
  75.8140106  62.4715462  55.9033852  77.0605621  62.8486519  56.6746750
  34.2997398  65.1159134  52.0921898  33.4571381  64.8578644  52.4659081
  34.5196114  64.4085007  51.4860115  74.4825516  47.4823265  47.3132057
  75.3530807  47.7093391  46.9862900  74.6186981  46.6830826  47.8220291
  53.0602798  38.7106514  58.9915504  52.2886734  38.2505074  59.3218918
  53.1115036  39.5048256  59.5234261  27.5394936  46.0089569  73.0919571
  27.4027710  46.6812057  72.4244156  26.9617786  45.2916336  72.8313446
  65.0492477  26.9855824  40.5599403  65.6287994  26.2535152  40.3491631
  65.4989395  27.7551994  40.2110786  54.0766296  25.8670216  86.9973602
  53.2788391  26.3025818  87.2974396  53.8414040  25.4956131  86.1470947
  44.6670303  60.0769424  44.8793449  45.5972786  60.2969933  44.8298607
  44.2212677  60.8341103  44.4995804   7.2389455   6.1311445  59.0073738
   7.1348057   6.0943022  59.9581757   7.0519118   7.0422077  58.7810669
   6.4493208  17.2172489   6.1026702   6.5076761  17.2597618   5.1481972
   5.7421703  17.8222561   6.3265800  77.0398407  55.4462433  73.7962875
  76.8642502  55.2736855  72.8712921  77.6127777  56.2130241  73.7923355
  12.7692699   0.7590532   2.4418042  13.5035906   0.2248145   2.7444503
  12.7618303   0.6399405   1.4920734  47.0806236  27.5973740  56.8459244
  47.5567360  27.8212852  56.0462914  46.5547943  26.8344040  56.6058998
   6.6508327  23.0070343  17.3953094   5.6986599  22.9094906  17.4045086
   6.8905311  22.9304600  16.4717770  51.1622467  13.1511536  44.5861511
  51.2777557  13.2375040  45.5324249  51.0928040  12.2079763  44.4384193
  58.0453835  10.6816988  77.2108231  58.9204369  10.8464260  77.5620728
  57.5098495  10.4920692  77.9811935   2.4937387  22.6809044  87.3667068
   2.5853245  23.5534954  87.7493668   2.6405523  22.8134613  86.4301682
  69.7515182  31.3635845  81.8664932  69.9198380  32.2963295  81.7327423
  69.1124649  31.1362648  81.1910934  33.5168800  27.0756435   4.0180397
  33.3225212  26.1451149   4.1301742  33.7916374  27.3693066   4.8866611
  33.8026390  53.1565475  70.2045441  33.5255051  53.1159782  71.1198502
  34.5609550  52.5743027  70.1578674  21.2996464  46.2216225  43.8855133
  21.0672550  46.7907410  44.6192245  22.0309658  46.6678429  43.4585571
   0.5027091  20.7775993  10.1636610   0.8969253  20.9698544  11.0144625
   0.4451984  21.6282806   9.7286158  39.6405296  63.6852341  73.8345718
  40.4069672  63.1237526  73.9509430  39.8683090  64.2516708  73.0973434
  56.6652298  59.6995392  46.3592491  57.1911354  58.9014778  46.3067894
  56.1793633  59.7208290  45.5348015  78.2995682  56.7783394  21.5706806
  78.3633499  56.0725555  20.9272289  77.5311737  57.2807312  21.2997437
  51.9240761   1.0363388  20.7694511  51.9473915   1.9176924  20.3967533
  52.0308952   1.1715480  21.7110138  71.1931076  37.3683243  77.7626572
  70.7604523  37.9925766  77.1801224  71.7999878  37.9011612  78.2764740
  64.7128601  38.4169273  22.2758884  64.2343140  37.6795654  22.6547356
  64.2929001  39.1920204  22.6488419  67.4160461  37.1074409  58.4843330
  66.5459366  36.7724419  58.7009392  68.0030060  36.6625824  59.0957336
  14.0413809  63.9644585  44.7923813  14.0206537  64.2939377  45.6908531
  14.3044624  64.7196503  44.2663498   7.2830839  33.9010048  78.7870026
   6.8062711  33.1623268  78.4085312   8.1040840  33.9330330  78.2959137
  58.5158653  46.2434120  82.6793518  58.0486526  45.8649979  81.9345398
  57.8240280  46.5290527  83.2760162  12.2884035  34.6916313   8.4715147
  13.0332642  34.8026161   7.8806701  11.5983105  35.2354622   8.0917130
  45.8678284   8.4357042  57.3318100  46.1368484   9.0366268  58.0266151
  46.2714157   8.7897711  56.5393562  60.7605476  10.8338985   1.7459897
  60.5313911   9.9210653   1.9205023  61.2075005  10.8110876   0.8998532
  82.1677170  44.7580719  77.8030701  82.3577271  43.9299049  77.3623123
  81.2663574  44.9611855  77.5530167  51.1875114   6.1239147  19.1832600
  51.2328033   6.8084798  19.8507576  51.7299080   6.4523220  18.4661903
  61.7844849  28.8987236  41.0531883  62.6049271  29.3905888  41.0189171
  61.8719940  28.2387333  40.3654442  25.3448696   7.5237751  61.1754761
  26.2189083   7.1542554  61.3009567  25.2110062   7.5057859  60.2278557
  35.0068436  26.9373474   6.4411879  35.6771774  26.4021435   6.8659697
  35.4405975  27.7733402   6.2702880  15.5920553  49.0279579   0.4256816
  15.0798559  49.4760437  -0.2474461  15.6204166  49.6459656   1.1560873
  65.4319077  67.6875687  40.7907867  65.5279388  68.1856842  39.9790649
  64.7089233  68.1149750  41.2499695  11.8412886  28.6496105  10.7134104
  12.2919855  28.5891495   9.8711224  12.1195278  29.4914875  11.0740480
  79.6267014  39.1922112  42.7039795  79.0298004  38.4458237  42.6505661
  80.4918900  38.8196220  42.5341263  49.8970985  29.8228302  87.8756866
  50.0726700  30.4131584  87.1429367  50.5015221  30.1062107  88.5616913
  47.9160805  23.4341373  70.4242477  47.5721359  24.3174667  70.2913437
  47.2363586  22.9856186  70.9272842  62.2016220  35.6558228  19.5952530
  62.5441170  36.5474968  19.6573105  62.3912163  35.2664795  20.4488907
  37.6949883  20.9359665  14.4688120  37.0287056  20.9788246  13.7829113
  37.3537827  20.2970524  15.0945892  35.2440910  17.3959370  17.4763222
  35.3815842  16.7950497  16.7440224  35.5975952  16.9328079  18.2357826
  77.5368042  52.0088921  46.0250015  77.7360535  51.2579727  45.4658432
  76.9032059  51.6737061  46.6593781  72.6099625  37.8956261   6.4718852
  72.3870392  37.0114441   6.7630239  71.7645035  38.3242455   6.3387656
   5.1438131  29.0438290  17.8350391   5.8597713  29.6154747  18.1122704
   5.1587243  29.0877647  16.8789654  12.0584154  59.3711586  88.2582932
  11.9749708  58.4284325  88.4016037  12.7103977  59.6541061  88.8994598
  33.1567764   3.0437799   6.5971470  32.5583763   2.4854774   7.0935793
  33.7122650   2.4308093   6.1155519  69.7279434  54.7721825  63.0919342
  70.4271240  55.2366486  62.6318741  68.9819641  55.3711929  63.0613060
   9.6820774   8.1573620  87.6306763   9.4081879   7.2790427  87.8948212
  10.3068905   8.0100174  86.9206543  81.0168533  14.3451443  36.6415062
  81.0245132  13.8595886  37.4663734  80.4840546  15.1191015  36.8241043
  31.3043690  59.4944687  45.2087402  31.9483814  59.8992691  44.6276970
  30.4907990  59.9661026  45.0301476  51.5858269  34.4276314  42.6078682
  50.8107872  33.8677788  42.5619354  51.5802040  34.7716331  43.5010986
  39.0491257  65.7325439  62.2448349  39.6502419  66.4351425  61.9973526
  39.5619698  64.9309845  62.1412697  82.3878403  12.5502138   9.7912607
  83.0071411  13.2738533   9.6961899  82.8712234  11.7803268   9.4915218
  25.5537281  66.2037582  21.2908916  24.9750290  65.7101212  20.7098064
  25.0278168  66.3618393  22.0748920  65.4356766   6.1948447  59.6627388
  64.6304932   6.5707226  60.0185852  65.7969818   5.6774883  60.3824806
  15.3280487  42.0100021  59.0682144  15.4268045  41.9631157  58.1172791
  14.4160004  41.7664566  59.2265968  41.6616745  29.5320091  62.5621986
  42.2720261  30.1163273  63.0119514  40.8420181  29.6216221  63.0483665
  74.2257080  25.2796478  57.0857010  74.2198105  25.3951645  56.1355133
  73.3004837  25.2417488  57.3281097  71.3616180  22.7335434  74.6668549
  70.4112625  22.8476200  74.6735382  71.4888535  21.7850914  74.6449051
  61.6416321  51.0978889  55.7629318  62.5737457  51.2677269  55.8991318
  61.4809494  51.3574181  54.8557053  38.1016998  68.5028458  40.8101158
  38.6435852  68.5712280  41.5961914  38.6972809  68.7097321  40.0898972
  53.0942345  11.6285048   3.9698114  52.8662338  10.7081203   4.1007357
  53.6588783  11.8433380   4.7122798  73.7834091  48.3397484  79.5571060
  74.2612762  48.4144287  80.3831177  73.7358932  47.3980637  79.3921814
  41.3112144  46.8940506  25.6193428  41.1700935  47.0942650  24.6940155
  42.2384758  46.6633224  25.6757660  71.4963074  54.2057190  16.5308514
  72.1948166  53.6989937  16.9450417  71.4484177  55.0119972  17.0445175
  41.6185913  51.6304512  48.9344368  41.5728531  51.0950699  48.1422806
  40.7087975  51.8642998  49.1183319  46.9739876  21.0093765  39.8751259
  47.2932625  21.2717762  40.7385139  47.7521439  20.6884518  39.4193687
  27.1106625  56.3149719  86.0223770  27.1836166  55.9219894  85.1526260
  26.3716469  55.8621216  86.4285965  11.8553944  56.8543472   0.1489304
  10.9850817  56.8658257  -0.2493862  11.9383564  55.9750252   0.5179011
  70.6866760  36.2132263  82.7733765  71.0484085  36.4415970  83.6296692
  71.4189606  36.3234825  82.1668854  84.0108490  71.1508179  17.2262993
  83.2053146  70.7040253  16.9660645  83.8900681  71.3396835  18.1568756
  51.6623535  35.9111557  74.2227097  52.3787498  36.2303734  74.7714386
  50.9390564  36.5127487  74.3992386   1.6995113   7.4832215  23.5631638
   1.5175660   6.9776969  22.7709694   2.2147355   8.2298841  23.2577610
  33.6633720  46.4026451   1.6447585  33.3990059  45.5255508   1.9223336
  33.1567917  46.9931755   2.2023273  25.4358120  38.5245323  30.8012447
  25.8829689  37.9001884  30.2298622  26.0808716  38.7361832  31.4760284
  41.6596336   4.5097942  73.4288254  40.7683983   4.6417103  73.7521362
  42.0884857   5.3559513  73.5566406  38.3200645  13.5863371  69.7862778
  38.1689072  13.4680119  70.7240295  39.2668800  13.4915180  69.6824493
  70.0866623  58.5228424   0.4293395  70.6925583  58.7493134   1.1349117
  70.4052734  59.0151405  -0.3272062  75.4274445  30.7859402  19.5097218
  74.5898666  30.3263474  19.4508610  75.5942307  30.8604813  20.4493275
  73.9663467  22.6298199  81.1578217  74.2936478  22.3864613  82.0237808
  74.7505188  22.8697433  80.6641083  55.5578804  64.5073776  65.5741119
  56.3733521  64.7405014  66.0178299  55.8388901  64.1072845  64.7511902
  18.8118095  29.0753937  19.3596230  18.9905586  29.6901779  20.0711861
  18.0148907  28.6199436  19.6311264  70.3797073  69.5936356  73.4952087
  71.2846375  69.7194214  73.7807159  69.9835663  70.4622040  73.5651321
  59.8751869  61.0318909  25.3432007  60.3511772  61.5544853  25.9886150
  59.8491173  60.1521606  25.7195320  69.7923737  68.0911407  31.1036777
  69.0728302  68.4157944  30.5623035  69.5712433  68.3743286  31.9908867
  41.8117104  47.8068123  30.0108986  42.6869926  48.1694565  29.8745155
  41.4549370  48.3108025  30.7422943  61.7744064   0.2343689  83.6684113
  61.5620117   1.1554551  83.8191452  62.2118721   0.2256615  82.8170700
  36.9086304  48.9083595  47.2944908  37.6137886  49.0539398  47.9251976
  37.3491936  48.5625610  46.5182419  62.0658188   3.6596992  46.2702332
  62.5719566   4.1592097  45.6294975  61.3838997   3.2297151  45.7541618
  44.6681023  54.5875702   5.2682323  45.5154839  54.8971214   4.9483008
  44.5023727  53.7866554   4.7709365  48.4243202  17.6823254  39.0307922
  48.9731140  16.9438934  39.2949486  49.0078011  18.4401569  39.0691719
  56.4606018  13.4360733  78.7892456  55.7667351  13.9183216  79.2389374
  56.3292122  13.6358900  77.8624039  74.7999496  22.8692627  19.3759594
  75.1542282  22.5655289  18.5402164  74.4496689  22.0798416  19.7886925
  39.8700333  67.6246414  13.2800703  40.6671143  67.4785767  13.7895403
  39.3990631  66.7927246  13.3284101  58.1793594  42.4797478  21.3187962
  57.5600090  42.4843140  22.0486012  57.7681427  43.0300369  20.6522293
   0.7039714  44.8845024  21.5408077   0.7097252  45.6902313  22.0575237
   1.1777200  45.1100006  20.7402172  85.4231186   5.7946229  81.2564316
  85.4258728   6.1446714  80.3655396  84.7646103   5.1001458  81.2388535
  67.6812897  59.9402008  73.9503632  66.7869949  59.8365822  73.6252060
  68.1132507  60.4861565  73.2934189  67.0887756  65.1155319  56.2174492
  67.4388046  65.6493378  56.9307251  67.0060120  65.7227936  55.4821815
  75.5372086  25.0008392  85.4020538  75.2720413  24.1202278  85.6674576
  76.3968124  24.8807011  84.9984589  15.3735132  58.9179001  73.2760010
  14.5516071  58.8495255  73.7618256  15.5387506  59.8588219  73.2160645
   3.8561206  26.3178520  72.4462662   4.1841063  26.6703796  71.6189880
   2.9048724  26.4034081  72.3827133  24.1308022  25.9342022  69.6794434
  24.5915203  26.3859596  70.3864746  24.2060928  26.5239697  68.9292908
  57.3649864  53.2521477  43.1001358  57.3134346  52.3485336  42.7886047
  57.7846870  53.1861992  43.9578857   0.7068380   5.8937731  25.4215126
  -0.2465114   5.9358454  25.3467693   1.0277381   6.4362011  24.7010765
  17.8528080  37.6811676  66.6479111  18.0972385  36.8351517  67.0230713
  18.5715694  38.2661133  66.8876038  39.6542549  35.6965408  26.0895214
  39.8117523  36.6079941  25.8431931  40.4889297  35.3984833  26.4510593
   8.5829659  40.2466736  20.3920403   7.9088578  40.7047043  19.8900242
   9.2862701  40.8885536  20.4899578  21.5466900  44.2285805  11.8698339
  21.1053429  44.1148491  12.7115641  22.3072300  44.7742462  12.0699701
  58.6028252   9.7740679  83.9748688  58.2737961  10.4852381  83.4251404
  57.8591423   9.1784325  84.0664673  15.7558784  25.9617710  15.8994083
  14.8393879  25.6956863  15.9734001  16.2025280  25.4782028  16.5943165
  49.5040283  36.8889847  70.7124100  50.3015938  36.3778038  70.5752258
  49.8166504  37.7697182  70.9193039  49.3927765  33.8400078  86.5403061
  48.7370644  34.3651695  86.0815277  49.7253532  33.2375107  85.8750153
  44.3706245  56.1722946   0.5730931  43.6023483  55.8558578   0.0978479
  45.0490570  56.2559547  -0.0969518  72.0432281   3.1912081   5.5118380
  71.8610916   2.6810946   6.3010411  71.1984100   3.5724914   5.2728143
  66.7016068  25.5928154  68.4223785  66.1550064  26.3268452  68.1419067
  66.8538818  25.7499352  69.3542328  14.3576880  43.5502319  78.6816483
  13.7034540  44.0791321  79.1382370  14.5060253  44.0124435  77.8566666
  47.0733147   4.3047137  15.6651945  47.7668495   4.2919054  15.0055914
  47.4707260   4.7349863  16.4222679   8.5777893  63.4678459  66.0744858
   7.7625866  63.0345802  65.8215866   8.6110439  63.3784790  67.0269241
  10.7664471  38.5328979  77.4836349  10.6721363  39.3467484  76.9886780
   9.9222031  38.0928993  77.3842087  37.0496635  68.3387833  22.2864971
  36.8190079  69.2535706  22.4483604  36.4356270  68.0530243  21.6100845
  69.2489166   0.4450783  73.7336426  69.0625916   1.3134837  73.3767319
  69.0354004   0.5175942  74.6639023  75.8629761  12.6660776  78.7026138
  76.3395615  12.2270403  77.9981003  76.5454941  13.0739975  79.2355347
  82.6743698  29.8904018  82.1970444  83.4289856  29.7128677  82.7585373
  82.0917130  29.1437378  82.3357162  18.8380394  19.7343216  75.3545227
  19.3631287  18.9340286  75.3613586  19.0921230  20.1806068  74.5467529
  61.7407570  65.0078735  14.7111712  61.5095482  64.5537796  15.5214653
  60.9579926  65.5110626  14.4868689  48.1990585   3.3367765  29.3421669
  47.6950340   4.0480604  29.7374725  48.3853836   3.6402760  28.4536839
   2.3477790  56.2571373  11.6944799   2.8518295  55.5658188  11.2652464
   1.4906214  56.2276955  11.2694559  33.5578232  56.6858826  88.0854416
  33.6919289  55.8604012  88.5510864  34.3955269  56.8569260  87.6550598
  20.8744049  55.0844612  60.7181015  19.9373951  55.0543213  60.5248756
  21.1829033  54.1945648  60.5473824  46.9993820  31.2531433  72.7241516
  47.6926346  30.6004791  72.8224564  46.1868896  30.7528629  72.8003311
  31.6143627  51.7087555  69.0141373  31.0772095  52.1441879  69.6760254
  32.4627914  52.1487808  69.0668335  66.4832306  57.4694290  17.1156139
  67.0186081  58.2420349  16.9348335  66.3272171  57.5016518  18.0594654
  65.2564011  65.5572586  70.1861954  65.7027817  65.0731583  70.8809052
  65.2450943  66.4632721  70.4947891  17.3699379  24.3881245  83.7765884
  17.2557812  23.4622860  83.5620575  17.6379261  24.7937641  82.9520493
   6.3211432   2.3109703  16.5997696   7.2415805   2.4237018  16.8370857
   6.0200219   3.1932194  16.3825283  45.5168686  38.3547134  43.7345581
  44.7660561  38.4845390  44.3139153  45.1428223  37.9761848  42.9389191
  15.7609720  46.7332191  65.1902237  15.5299816  46.2575607  65.9881134
  14.9224787  47.0320702  64.8383026  40.0178413  37.9460869  64.5724716
  39.9213257  37.1798592  64.0069504  40.9636192  38.0788841  64.6365280
   0.4870126  53.9094772   8.2166147   0.5903133  53.2290993   7.5512977
   1.0323467  54.6324501   7.9065332  44.4147530  48.5122833  30.2005653
  44.1959419  49.4071770  30.4604168  45.1575470  48.6106796  29.6049080
  21.6037884  45.8476715  37.4874115  21.9871845  45.0769310  37.0688438
  21.0167599  46.2126884  36.8252983   2.4821103  70.9615707  67.4020081
   2.7075064  70.2397919  67.9889297   1.7502975  71.4020157  67.8340836
  39.3194618  62.9143143  50.3045540  39.4717827  62.3840141  49.5223694
  39.9079628  62.5447426  50.9628220  76.9268723  60.8538437  23.6962738
  77.2282944  60.3117371  24.4253101  77.5323257  60.6534691  22.9824753
  72.5054550  15.7680130   3.5883982  72.5481873  16.4119968   4.2952867
  72.9713211  15.0051785   3.9308624  55.0705681  21.0964870  77.5439453
  54.5990372  21.9053802  77.3449860  54.6677551  20.7768211  78.3512726
  27.9193020  26.0062103  86.5802002  28.7381096  26.3247757  86.9600677
  28.1349106  25.8226929  85.6658325  58.5937386  24.9697456  86.4102097
  58.9280663  25.6714497  86.9688416  59.1940041  24.9504089  85.6648636
   7.8950596   1.4298685  57.8217888   7.2181301   0.8372596  58.1486130
   8.3061218   0.9504736  57.1024551  18.3603916  25.5295563  31.6873226
  18.0318165  25.4653854  32.5840683  19.2955036  25.7080154  31.7870655
  21.8335438  48.3015480  85.2937317  22.3399639  48.9686546  84.8303299
  21.3316307  48.7914124  85.9451523  52.0200615  62.5027618  73.2440186
  52.8428383  62.0809441  73.4916840  51.9559174  62.3661613  72.2987900
  67.2339172  15.2527370  32.9063454  66.4176254  15.6263838  32.5742531
  67.1757584  15.3562784  33.8561516  62.8518524  29.2058792  70.4225159
  63.0127945  28.3578491  70.8362427  63.1811562  29.8463478  71.0530624
  68.1192627  63.4517403  21.4920712  68.6298828  62.9830818  22.1522655
  68.4151459  63.0878487  20.6576443   4.5725789  44.3023529  38.3161736
   4.9508624  43.4781494  38.0098724   5.3275161  44.8307037  38.5752945
  80.8406906  34.2844467  73.0939789  80.0726395  34.2888832  73.6652145
  81.1271973  35.1974678  73.0707550  30.4882259  71.4243927  86.9484406
  29.7669983  70.9645844  86.5187454  30.2885475  72.3522644  86.8242340
  48.8418694  55.6897545  41.5160027  47.9514542  55.9859352  41.7048607
  48.9191246  55.7548943  40.5641518   1.2995371  17.6565723  56.5480194
   0.4109584  17.9704399  56.7157898   1.5708959  18.1184025  55.7547302
  51.1238251  37.0814400  23.7474632  51.0659790  36.6767807  22.8819370
  50.6990051  36.4551353  24.3335533  13.0069094   8.6737242  67.9597397
  13.4112091   7.8612537  67.6553268  12.4800892   8.4109621  68.7144928
  33.6142349  39.8152504  32.9670143  33.8597183  40.4699097  33.6207657
  33.3978233  39.0355606  33.4783669  50.8532333  14.9523382  13.7269106
  50.5051842  15.4268494  12.9719715  51.5799408  15.4934454  14.0356665
  14.3832979  42.3700104  56.1360550  15.2096491  42.8521309  56.1666565
  13.9037333  42.7627487  55.4066696  66.5722885  55.3186417  10.1201572
  66.8857498  56.0772667  10.6125603  67.1849442  55.2377510   9.3891687
  72.6517792  46.2500000  22.4923973  72.8806381  46.0971947  23.4091892
  71.7297974  46.0002022  22.4308453  71.9600983   9.4945917   5.1138439
  72.0900345  10.4003115   5.3949471  72.0090103   9.5309277   4.1585851
  20.7266026  63.0784798  49.3438759  20.0785656  62.8793602  50.0196190
  21.5705395  62.9256554  49.7689056  55.5352097  60.7057343  54.6776619
  55.5307732  60.7530441  53.7216415  54.9547882  61.4144592  54.9552345
  42.0599785  23.7505569  80.6825867  42.2238388  23.0130405  80.0948334
  42.1004715  24.5214481  80.1166153  52.7307167  60.5533791  42.4209633
  52.4786720  59.8362465  41.8392181  51.9248047  61.0542946  42.5467300
  36.7882614  34.9302750  76.1481094  37.5892982  34.8380508  75.6322937
  36.9228058  34.3583412  76.9037704   5.1487947  32.3111343  29.4879837
   5.7814021  33.0052719  29.3030033   4.2966094  32.7441521  29.4378796
  48.7617798   7.7350740  10.4443989  47.9740448   7.9325175  10.9510736
  48.5762253   6.8913240  10.0322256  44.2069092  46.5233765  48.7180901
  43.7243614  46.8979187  47.9811401  43.5810204  45.9345779  49.1397629
  17.0058594  52.8575096  53.0270538  16.6346016  52.3448868  52.3089905
  17.8611660  53.1395264  52.7027855  74.6149139  28.7372360  38.2310600
  74.5863800  28.0387478  38.8849182  75.3152618  28.4768085  37.6327934
  62.9517670  23.1500282  56.1389465  62.1291237  23.6220055  56.0096130
  62.8441048  22.3400249  55.6404152  78.4312973  52.4434814  79.0985336
  77.9309464  53.0833702  79.6049194  78.6274261  52.8902512  78.2750320
  22.5461445  71.5626144  80.8683777  22.1314774  71.3965759  80.0217819
  22.8507404  70.7028351  81.1586151  51.8554535  20.2832890  73.7938995
  52.1487694  20.2568684  72.8831329  51.0365219  19.7877274  73.7962570
  49.2269974  31.0277386  36.0438385  49.0629883  30.5822124  36.8750038
  50.1762047  31.1489162  36.0202637  82.9964676  13.7670851  23.2054138
  83.3319626  14.6079264  22.8945065  83.7755127  13.2881231  23.4881115
  16.5354500  37.0702820   6.6240234  16.9129066  36.1950188   6.5364418
  17.2914085  37.6573830   6.6324053  81.0522385  65.8806305  26.6312771
  81.6588593  65.2863693  27.0729694  80.3787003  65.3071365  26.2656574
  80.1659317  57.5412865  58.9906120  81.0047684  57.7834435  58.5982513
  79.5160599  57.7678261  58.3253479   1.7279626  31.4995861  42.6442375
   1.6805602  31.8993340  43.5126762   2.5951645  31.0955429  42.6135635
   4.7984362  24.2203846  27.6851177   4.0349045  24.3894386  28.2370892
   4.5194578  24.4754925  26.8057308  13.7485828  65.1813660  64.2495728
  14.6952505  65.1472092  64.3870010  13.5278378  64.3227768  63.8885498
  54.6483078   5.9990778  29.6566105  53.9434776   6.3907595  29.1408291
  54.4085274   5.0750823  29.7270947  11.4168558   1.2696511  77.0036926
  11.6104870   0.9783543  77.8946991  11.5316744   0.4865203  76.4654083
   2.0627377  58.4732590  14.5156860   1.7857476  57.9060783  13.7960920
   1.2706952  58.9504585  14.7630358  45.3895454  15.7452431   2.2321303
  45.0012054  14.8745708   2.3178945  44.8006210  16.3194542   2.7217071
  28.8090458  55.5532646  59.7065659  28.1289768  55.3787193  59.0559731
  28.4093800  56.1813698  60.3082199  36.3552666  55.5865097  48.0743904
  37.0966377  55.2172623  47.5945396  36.5517120  55.4069405  48.9938469
   2.4295125  18.4530716  26.1689663   2.4094002  17.4961987  26.1541004
   2.9277289  18.6699505  26.9569874  53.7625237  70.9122620  73.5488052
  54.0455093  71.6912003  74.0277710  52.9002151  70.7085266  73.9109573
  11.0454092  10.0522461  22.8402233  11.9263077   9.7122440  22.6832237
  10.7674456   9.6308413  23.6534805  52.0442581  11.4151402  16.4003429
  51.2660446  11.6560640  15.8977757  52.0788689  12.0562630  17.1102695
  11.2447100  69.1785812  87.4455795  10.9364061  69.2366791  88.3499069
  10.6905603  68.5080109  87.0462189  40.0298080  20.8913193  81.0267258
  40.1223755  20.0158730  81.4025650  40.4366455  21.4722099  81.6695938
  79.6225739  68.1449280  82.4501648  79.7175217  68.8849869  81.8505630
  79.8686829  68.4967117  83.3056870  24.5600834  13.8102140   0.5484069
  25.2754784  13.9813366   1.1609094  24.5071640  14.6028843   0.0144544
  86.3932419  28.6985130  76.9713898  86.0749130  29.3671970  77.5778198
  87.1390839  28.3022175  77.4218369  83.6899338  59.2548256  68.4093170
  84.6074600  59.0851059  68.6227798  83.3297272  59.6542206  69.2011261
  48.3551826  49.4286957  42.4829254  48.0644073  50.2788658  42.1529427
  47.5978012  48.8549767  42.3669548  70.2690506  54.4683838  22.0019341
  69.4245148  54.9001274  21.8731441  70.4806671  54.0959663  21.1459236
  56.2206116   7.9171839  58.5462837  56.3758659   8.6109180  59.1872673
  56.7984581   8.1335344  57.8144951  43.4543839  27.9135284  70.2178497
  44.0606766  28.6032257  69.9477386  42.6287727  28.3701534  70.3793793
  23.0675449  35.0861664  79.6464615  23.1133690  34.4405174  80.3516312
  22.1892719  34.9797821  79.2810135  78.3997269  18.1888885  73.4331665
  78.8240738  17.4490776  73.8677292  77.6003418  18.3370323  73.9384003
  83.8350830  69.7630081  69.8479309  83.4129486  69.1443863  70.4440384
  83.9154434  69.2839813  69.0231247  86.1577759   1.1751125   0.2326289
  86.6081238   1.7740803   0.8281605  86.3841476   0.3024264   0.5541956
  46.2743034  26.3408260  82.1018677  45.5807724  26.9991951  82.1442947
  47.0287170  26.7606716  82.5151749  58.2553520  49.8663635  56.0143051
  57.7835045  50.2137718  56.7712021  57.5671310  49.5806770  55.4134979
  31.0349617  24.0860729  80.4202881  31.1723557  23.9437504  79.4837570
  30.3815784  24.7842770  80.4631271  56.8369331  45.3349419  42.7605705
  57.0782127  44.4116783  42.8354492  56.3467979  45.5201340  43.5616341
  21.3955097  35.3845482   3.4000759  21.3897324  34.7079926   4.0771828
  21.3767700  36.2093430   3.8854513  29.1743946  44.4794807  60.6958084
  28.4212532  44.0813828  61.1323051  29.7331982  43.7391205  60.4595146
  63.6693535   8.8872805   8.7932100  64.2123947   8.7930107   8.0106173
  64.0471420   8.2727022   9.4223375  67.8324890  20.1014519   9.5905180
  68.6501312  19.6091824   9.5172272  67.1742096  19.5333958   9.1902514
  35.5370407   1.3449553  63.3837051  34.9338303   2.0475831  63.6259422
  34.9966736   0.5548716  63.3833580  24.7313652  48.2282639  38.8921852
  24.6493950  47.2753334  38.9300423  25.2199707  48.4582214  39.6825104
  60.5164223  57.8786011  29.9487553  59.7787819  57.7994728  29.3438911
  60.4764595  57.0836906  30.4805031  58.1226730   1.2055345  66.2950439
  57.3813095   1.5567799  66.7882462  58.4781456   1.9608246  65.8266373
  10.5321569  35.5502434  38.2570648  10.9284916  34.9940338  38.9277229
  10.2073393  34.9365463  37.5982018  26.7186794  16.9856052  71.7714844
  26.3534355  16.1018105  71.7298355  25.9840012  17.5358315  72.0430145
  83.7052917  59.1568146  10.8171320  83.9103928  59.6864700  10.0466604
  84.3173981  59.4614105  11.4870338  35.9164467  43.0906677  34.9448242
  36.0783615  42.1717987  34.7310600  35.1124611  43.0776901  35.4641190
  18.0943489  65.9642639  41.2980118  18.1554394  65.0342484  41.0799065
  18.9909859  66.2184830  41.5162926  47.6630478  29.3447342  26.1463566
  46.8789787  29.1082287  26.6418724  48.0770073  28.5069904  25.9388580
   3.2276163  48.3489799  32.3485260   4.0485382  48.5608788  31.9042091
   3.0050683  47.4723053  32.0352402  30.6443348   8.3437119  85.0688248
  29.7247181   8.2062550  84.8415756  30.9611549   7.4761844  85.3203278
  13.5122070  52.4402924  61.0687561  13.3591127  53.2534790  61.5499191
  13.8993044  51.8491669  61.7144775  73.6845551   7.4711494  25.3468857
  73.1643448   7.4006920  26.1472893  73.0396118   7.4541111  24.6397839
  50.5366287  12.5170860   6.5526361  51.0662613  11.9307137   7.0929031
  51.1744232  12.9992456   6.0263553  76.8665543  62.8159561  19.6444168
  77.4034576  62.7377548  18.8558464  76.9980545  61.9882050  20.1067677
  57.7397499  58.5781403  31.4918365  56.9069366  58.9654198  31.7614079
  58.1911774  59.2816048  31.0253792  34.7802734  60.3370361  81.3600922
  35.7090607  60.1212921  81.2761993  34.4868240  60.4859200  80.4612274
   6.6174574   4.9749546  50.6160851   6.3582072   4.0624027  50.4885292
   6.3391099   5.1805120  51.5085564  62.8145905  16.3991871  85.7033920
  62.1456337  16.0718193  86.3046951  62.8376350  15.7541285  84.9965668
  73.2309570  29.5051212  47.1686172  72.8737106  28.6275005  47.0330086
  74.1379852  29.4434166  46.8690872  53.1634445  51.6280479  19.7009602
  53.6124687  52.4444885  19.9201317  53.8008461  51.1354828  19.1839237
  44.4449348  21.7198143   0.7450595  45.3191566  21.7433605   0.3559436
  44.4053383  22.5038548   1.2927312  21.7821159  42.5389671  39.1442833
  22.3888950  43.0446091  38.6035652  21.6716805  43.0650368  39.9362946
  63.0279312   7.8843489  71.3379364  62.9812889   8.1137094  70.4097900
  63.7981148   7.3201637  71.4068222  40.4417915  29.1876240  20.5441532
  39.6487808  29.4896049  20.9870701  40.2186279  29.2073307  19.6135406
  22.8394165  16.1799831  75.5037155  22.9147053  15.5210266  74.8135452
  23.7304649  16.5106544  75.6173859  19.3565044  33.1961937  62.4339905
  19.0309410  32.3925438  62.0285416  18.5892544  33.7661781  62.4857407
  84.9619598   6.0360665  56.4259300  85.3528519   6.8787770  56.6567497
  84.0925140   6.2584848  56.0930405  76.6379471  29.1971664  50.1064568
  77.4015427  29.2247219  50.6830025  76.1444855  28.4309120  50.3989906
  68.9182816  12.0914965  62.9780693  69.7027435  12.3540373  63.4596634
  68.9414978  11.1346092  62.9858589   8.2097960  10.9451857  28.8807163
   8.4711533  11.6948814  29.4153938   8.0078478  10.2573833  29.5150471
  17.8766804  40.3632088  18.1537724  17.5964451  39.5734291  17.6912308
  18.6826973  40.6273155  17.7101326  59.9267464  57.1282616  53.2982712
  59.6364822  57.9948845  53.0137672  60.8750610  57.2135887  53.3964996
  74.7699509  65.9068909  45.6660118  75.4034653  65.4838867  45.0863914
  74.0190582  66.0955429  45.1031570   1.7476075  36.0732384  71.4946899
   1.5373170  35.5840988  72.2901535   1.5248021  36.9800377  71.7051849
  11.0087757  17.1060238  66.6787109  10.6788092  17.7651711  66.0680695
  11.9611635  17.1648827  66.6030502  15.7120552  64.2197800  85.4052658
  16.2543392  63.4525948  85.2220078  16.2039509  64.9540939  85.0377579
   1.3308420  38.4116554  81.7171326   2.1332254  38.9312859  81.7661057
   0.8797119  38.7403641  80.9395294  22.7365150  48.7966080  88.9393539
  23.3074627  48.0614967  89.1626511  21.8580170  48.4973526  89.1737061
  51.7870064  22.5581856  32.0347633  52.6384125  22.9921341  31.9797516
  51.9407425  21.7996368  32.5979691  70.5970306  45.7612877  63.5418549
  69.7733231  45.8673058  63.0659294  70.4196548  46.1214523  64.4107895
  52.5940819  14.7132654  62.3396263  52.0490608  14.0825443  62.8101349
  52.6984024  15.4425287  62.9507942  41.6066017  15.8213339   8.0103292
  41.1170082  16.1402721   8.7684889  42.2398758  16.5148106   7.8251581
  11.7889786  43.7425995  84.9111710  12.5498276  43.4868774  85.4326553
  11.6677208  44.6722336  85.1043243  43.4153671  62.0497131  87.8028259
  44.1152153  61.3968811  87.7869110  43.4085579  62.4151688  86.9181671
  74.4196320  24.5774593  22.3171139  73.6057434  25.0050602  22.5835056
  74.4562759  24.7018757  21.3687420  20.1559277  23.6790638  78.6607208
  19.2912788  23.4267082  78.3367920  20.2733116  23.1622066  79.4577866
  17.4691353  41.1183052  40.9539185  16.7038574  40.8114967  40.4676590
  17.2159843  41.0393143  41.8736496  20.5872650  21.2708950   3.9154382
  21.4156303  21.5519257   4.3041053  19.9434967  21.3860245   4.6143942
  40.6427841  64.7450867  12.9480591  40.2129784  64.9841156  12.1268635
  39.9686890  64.2817307  13.4451828  36.9415588  64.6433258  67.1554642
  37.5834312  64.7430573  66.4524078  37.0271950  63.7304153  67.4302368
  74.5037537   1.7534192  59.4241104  73.9804001   2.2766805  58.8170433
  75.2746353   1.4982969  58.9172783  25.7142029  62.3304977  81.9054642
  26.4954338  62.8745804  81.8060150  25.6263218  62.2080841  82.8507233
  18.1788673  65.7727356  49.0047760  18.5340443  65.7113876  49.8915215
  18.9215469  65.5728912  48.4349365  78.6435776  60.7717552  73.9058456
  79.5828094  60.5900955  73.9386215  78.5864868  61.6926575  73.6510620
   3.9518900  53.4264984  24.1282787   3.2594221  52.8602295  24.4689579
   4.4752259  53.6537781  24.8968449   4.7166328  39.8492165  25.4279747
   5.0905170  39.0146713  25.1451740   4.9482427  39.9137268  26.3544865
  70.6083145  67.9109268   9.7703876  70.3825226  67.2037964   9.1660528
  71.2591629  67.5258255  10.3571844  82.5165787   8.8564816  63.7678528
  82.9860916   9.5096312  63.2490196  83.2013779   8.4055405  64.2617493
  55.9288330  70.2925491  10.2027302  55.6322136  70.2495346   9.2936659
  56.7545547  70.7750549  10.1626644  15.3638515  26.5965977   5.2546024
  14.5998478  26.3384991   5.7702713  15.6325712  25.7944851   4.8066759
  56.5039749  58.4511757  68.1313477  55.7326736  58.9801636  68.3350525
  56.4018288  58.2248192  67.2069244  71.6331482   2.9051173  61.3867188
  70.8106155   3.3262997  61.6362724  71.3666000   2.0778220  60.9857597
  66.9900208  57.9900284  69.9714355  66.0687408  57.7320671  69.9407959
  67.4534225  57.2757149  69.5341187  80.3257523  53.9224091  24.8406315
  79.7526627  54.4890213  25.3571148  80.2395172  53.0600853  25.2470779
  82.5818253   2.9559000  35.9318008  82.5483704   3.8550763  36.2582893
  83.1269608   3.0063145  35.1466141  79.9857712  58.3182564  42.0936623
  79.4953232  57.5044670  42.2096100  79.3738098  59.0061073  42.3555641
   8.3892450  12.8440943  60.4625969   8.2931519  12.9374075  61.4103813
   8.1641064  13.7062569  60.1129990  60.4521370  39.9111633   6.2584109
  61.1680603  39.3388557   5.9824662  59.6578560  39.4276695   6.0312819
  13.2160263  30.9372578  16.9782505  13.8732052  31.4960880  16.5634556
  13.4757309  30.9050159  17.8989811  25.1693935  35.0492249   3.0490415
  26.0249805  34.9460411   3.4656448  24.5676823  34.5651436   3.6145859
  29.3647251  29.1029835  13.1900730  29.9289513  29.1423588  13.9622965
  28.8057671  29.8766785  13.2621412  30.4388161  60.1316681  15.3785553
  30.3688145  60.9180145  14.8372679  29.5320644  59.8784828  15.5515604
  81.9343033   4.6910729  64.5520096  82.1000366   4.4870062  63.6316185
  81.8135300   3.8377604  64.9685440  53.9193382  16.8214016  52.1953812
  54.1885757  16.0356712  52.6711655  54.5484390  17.4911366  52.4635582
  63.0616531  45.3396416  25.9206429  62.7379608  44.4413109  25.9874382
  62.4256439  45.8604813  26.4109974   7.7558060  68.5193710  53.5343208
   7.4424987  69.0404510  52.7950363   8.1353664  69.1603775  54.1353874
  20.2103214  21.2406750   0.1137467  20.4932919  20.4200592   0.5171657
  21.0200214  21.6479244  -0.1940906  85.9027405  46.9222031  53.2655487
  86.8526382  47.0402260  53.2662048  85.6111679  47.3218193  54.0850143
  13.5908175  53.1442146  33.0329208  13.7666731  52.2037315  33.0046654
  13.2513561  53.3506737  32.1620750   2.4251406  68.9235306  50.7904053
   2.5310278  68.0266266  50.4732666   2.6999891  69.4715195  50.0552902
   7.8445582  17.8302727  78.6213074   8.2341242  18.7031918  78.5714645
   7.3837686  17.8211823  79.4602432  50.5304832  45.5502052   5.9612384
  50.2183723  44.7396278   6.3634648  50.4716873  46.2022095   6.6595678
   6.4455185  56.4935532  29.3444710   5.6482139  56.1008110  28.9890976
   6.6012869  57.2601776  28.7928772   6.9816251  18.7860527  64.1714554
   6.2654500  19.1698399  64.6774521   6.8862100  17.8422260  64.2991867
  24.2048779  53.7422867  11.0420027  24.0677795  53.1781120  11.8030176
  23.3437252  53.7995071  10.6280289  18.2586880   1.2272599  29.9349804
  18.7258148   0.9695479  30.7297192  18.7482128   0.8129029  29.2244129
   1.1246082  19.0489407   0.1212737   1.2831959  19.3090057   1.0287139
   1.9915528  18.8294086  -0.2199663  19.3083515  61.0309906  58.6280022
  18.5051994  61.1572723  58.1227951  19.6604042  60.1981316  58.3139381
  56.9628906   1.2704055  54.9026031  56.2352448   1.0344980  54.3271828
  57.6933022   1.4402925  54.3077316  37.6611786  34.3868790  18.2919102
  37.8950615  34.4560356  19.2175179  38.4259682  34.7245407  17.8257465
  53.9154739  27.9490032  17.8375130  54.0794640  27.5546532  18.6941490
  54.7865486  28.0758858  17.4615364  45.4441299  32.4555969  44.0228271
  44.5268478  32.5257034  44.2872353  45.7101097  31.5821190  44.3100967
  77.1562576  35.1556206  14.4117231  77.9906693  35.6207085  14.3510828
  76.5669708  35.6450882  13.8377934  48.2063560  41.7341881  66.8786697
  48.8941917  41.4787025  66.2639771  48.6778374  42.0985756  67.6277695
  33.5017967  49.0489502  42.9331284  33.7279739  48.9015388  43.8514671
  32.5902672  49.3402977  42.9547501  85.1110077  21.1127052  15.3064861
  84.5272141  20.7933712  15.9945564  85.4990387  20.3205185  14.9348602
  69.2677917  71.0744705  46.1326218  68.5803070  70.4119034  46.0647736
  69.4918671  71.2809143  45.2252045  45.1964340  63.5578346  61.2092094
  45.1529312  63.1321335  62.0654335  44.6640472  63.0034142  60.6387558
  83.5034256  57.3415947  85.5338211  82.6900864  57.0580101  85.9512939
  84.1006317  57.5101280  86.2626343  49.0356026   0.4829639  37.2309456
  48.5034103   0.6177254  36.4468269  49.1013222   1.3514534  37.6279831
  83.8052292  49.3186417   2.2002835  83.5637360  50.0352364   1.6134214
  83.9845047  49.7453156   3.0381625  21.5253239  48.8473511  68.2008820
  21.1188564  49.0222130  67.3520966  21.1345024  48.0221405  68.4881439
  33.3803673  69.6846237  79.7398682  34.3285980  69.5573349  79.7101364
  33.1766052  69.7498779  80.6728516  11.6141300  19.2976704  14.9813929
  11.4852772  19.1251202  14.0487328  11.6737900  20.2510490  15.0425797
  70.3830643   7.3231416  75.2785034  71.2737808   7.3612466  75.6269455
  70.0007324   8.1708794  75.5052032  45.2383804  47.7491875  36.7627716
  45.4530373  46.8210945  36.6689911  45.7991905  48.0538330  37.4761543
  62.8138275  35.1443825   9.1262083  63.5987854  35.4955215   8.7057629
  62.2676010  35.9124908   9.2931890   2.8110130  52.4335060  36.6579094
   2.1355174  52.1469650  36.0432281   2.3454299  52.5566254  37.4851341
  81.9941864  54.1466408  48.9431648  82.1868896  53.3566818  48.4381294
  82.7976303  54.3189888  49.4340935  13.8530388   7.6042128  13.6499214
  14.3247299   6.8882632  13.2242975  13.6322165   8.2030315  12.9365587
  78.0044785  28.0066776  47.9133911  78.7916489  27.8007374  48.4175491
  77.3735733  28.3083973  48.5669632  20.0735035   4.1631727  23.6678581
  20.0620289   5.0600119  24.0021915  20.1714382   4.2618461  22.7208080
  15.7594166  60.3000412   6.0396628  16.1948795  60.1242218   5.2055817
  16.0324860  61.1881065   6.2698951  57.2572098  31.9335957  75.5416183
  58.1672134  32.1993370  75.6739426  57.1259193  31.9917126  74.5952454
  75.1674423  57.3764496  75.4423141  75.6746216  58.0915489  75.0580826
  74.4241104  57.2646370  74.8497009  53.2218094  46.8791351   7.9357052
  52.3561668  47.0642967   8.2998610  53.7620392  47.6185455   8.2143669
   0.9785669  63.4338722  86.5000534   1.1272315  63.3781395  87.4439926
   0.0405868  63.6047211  86.4149857  11.2531519  52.1544609   8.3057699
  11.4048233  52.8908844   7.7133927  10.6142406  52.4833794   8.9380970
   2.1649802  63.5663567   0.1762967   1.7410834  64.3835602   0.4384422
   3.0612290  63.8210602  -0.0430095  85.8782425  34.4296722  80.6261368
  84.9765167  34.6287384  80.8781281  85.8380890  33.5398788  80.2755814
  40.1121941   2.9354749  41.1864204  39.7221718   3.7676902  41.4538803
  40.1582489   2.9883745  40.2317924  65.8249969  39.8170700   1.5636089
  65.7373352  40.7696648   1.5970218  65.6801682  39.5953369   0.6437766
  48.1322670  68.1488647  22.1513958  47.5138283  67.4740067  21.8715210
  47.5799370  68.8805695  22.4266682  67.2114563  15.0857935  17.0874977
  66.3468018  15.4727240  16.9500561  67.2646637  14.3823748  16.4405041
  34.2311134  46.3162231  82.6113586  34.1838379  45.3678474  82.4906311
  35.1449547  46.4830170  82.8422394  41.4071007  49.3323021  32.1339684
  40.7317200  49.9472313  32.4202461  42.1909561  49.8708687  32.0255508
  58.4654236   0.2872594  15.4693031  58.0416756   0.2637797  14.6113300
  59.1076469  -0.4218560  15.4387312  17.7486496  16.2131424  74.9171829
  18.0848770  15.4250088  74.4905396  18.4962597  16.8104477  74.9403229
  18.0823727  41.2203789  32.2224541  17.8689423  41.5208511  31.3390541
  18.9399071  41.6043091  32.4053802  67.5746384  63.5913696  75.8305359
  68.4370193  63.1856880  75.9196701  67.5054245  64.1753006  76.5858307
  47.9645958  28.3724480  70.0681915  48.7284470  27.7988682  70.1295776
  48.3127937  29.2004585  69.7374496   9.7768469  64.4312057  71.9031982
  10.3659229  63.6890755  71.7673264   8.9255934  64.0316925  72.0820465
  16.6889820  67.5639496  16.5263290  17.0901756  67.0006866  15.8645020
  15.8094988  67.7383499  16.1911736  44.3659439  65.7462769  50.7679329
  45.0879440  65.4600220  51.3274078  44.1553535  64.9782028  50.2369461
  79.1005249   8.2700396   2.7576861  78.6973114   8.1853180   1.8936965
  78.3998260   8.0501261   3.3716033  58.5906677  13.8478155  88.9602890
  59.2322159  13.7273064  88.2602081  57.7799492  13.4805326  88.6080551
  29.9993076  30.7852612  69.1640396  29.2249660  30.3721600  69.5461044
  29.9920540  30.5068455  68.2482529   4.5724006   6.6965384   2.1684577
   4.0596170   7.0168428   2.9105427   4.6087108   7.4382343   1.5644704
  65.5646057  24.5885849  57.0373230  66.0769424  25.0848274  56.3989792
  64.7135391  24.4647350  56.6171188   9.3202753  44.1762962  88.3166199
   8.8064051  44.1350822  87.5101013  10.1719904  44.5151062  88.0409012
   0.2963086  52.0946693  34.0826340  -0.4851179  51.8805351  34.5922928
   0.5186185  51.2802620  33.6314735  10.8965197  41.6978760  78.3010559
  10.2118807  41.5751038  77.6434631  10.8748980  42.6344833  78.4973373
  65.3846817  30.1129875  29.4513988  64.6551514  30.5488205  29.0108757
  65.8670273  29.6815033  28.7461357   5.4403515  31.5898914  71.7573776
   4.8321843  32.0007477  72.3718414   5.0814838  31.7926865  70.8934784
  24.7819328  45.3595047  38.8987427  25.0516357  45.0044212  39.7457428
  24.3896351  44.6158524  38.4412270  55.2034111  16.9643917  66.8894958
  55.8678741  16.5834255  66.3153992  54.8347321  17.6875725  66.3822327
  41.4123497  51.5926704  68.4170151  41.2633400  51.2192192  67.5483627
  40.5835114  51.4643097  68.8783035  81.2824707  29.6095695  70.0224533
  80.8216858  30.1662521  70.6501617  82.2063904  29.6990147  70.2561188
  76.5300598  10.5873442  33.6530266  76.9394913   9.7222385  33.6392097
  76.4299164  10.8196983  32.7298737  67.5980453  30.1166630   9.5094528
  68.0162430  29.3286991   9.8565149  66.7027817  29.8439655   9.3085213
  50.8690109  52.9387741  71.5478973  51.1701050  52.5189552  72.3537064
  50.6455994  52.2109795  70.9676895  48.4896317  47.9640808  24.6204166
  47.5501137  48.1455688  24.5959435  48.8955460  48.7540359  24.2634354
  83.9910278  20.6067371  49.5478706  84.0354156  20.4607201  48.6029129
  84.8999481  20.7515068  49.8108101  78.4632645  13.0539474  53.6802025
  79.2239456  13.5543461  53.3849068  78.7881546  12.1587391  53.7765160
  43.3510513  52.2688904  74.3435974  43.8542824  52.0496216  73.5594406
  43.6329575  51.6278267  74.9961319  19.8094559  46.0453339  62.4579201
  20.0263634  45.1135292  62.4883270  18.8825874  46.0833168  62.6939316
  53.7320938  25.8572903  56.1796188  53.2261391  25.0450382  56.2016411
  53.8844719  26.0695896  57.1004601  29.2077675  28.7595100  10.2289181
  29.6629677  28.4430771  11.0092344  28.4152279  28.2249222  10.1806602
  13.3814039   3.0794415  27.4026871  12.4878712   3.2467990  27.1029835
  13.3932095   2.1452050  27.6107616   9.4422483  42.6692963  83.5882263
   9.9330835  41.9845047  83.1339493  10.1016445  43.1362801  84.1014099
  32.3291931  13.7272587  66.9813690  33.2834663  13.7139931  67.0550003
  32.0901070  14.6419420  67.1311111  48.7190399  30.9329128  69.1840363
  49.2566757  31.3456726  69.8599091  49.0509605  31.2923203  68.3613052
  51.5800667  30.3434963  50.9138603  51.8023376  30.4296227  49.9868164
  50.6554871  30.0957527  50.9164658   6.7344842  49.6587677  26.0398235
   7.3870096  48.9748802  26.1906223   6.0880575  49.2502594  25.4640732
  29.4293747  52.2497635  83.8070679  29.4315128  51.9667473  82.8926620
  28.9190178  53.0595589  83.8059540  30.9002705   3.2084670  71.4082184
  31.5703487   2.6343348  71.7791595  30.0819530   2.9082947  71.8038025
   5.2031713  67.0403976  37.7631645   5.6673226  66.2051468  37.8193054
   5.0160480  67.1482162  36.8306427  78.9402924  54.0762100  76.5000000
  78.5241623  54.0196762  75.6398392  79.8122253  54.4285126  76.3215485
  36.9334068  38.9420319  66.6007843  37.5304527  39.1321831  65.8771744
  36.9584236  39.7290268  67.1450653  62.7222366  35.8230209  40.9522858
  63.6751442  35.9134254  40.9570351  62.4586754  36.1110191  40.0783157
  57.5276184  35.2351723  87.8340073  57.5003738  36.1910095  87.7908478
  58.4419670  35.0302010  88.0294113  84.4410553  70.6478348   7.8255730
  84.4914703  70.9949341   6.9349499  83.8541489  71.2490997   8.2841015
  27.7501354   3.6373546  61.5999069  27.4733829   2.8203464  62.0148010
  28.6583214   3.7523420  61.8795624  31.1366253  43.6439476   5.7822833
  30.6621876  42.8200912   5.6709199  31.8773689  43.4195251   6.3454590
  29.1251831  67.8392944  73.7406845  29.9830933  67.8340836  73.3161926
  28.9524136  66.9197845  73.9428787  20.7407322  57.4870377  62.4902649
  20.7697334  56.6164665  62.0934067  21.4752769  57.9555702  62.0938377
  65.4150772  19.7955837  48.3898201  64.6623230  20.2529068  48.0150642
  66.0497360  19.7527943  47.6745491  54.0681038  45.2563972  84.8639832
  54.8132515  45.6462593  85.3211365  54.4164238  45.0059624  84.0083084
   9.7755861  15.1108894  13.1467800  10.4406939  15.2999516  12.4848757
  10.0574636  14.2852240  13.5405483  19.6847477  31.9003658  82.4648514
  19.1883087  31.3213215  81.8864975  19.8246098  31.3837528  83.2584381
  69.1616592  52.6644402  76.5576630  69.4902649  53.3883896  76.0246048
  68.4383621  53.0436745  77.0569153   3.4994917   1.7925756  60.2889633
   3.2107236   1.3616585  61.0934219   3.0577765   2.6416879  60.3002548
  58.3916054  71.6698532  20.2295475  58.4308052  70.8535385  20.7278709
  57.9636993  71.4286346  19.4079990  55.0394058  58.9455490  13.0910006
  55.0588455  58.5017166  13.9388609  54.3564873  59.6097832  13.1839695
   5.6477733  26.2151337  70.2089691   5.6641164  27.1644726  70.0876541
   6.5651064  25.9743996  70.3385086  15.6529007  69.6872711  32.6797523
  16.3048553  69.6961670  31.9789619  14.8375397  69.9483490  32.2516708
  10.7024460  64.8773422  74.7393112  10.3818102  64.6377945  73.8698044
  10.6148815  64.0763092  75.2559509  78.9728241  18.0521088  87.0940247
  79.5591431  18.2155514  86.3552780  79.4883423  17.5135231  87.6943512
  35.0906906  13.5550938  75.4335022  34.1916275  13.6084623  75.1093521
  35.0662575  12.8633480  76.0946503  27.6918068  46.3838120  79.1819458
  27.9071293  46.3283234  78.2509308  26.8233833  46.7858200  79.2033920
  58.5050392  52.1445847  70.3898926  58.6127853  51.2268715  70.6397476
  59.3726692  52.5297318  70.5128098  24.7820587  31.5573349   6.8091173
  24.1636600  31.9242439   7.4409342  24.6240711  32.0514526   6.0046802
  64.6515961  52.9156876   1.6267083  64.0965652  52.1571083   1.4457880
  65.5365753  52.5559845   1.6871614  29.0996304  36.0962372  51.9183350
  30.0376415  36.1000061  52.1089897  29.0354824  36.4334297  51.0247917
  83.8569031  41.7139091  37.7208977  83.6735153  40.9028435  37.2467918
  83.0553970  41.8896942  38.2137642  79.6623459  45.5770493  80.1909943
  79.0970993  45.5868378  80.9634171  79.9084167  46.4931335  80.0626450
  49.9131355   5.6941218   7.5631762  50.4275894   4.8869238   7.5624218
  50.5465813   6.3816662   7.7687521  40.3044243  20.4123669  68.4981766
  39.9696312  20.9916706  67.8136673  39.9255333  20.7544270  69.3079071
  72.8879547  59.4677773  73.8745880  72.7801590  58.5587082  74.1542435
  72.3816223  59.5308723  73.0647202  26.8363152  29.3768673  15.1675215
  27.6308289  29.4579296  15.6951666  26.5953331  28.4531670  15.2377958
  58.2825623   1.2573546  62.0465355  57.4232597   1.3386185  61.6327400
  58.0906525   1.1513388  62.9782867   4.5843673  38.3893166  67.2325134
   4.2962751  37.5504646  67.5924606   4.5517082  38.9924583  67.9750671
  53.0709763  41.0415573  60.3683548  52.1254692  40.9597397  60.2436562
  53.3322868  41.7394562  59.7676163  58.7829437  16.8233929  12.1399822
  57.9016685  17.1844349  12.0438643  58.6427765  15.8927727  12.3147116
   7.3117290  24.5179901  63.3481407   7.4218898  24.7797718  64.2622375
   7.4257326  23.5676346  63.3557625   2.2900193  50.7106972  53.6241455
   2.9071310  50.7275848  54.3556633   1.7366780  51.4798813  53.7597847
  26.0297184  60.0818443  36.5984077  26.4631252  60.4909172  37.3474388
  25.1129417  60.0074959  36.8634033  24.9585018  47.5840683  57.1357841
  24.0766468  47.9121742  57.3115997  24.9178295  46.6548500  57.3618965
  20.4437714  16.9929352   2.3730800  20.2921257  16.3220768   1.7073605
  20.9738426  16.5544090   3.0386252  47.8382454  14.5203609  40.1862183
  47.3362160  14.2151766  40.9419060  47.3783569  14.1557217  39.4300613
   3.4120009  27.5734406  51.0066528   2.5602112  27.7147942  51.4198189
   3.7081850  26.7307415  51.3506927  25.7775345  48.4002342  85.0225296
  25.2926674  48.0907402  84.2574539  26.1094971  49.2600021  84.7640076
   0.7914019  50.5754700  63.4389114  -0.1001557  50.9087944  63.3376694
   0.7868170  49.7358246  62.9793358   4.7337356  50.3728180  11.9086494
   4.0443268  50.4970322  11.2563314   4.4702849  50.9261894  12.6439085
  42.4912491  50.2871742  19.6090813  42.1888123  49.8176117  20.3864326
  41.7160797  50.7512665  19.2929077   5.8070121  53.8189354  46.6084976
   5.7800665  53.3687019  47.4527664   6.6443710  54.2826767  46.6109772
  32.4988518  49.2018852  58.5864334  32.8579788  48.4928627  59.1198616
  31.6578217  49.4066658  58.9950523  74.5909882  65.2351074  57.7766571
  75.4384766  64.8454514  57.9915276  73.9839706  64.4951401  57.7619896
   9.0408773  12.7308140  63.5669785   8.2400560  12.5181026  64.0462189
   9.1512175  13.6734610  63.6913719  51.7709999  27.6084938   5.3219414
  52.0986481  28.2541714   4.6958594  51.1180115  28.0833397   5.8361015
   3.5338612  55.5809441  78.9134598   3.9267771  55.1110687  79.6490326
   4.0623927  56.3742104  78.8261948  46.7862549  27.8304691  37.5310516
  46.4665108  27.0575047  37.0657310  46.2810974  28.5564251  37.1649475
  18.1189022  37.4170418  53.6505623  18.8101540  36.8048553  53.9028130
  17.5089798  36.8901024  53.1342659  21.9752502   2.3284352  14.6522493
  22.7248573   1.8656774  14.2778502  21.4846859   1.6517419  15.1187944
  28.5843334   5.6663718  86.7963715  27.8376350   5.9363523  86.2617874
  28.5383530   6.2255831  87.5718765  70.8003159   6.6673532  47.1422043
  70.2710953   6.0167112  46.6808777  71.6083984   6.2048965  47.3643913
   8.4561243  69.9765930  14.3697948   8.8308802  69.3950348  13.7082958
   7.5968490  69.6003418  14.5603523  64.9620514  20.0772743  19.0951042
  64.0163040  20.0669231  19.2424011  65.3406830  20.1238041  19.9730015
  41.3340187  47.9756279  18.4547291  41.8681984  48.7352753  18.6867237
  41.2640762  47.4748077  19.2674522  23.0444202  24.9620228  80.4444809
  23.7155247  25.1122189  81.1102829  22.3880844  24.4211655  80.8837204
  57.6177979  51.3767395  36.8806038  58.2576218  50.7483749  37.2152863
  56.8151283  50.8666153  36.7723312  82.9223251  28.8191738  22.2824001
  83.5502701  28.8793888  21.5624752  82.0680771  28.7792130  21.8524017
  50.9401016  55.6225548  81.2639999  50.4270630  54.8144913  81.2714233
  51.8256493  55.3462029  81.4999466  72.5253754   3.9476795  50.7277298
  73.4775391   4.0222592  50.7914162  72.3786545   3.0931280  50.3222084
  81.4304276  56.7276039  19.3564358  80.6196823  56.9552307  18.9013538
  82.1095963  56.7983551  18.6856403  27.7000446  23.4162903  12.4733238
  28.1690521  24.0956669  12.9577932  26.8028545  23.7437210  12.4095030
   5.3017273   6.7148566  87.2941208   5.7010813   6.1946368  87.9913406
   6.0021338   7.2961235  86.9978180  65.2639160   7.6940465   6.6686139
  64.3382187   7.4904542   6.5349278  65.4436874   8.4059706   6.0545454
  18.1605358  16.2756710  15.6029167  17.8907738  17.1792793  15.7670937
  18.0979443  15.8480864  16.4570160  57.9642410  71.1973495  79.6586227
  58.0333366  71.1801376  78.7040710  58.7012520  71.7382050  79.9423904
  16.4188919  53.9076538  62.8014297  16.5704384  53.2316322  62.1409264
  16.4939289  53.4470558  63.6371651  41.9328575   2.6523495  10.1313791
  41.7397118   2.9806936   9.2532463  42.8193436   2.9638672  10.3139534
  83.6349487  59.1523247  49.9863052  83.7780762  58.4998856  49.3006859
  84.0319443  59.9524460  49.6421700  61.6236305  61.2984810  17.5759983
  61.5182381  61.2568741  18.5264683  60.9848137  61.9525642  17.2925892
  15.1872473  38.0506020  87.2322006  14.5473175  37.4191093  87.5607376
  16.0049820  37.8121834  87.6688919  71.9928818  20.8236752  14.8108797
  72.5074615  21.1490841  14.0722675  71.9290009  19.8804131  14.6611938
   0.3796936  27.4841785  80.4854965   1.0675981  26.8956051  80.1746902
   0.7906507  27.9800758  81.1936111  80.6933289  41.5914421  37.7484474
  80.2819366  41.2346382  38.5356445  80.5334473  40.9309959  37.0742989
  81.3039398  26.2060490   0.1251339  80.6043472  26.6493454   0.6050188
  81.9781113  26.8759651   0.0113829  27.9361992  46.9419975  27.4647713
  27.3603344  47.3855896  28.0875378  28.6134987  46.5403709  28.0090084
   0.2497681  31.4131603  68.6069183  -0.5876302  30.9514523  68.5642319
   0.7146655  30.9992905  69.3341141  76.2695007  46.2315941  70.5389252
  75.4497070  46.1510773  71.0264511  76.1814880  47.0535889  70.0564270
  17.4360867  38.2473946  42.7029686  16.5643291  38.5161400  42.9928741
  17.3816910  37.2943726  42.6320572  71.5267105  15.1031017  11.8250914
  71.4312286  15.0449915  12.7757425  71.3906860  16.0296268  11.6269026
  56.4160843   8.4473715  24.5145874  56.1739998   8.2362051  25.4162731
  55.5805397   8.5233145  24.0537910  83.4199448  70.2724075  61.2636528
  83.2014923  70.4992599  60.3597450  83.9042587  69.4497375  61.1937752
   6.4817963  32.2437515   7.4174776   6.6400256  32.9291420   6.7682972
   5.7531815  31.7373657   7.0584121  45.0115013   1.1633726  41.9474449
  44.9310074   0.2204329  42.0910339  45.7938728   1.4144863  42.4384346
  51.1090508  38.2131271  64.1210403  51.6313248  38.2889366  63.3224678
  50.8426857  37.2940903  64.1466751  12.5696974  46.6212044  32.8808174
  13.2161160  46.9701958  33.4944763  12.8101473  47.0031662  32.0367088
  40.8416901  45.8952065  20.6024475  41.0425682  45.4090691  19.8027306
  40.6763268  45.2185173  21.2589378  23.3455887   5.1407275  25.0314102
  23.0622940   4.2467074  24.8398285  23.9878311   5.0430050  25.7344093
  48.0178261  17.5132141  64.2328949  47.1204414  17.2252083  64.0655975
  48.5594749  16.9311333  63.6999512   4.8444438  43.9874916  79.4954147
   5.0000253  44.2808304  80.3931808   5.7133489  43.7620621  79.1631241
  70.0384598   4.5203691  24.6913280  70.9855423   4.4951687  24.5548401
  69.6711349   4.1435852  23.8917427  40.1402206  31.2995701  74.2370148
  39.4130249  31.9220009  74.2377777  39.9135895  30.6673012  73.5550232
  76.1249237  46.8053551  29.5968971  76.4084473  45.9254913  29.3485336
  76.9284973  47.2475929  29.8706264  38.2928429  50.8668594  10.6321898
  38.6245270  51.7630234  10.5764341  37.4399834  50.9531898  11.0581055
  80.7183609  59.9844284  81.1845093  80.5863037  60.5143547  81.9706268
  81.3964005  59.3553009  81.4308777   6.3268251  66.9324799  72.4675903
   6.5229750  66.3734512  73.2194214   5.9605484  67.7294769  72.8508301
  57.9872208  68.6893921  14.1962681  57.7357483  69.5033798  13.7599010
  57.1577263  68.2439651  14.3687840  85.0543823  54.1861801  70.5616913
  84.9602280  54.7297554  69.7794571  85.8280411  54.5352478  71.0042191
  11.4496231  55.2068939  24.1695938  12.3960018  55.2662735  24.3002567
  11.1680422  54.5154877  24.7686787  55.8807831  31.8081837  50.1366997
  55.2866211  31.1393318  50.4770546  55.4782333  32.0906601  49.3154869
  79.5119705  48.1588135  71.2048340  79.9203796  49.0243988  71.1909256
  78.5750580  48.3373222  71.2858276  84.0103912  48.2294312  83.2617340
  83.2473755  47.7045860  83.0196991  84.7602463  47.6720695  83.0536652
  50.1944923  18.5152664  24.4982891  50.8846207  18.8445721  25.0740585
  49.3857346  18.8722172  24.8653450   5.6774378  28.5469398  21.4648914
   5.8461204  27.9025764  20.7774525   6.3356175  29.2271595  21.3222980
  70.2904892  29.7679119  74.9084778  70.2704773  29.5424728  73.9784241
  69.8356323  29.0446796  75.3400726  64.5236130  33.4064255  28.5897102
  63.7746849  33.1833076  29.1424866  64.3328781  34.2893143  28.2729168
  32.8833694  39.7202339  62.4839439  33.8194885  39.8810196  62.6025124
  32.7312012  38.8724365  62.9014549  75.5131683  23.7019081  64.3472214
  75.5539627  22.7632713  64.1641159  75.6251678  24.1177788  63.4923897
  81.1455688  58.1342049  11.8017731  81.9565353  58.6375847  11.7298393
  81.2683334  57.5923691  12.5812435   0.6129438  43.6346016  34.8039207
   1.2829165  44.1065903  35.2984886   0.3033825  42.9576759  35.4057312
  68.8012848  71.0739899  26.0055065  69.1816330  71.6131210  26.6989822
  68.6924133  71.6742935  25.2679310   6.8490262  21.5676479  63.5731392
   6.5571260  21.8274765  62.6993446   6.7457838  20.6161327  63.5870590
  85.7150574  47.4557610  24.3574333  85.6181259  46.9237099  25.1472168
  86.6392288  47.3705368  24.1231632  48.2502098  59.1970253  16.7817478
  47.6657410  58.5809898  16.3400211  48.5541458  58.7249374  17.5569820
  14.7047291  11.8955841  82.2345886  14.2676010  11.5242996  83.0009384
  14.0811224  12.5343819  81.8892136  69.4496460  17.6141720  62.7022591
  69.3942871  17.9724178  63.5881653  70.0876846  16.9039116  62.7705612
  13.4530649  49.0911293  56.0949554  13.4959393  50.0467300  56.0599747
  13.0782480  48.8995018  56.9546165   3.7000265   1.0622483  42.2880096
   4.0302353   0.3732151  41.7114449   4.4735770   1.3709168  42.7597885
  52.5895996   1.5650741  17.9039783  51.8291779   2.0614161  17.6012707
  52.2370796   0.9624740  18.5588322  36.5466690   1.2107673  37.3044853
  36.2405281   1.3966365  38.1921577  36.8087616   2.0636997  36.9580116
  34.9946709  52.4944611   0.5539893  34.7404671  53.3836250   0.8009724
  35.5755997  52.2070503   1.2583663  27.8778286  37.6098022  14.1191998
  28.6188087  37.0149422  14.0037842  27.1247005  37.1216393  13.7864418
  84.5378418   6.1857462  24.4790535  84.4551315   7.1355686  24.5640755
  84.3989105   6.0156736  23.5473843  15.4217596  13.8634491  86.2106857
  14.4846735  14.0191984  86.0930328  15.6033554  13.0856075  85.6832275
   3.8008361  47.5876503   8.1465254   4.6052880  48.0812950   8.3059111
   3.9955082  46.7046089   8.4604959  57.0432625  41.4815063  64.3566055
  57.3248215  40.6533546  63.9678574  56.6532059  41.9669571  63.6296730
  62.7509155   0.3705941   5.2090483  63.0191383  -0.5478948   5.2348723
  62.3715782   0.5337045   6.0726056  86.2297974  69.3766937   9.3390551
  86.1650391  69.9999237  10.0626755  85.6041336  69.6977921   8.6896896
  55.8749809  17.7030296  62.9382935  56.0443039  18.3960342  63.5764999
  55.4025040  18.1401138  62.2298050  27.3693218  64.7819824  86.4049835
  28.0583992  65.0568085  87.0098648  27.6981659  63.9693985  86.0205383
  56.8845444   1.8857433  29.9348164  57.5405312   2.5748374  29.8296375
  56.4084320   2.1275344  30.7292271  16.4753036  67.9727478  82.3413773
  16.3440266  67.5850143  83.2066345  17.3887730  68.2587585  82.3431778
  22.1110916  12.0967770  32.7449493  21.5467968  12.8698483  32.7320900
  21.8552208  11.6005163  31.9674625  30.9838543  30.4766808   7.1975470
  30.8011780  30.1678047   6.3101592  31.5754280  31.2192535   7.0756526
  68.7775803  31.9091778  40.4071312  68.9244308  32.7706985  40.0166855
  68.8003082  32.0669441  41.3509674  55.9442368  18.8700085  57.1869392
  56.4660797  18.2809200  56.6420631  55.0947266  18.9127235  56.7479210
   0.9745686  26.5952511  55.2185402   0.5467209  26.7063675  56.0675583
   1.7855935  27.0984097  55.2913589  67.1235657  32.0770035  49.6701012
  66.7532730  31.9923229  48.7915001  67.9290543  31.5606766  49.6413193
  84.2423477  40.1118202  85.2944031  83.8199768  39.4439468  84.7542343
  85.1774902  40.0041161  85.1207809  57.8561897  28.4187412  74.3888702
  58.0231628  28.4569664  73.4471283  58.6768494  28.7055855  74.7894592
  71.7470856  46.6106224  84.4626083  72.3577271  47.2300797  84.8621445
  72.2912979  46.0783157  83.8823395  10.1083736  67.6647034  66.9143829
   9.4291821  68.1468811  67.3860168  10.4762182  68.3040695  66.3043518
  42.3820229  12.4962921  62.3311729  43.1202393  13.0106792  62.6577797
  41.7984123  12.4095774  63.0849037  26.4631081  67.9724884   3.0073938
  27.0689468  68.4718857   2.4598598  27.0174770  67.5809021   3.6823530
  43.1782990  37.3832054  25.0538025  43.3159904  37.5032349  25.9934101
  43.2490425  38.2644463  24.6868668  38.1345787  68.5267410  15.5117178
  37.1920662  68.5502548  15.3463306  38.5311089  68.7523880  14.6702433
  46.1098442  47.8548355   6.9241376  45.9849319  47.3666382   7.7379518
  45.2457047  48.2159424   6.7264123  11.4274578  37.0804634   2.9237347
  11.8385925  36.2320747   3.0893762  10.9109411  36.9452705   2.1292746
  50.9400139  25.8521748  66.9869690  51.1330948  26.7861519  66.9055099
  49.9855080  25.7997551  66.9379120  21.3257885  51.3382645  16.6086407
  21.2414436  51.3759651  15.6559086  22.2630444  51.4458275  16.7705555
   6.3355784  66.7650757  55.4910698   7.1073766  67.3122787  55.3457184
   6.4362526  66.4419479  56.3864403  59.9936409  17.5476933  67.8062820
  60.6718483  18.1849632  68.0302429  59.1862526  18.0604591  67.7685318
  81.3479309  68.3752823  65.3566437  81.6363983  68.6440430  66.2288742
  80.4969101  68.7989044  65.2447205   1.9378091  35.5161629  31.8517742
   1.6082128  36.3134995  32.2663269   2.5782125  35.1701622  32.4733849
  11.9204540  39.2815590  54.5076752  11.5329123  39.0979500  55.3634377
  11.2251606  39.0795898  53.8815689  58.9523163  48.8537712  12.9209881
  58.6965446  48.0735130  12.4290438  58.4669647  48.7881813  13.7433996
  12.4931211  29.2965012  58.4041862  13.2181482  29.1542301  59.0127335
  11.7952604  29.6659164  58.9452553  38.2846909  40.3855705  79.2618637
  38.1698341  41.3358498  79.2652664  37.8417740  40.0936356  78.4651031
  85.3971024  31.8665600  71.8447342  86.1328506  31.2561455  71.8927307
  85.8035202  32.7330856  71.8584824  69.2307892  50.8227348  70.5355301
  69.5970078  51.4982224  69.9647141  69.9391098  50.1873932  70.6397552
  50.1259041  65.2352600  27.2619343  49.4050331  64.7875061  26.8191109
  49.9488297  65.1102982  28.1942749   9.9599972  62.1532173  88.3198242
  10.7658920  61.6370201  88.3373413   9.2781105  61.5422554  88.5990829
  25.4481010  55.3586807  25.7754478  24.5457478  55.4312019  25.4644318
  25.9221115  54.9616547  25.0447521  30.5773697  61.1581879  18.1601925
  30.6957836  60.4918633  18.8371124  30.7484760  60.6979370  17.3385315
  24.6697807  65.7483139  82.2037277  25.3471260  65.0911942  82.3638229
  24.5674610  66.1963043  83.0434036  54.3189125  56.2541237  35.3916130
  54.6921654  55.3750572  35.4560699  54.5165520  56.5332870  34.4976120
  31.7653542  67.9623642  71.2008820  31.9757481  67.5089874  72.0172272
  32.4480972  68.6275406  71.1135025  46.6220016   4.2018199  66.0222702
  47.4656181   4.5435772  66.3184891  46.3317146   4.8249078  65.3561401
  21.6658516  65.3587646  61.2995338  21.7327499  64.5590668  61.8213005
  22.2658710  65.9722977  61.7235489   0.7906092  61.3608284  53.7219658
   0.1304468  61.9820099  53.4144745   1.3544393  61.2149429  52.9623337
  59.2220116  70.9160843  88.8274002  59.7516518  70.4199600  88.2032394
  59.1242447  70.3298416  89.5777283  34.5679893  30.3441544   0.5647678
  34.3235970  29.4719238   0.8741510  34.3001556  30.3561115  -0.3541192
  41.6971931   1.4195329  14.2186985  41.1097679   2.0805779  14.5850077
  41.1620674   0.9529476  13.5766926   9.8872948   9.6088114  15.4616194
  10.0358267   9.9424791  14.5768385  10.1757441   8.6968327  15.4252338
   7.0602484  34.8004570   5.5153136   7.6195765  35.5711250   5.4180694
   7.6194057  34.0654106   5.2637553  66.0635605  23.0295715  45.8516350
  66.1642303  23.9800816  45.9028816  65.2947845  22.8997364  45.2963448
  68.9568481  16.8259869   3.2611794  69.5004120  16.0389099   3.2254076
  69.4554596  17.4369564   3.8037062  26.4263420  62.5789642  54.1267624
  26.6145096  61.6496735  53.9954491  26.0171871  62.6206894  54.9911003
  45.5471764  34.2861443  68.5857162  45.9111252  33.6124229  69.1600571
  46.0598907  35.0703659  68.7815628   2.9165049  69.4404907  36.6475296
   2.3572385  70.0649719  36.1855011   2.3488700  69.0615768  37.3186836
  66.6266403  20.4874763  40.8100471  66.9397430  19.6041031  41.0045967
  65.7604523  20.5292377  41.2152786  50.0122948   3.1151779   3.4628079
  49.1455460   2.7604938   3.2648726  50.5481071   2.8738339   2.7072365
  72.3088531  36.8876991  15.5994596  72.0481415  37.7934532  15.4325075
  73.2584076  36.8856544  15.4787512  46.2919197  11.3198318   7.2269268
  46.7030983  12.1838608   7.2020593  46.9930534  10.7287264   7.5012193
  21.8875446  39.9508629  60.7725067  21.0269299  40.3684311  60.7377014
  22.4385204  40.4901009  60.2051620  48.6469460   7.0802550  46.0015068
  49.5977974   7.1902671  45.9982414  48.3173561   7.8583121  46.4512100
  51.2604790  57.5566444  40.4861526  52.1088676  57.9963570  40.5420189
  51.4115334  56.8188744  39.8953018  17.3039608  30.4450836   4.8665352
  17.0728588  30.6599045   3.9628339  16.5475750  30.7273731   5.3807588
  30.6236153  49.1877098  71.9368820  30.6365395  48.5790100  72.6754913
  30.1290073  49.9421577  72.2568893  34.2081184  62.6489906  83.0349426
  34.6286163  61.9663353  82.5120697  33.2726402  62.5391388  82.8645096
  60.4520912  26.8156128  67.8901062  59.7180367  26.7213764  67.2830505
  60.4610481  25.9958401  68.3841934  24.8730755  46.1098328  63.2750435
  24.4392414  45.3663635  62.8563881  25.7768059  45.8203201  63.4002876
  68.4320755  53.5443611  25.6828575  68.8816147  53.9755478  24.9560661
  67.6936874  54.1196747  25.8829060  46.2762146  61.4980125  37.9967041
  46.5310478  61.0645599  38.8112030  46.9065666  62.2115173  37.8977127
  81.5015030  26.8440628  15.5447502  80.6233978  26.6831436  15.1993904
  81.3635330  27.0270252  16.4741173  15.3968477  50.3896370  71.2762985
  16.1768379  50.9442558  71.2606735  14.7611532  50.8549690  70.7326126
  58.0125580  39.0680618  27.3702335  57.6472549  39.5685196  28.0998421
  58.9542694  39.2339668  27.4137096   0.0827619  67.9216003  30.1451721
   0.6412109  67.8145065  29.3751736   0.5274248  67.4277496  30.8340969
  86.7409515  51.5768089  51.2360649  86.3781662  50.7016258  51.0994263
  86.4116440  52.0904274  50.4985123  57.7369385  53.7893105  20.1778297
  58.6907539  53.8546486  20.2247124  57.4374046  54.6964340  20.1175060
  78.2705765  36.1161537  72.0406036  78.4432831  35.2952538  72.5016174
  77.3657227  36.0356674  71.7389603  46.5062485  57.7667122  15.4606390
  45.9131699  58.1387558  14.8078947  45.9526253  57.1882896  15.9851961
  60.5092430  16.6843967  48.4982681  61.3498802  17.0292568  48.1972198
  60.0361519  17.4524097  48.8185387   1.2770053   9.7303600  38.4358292
   1.4406859   9.2847729  39.2670288   0.8311664   9.0765543  37.8973160
  58.0384636  40.7717972  49.8779793  57.6461601  40.0397110  49.4021873
  58.5244904  41.2575836  49.2116318  86.8691940  22.1652641  68.3694687
  85.9733276  22.0949898  68.6991882  86.8626251  22.9517574  67.8239212
  34.2459412  66.2971191  81.3270035  34.9890823  65.7240829  81.5156937
  34.6368446  67.1609573  81.1958466  37.0114594   1.6521064  25.6012306
  36.6314316   1.7004451  26.4784298  37.1646729   0.7182113  25.4577160
  36.2788773  62.2453499   5.7466831  36.3849945  62.1018906   4.8062630
  36.7984467  61.5527077   6.1547589   8.4192390  51.9924889  26.2611942
   7.8612390  51.2151413  26.2366962   8.0214424  52.5519409  26.9282780
  79.9865417  39.2963486  75.9951324  80.4454117  39.6152878  76.7722702
  80.6203156  38.7261276  75.5599289  43.2989349  23.2043953  17.5847435
  43.3470192  23.9253006  18.2126102  42.8893394  22.4894352  18.0718746
  39.1344147  18.3640461  71.2704697  38.7850647  18.7005424  70.4452667
  38.5455132  17.6468620  71.5051498  23.7640324   7.9508848  16.0127583
  23.9788628   7.4292626  16.7860565  24.5632687   7.9388843  15.4861555
  13.7170858  52.1907578  56.0034790  13.4372072  53.0366516  55.6536751
  13.2904186  52.1320610  56.8583145  51.0749664  65.8896942  78.2828751
  50.5123520  66.3137054  77.6348724  51.9077568  66.3573380  78.2196121
  81.0309372  44.9710007  30.0241013  80.3583603  44.3347969  30.2672443
  81.8218002  44.4468689  29.8974190  49.8202057  38.7354813  37.5380592
  50.0912437  38.8423691  36.6262817  49.7264862  37.7895699  37.6507530
  11.7012157  20.4287701  11.1002645  11.2014475  20.7358227  10.3438368
  12.2131071  21.1898365  11.3740797  54.8405876   1.3407010  79.7909012
  53.8901558   1.3450379  79.9044418  55.0572243   0.4241058  79.6201553
  78.6839752   9.2434530  21.0626373  79.2863922   9.9848785  21.0025177
  79.2531815   8.4787731  21.1492500   3.2133949  27.2259579   1.7759503
   4.1673331  27.2142601   1.8540354   3.0398943  27.8241539   1.0491145
   6.1954765  63.8458405  80.0524216   7.0278502  63.5914383  79.6540985
   6.4448004  64.3413086  80.8325424  57.7113762  64.6877213  76.5119171
  57.8109818  65.4381943  77.0976715  58.6076088  64.4040909  76.3315201
  26.9956818  40.2257156  40.2914238  27.4537926  40.0492783  41.1131516
  26.9626656  39.3776741  39.8487434   4.6178317  63.3421898  13.2539539
   4.4968486  64.2907257  13.2973375   5.4467812  63.1855354  13.7062082
  11.0836325  64.2778168  11.2921972  11.0152969  64.1900101  12.2429085
  10.4772367  64.9851913  11.0727940  59.3906670   8.8466702   4.7483392
  59.6471214   8.1724863   4.1191044  59.9429016   8.6832113   5.5128980
   4.8039370  69.6546783  38.6089897   5.3408165  68.9047546  38.3528481
   4.2279053  69.8040771  37.8592567   8.9349604  63.8183670  30.8902111
   9.4432240  63.7204590  30.0850315   8.0247974  63.8543549  30.5960331
  40.7472687   2.1616106  58.4525757  40.4058304   1.7050899  57.6836548
  41.6127625   1.7780559  58.5941315  16.0492306  64.2446365  67.5063705
  16.5561333  64.1953583  66.6959076  15.1890182  63.8960190  67.2724228
  47.7222557   0.1201014  80.2564240  47.0123863   0.1599877  79.6155472
  47.3642464   0.5428768  81.0370178   7.9023438  24.7308674  49.1913643
   7.1096082  24.8790474  49.7069664   8.2188263  23.8746452  49.4793816
   1.6382574   3.7036200  29.3354511   1.6791313   3.5638912  28.3893871
   1.1765401   4.5361853  29.4348698  72.9117508  11.4096785  86.8316345
  73.0078583  12.2112312  86.3173294  72.4040680  10.8240862  86.2698822
  24.1362915  61.6205215  40.0348167  23.9927177  60.6936035  40.2257271
  24.8377399  61.6250648  39.3835220  55.4418869  31.9416828  12.0519400
  55.1672173  32.3176308  12.8882723  56.3609505  31.7091599  12.1841764
  54.7587700  64.3777161   4.7864676  55.3017616  63.6559944   5.1035008
  55.3466415  64.8964310   4.2373056   1.0344012  52.7151489   2.9909859
   0.9500316  52.0362511   3.6604714   1.6746489  53.3286858   3.3513882
  17.9975433  17.8292141   4.1594505  17.3552761  17.6240444   3.4800165
  18.8431683  17.7729950   3.7144899   3.1269841  50.0917549   4.5514374
   3.8770092  50.6297646   4.2979860   3.4570065  49.1936035   4.5260682
  84.5955353  69.8929291  44.9004173  84.9900208  69.0280457  45.0126190
  83.8847580  69.7526550  44.2748375  84.5153503  55.1002426   1.0608559
  84.7336578  55.8206635   1.6520991  84.6604919  54.3104668   1.5818342
  56.0747528  18.4934368  70.5643768  56.5452423  19.3092270  70.3930283
  55.9210587  18.4994831  71.5091324  48.6590881  47.8246727  44.9168663
  48.7698326  48.5807724  44.3404274  47.8803215  48.0299225  45.4341888
   5.2026916  67.4679337  79.6858521   4.5331097  67.0085983  80.1927032
   5.3154988  66.9344940  78.8991165  10.4414377  59.2712593  85.7127075
  10.8444500  59.6553268  86.4913635  10.6294451  59.8963852  85.0126266
  17.9689178   3.8206124  59.6220512  17.6247826   4.6627483  59.9197273
  18.5460815   4.0425048  58.8913803  57.1764336  33.3698006  55.4833183
  56.8537674  33.9219017  54.7710686  58.0985947  33.2224541  55.2732239
  52.6064949  46.0044212  70.8832169  53.2424927  46.4191971  70.3003769
  52.5712624  46.5796471  71.6474838  12.3180838  53.7802086  11.1536646
  13.0554485  54.1274338  11.6556187  11.8937225  53.1616173  11.7482204
  64.3026886  28.4161472  26.3936825  63.4982224  27.9806252  26.1119308
  64.0069199  29.2442455  26.7718391  28.9075394  59.4003563  77.6162262
  28.4483051  59.1522331  76.8138733  28.3560791  60.0774651  78.0082016
  23.3288116  62.0757256  66.8574448  23.7950649  62.2247047  67.6800308
  22.6421871  62.7425613  66.8471527  61.9497452  20.5747547   3.6970763
  62.0711250  21.3537998   3.1543169  62.5459251  19.9264431   3.3222563
  80.1993332  13.8467731  46.0279541  79.9654999  13.2345896  45.3302536
  80.3356247  14.6810284  45.5788727  71.8173447  33.9198761  58.5654106
  72.4111557  34.0196075  59.3095016  72.2802963  33.3341827  57.9663544
  50.4405136  39.6631584  57.1586304  49.6559563  40.2099075  57.2006989
  51.0747223  40.1912117  56.6736870  77.0436096  38.8855667  59.7791672
  77.0646667  39.8387146  59.6937180  76.7575912  38.7320824  60.6796494
  73.8437805  19.4138927  18.2155380  73.3453903  18.7005367  18.6142368
  74.2406693  19.0229473  17.4371605   2.3116028  10.0156603  64.3743820
   2.7782290  10.5071383  65.0503540   1.4165462   9.9431391  64.7058105
  31.8993397  68.5731659  52.7508583  32.1623688  68.4464569  51.8392715
  30.9541092  68.4222641  52.7505913  57.9518127  29.4900284  65.4464569
  58.6206360  29.6982632  66.0987930  57.1282578  29.7587929  65.8535843
  69.4080276  38.6219177  76.0231400  69.3706055  38.2989311  75.1228561
  68.5868301  38.3279190  76.4174042  84.3637161  14.5759134   9.6589565
  84.4368668  14.8244648  10.5804243  84.5464478  15.3830452   9.1779394
   9.7967558  56.6589012  65.6508789   9.2587795  57.0478020  66.3404999
  10.2837076  55.9622917  66.0911560  69.8816299  11.3065176  17.7236176
  70.5320358  11.9056711  17.3572540  69.9543152  11.4241295  18.6707783
  10.4607439  43.9583626  19.2420349  11.3879175  43.8401222  19.4484310
  10.2274828  43.1813774  18.7339878  62.8794746  37.9863129  88.4591827
  62.8085213  37.0563393  88.2438965  63.7490196  38.2384300  88.1484451
  22.4336624  14.0275288  84.7453613  21.7336578  13.5110502  85.1446991
  22.4618015  13.7301350  83.8359604  10.8956957   4.4426427  27.5368671
  10.7651958   4.5307922  28.4810238  10.1432381   4.8888702  27.1483822
  54.9957237  30.8788128   5.4037766  55.3454018  31.7260761   5.6796412
  55.3588600  30.2539883   6.0314388  57.7139053  19.8859348  30.5683537
  56.8420525  19.6302414  30.8695602  57.5498161  20.4684658  29.8267593
  79.6664352  43.3651047  44.5937195  79.3738022  43.1554832  45.4806519
  79.2556000  44.2073860  44.3987503  82.0713654  13.5954409   6.4239683
  82.1296387  13.9829493   7.2972794  81.7924118  12.6932497   6.5803876
   3.2804191  70.0980072  48.5793343   3.2247918  69.6711426  47.7243919
   4.0886779  70.6092529  48.5396423   6.6528625  47.8309135  52.5617332
   6.8825974  48.7571297  52.6364288   6.3516278  47.5875130  53.4370880
  48.4033012  10.1300077  86.2808609  47.9822922  10.2885036  87.1257629
  47.7357712   9.6825743  85.7608185   6.3671479  69.2265854  60.4006119
   6.1870561  69.7108994  61.2063637   7.3072176  69.0492020  60.4328117
  62.4909286  61.9783478  53.0635910  62.6733475  61.0404549  53.0060463
  62.9165306  62.2557945  53.8748360   3.2963538  24.8241692  59.1356468
   3.5831940  24.1830101  59.7859306   4.0717363  25.3603420  58.9697189
  75.2784119  26.7769451   5.2816381  74.3346558  26.8354340   5.1328750
  75.3599014  26.3960590   6.1560049  30.7726688  11.7743292  10.0148497
  31.6202259  11.7175236  10.4560461  30.4643497  12.6610451  10.2016802
  81.0601501  16.4781837  44.9979782  81.7514648  16.6801853  44.3674965
  81.0803833  17.2075863  45.6174927  74.1455460  43.4727707  47.4879494
  73.9532013  43.5324593  48.4237213  75.0740509  43.2435188  47.4484253
  54.9387970  66.3661346  63.3721352  55.1619110  66.3088074  62.4430695
  54.4639282  65.5553741  63.5548935  51.2471695  55.0270805   5.8514833
  51.1767120  54.0873108   6.0191159  51.0521622  55.4360580   6.6946583
  46.3152618  17.1964207  72.6292725  47.2111855  17.5313034  72.5917816
  46.0778160  17.0446720  71.7144928  77.2688446  33.6690178  45.8343925
  77.8054428  33.6887627  45.0419922  77.8968201  33.5436249  46.5458412
  71.0289993  70.2339401  32.7913704  71.9838943  70.1932907  32.8439522
  70.8477707  70.4265900  31.8714390  57.5168724  56.1180153  61.4416351
  57.8174858  55.8593979  60.5704422  56.8913612  56.8241501  61.2793312
  69.8489075  60.4852028  81.3215714  70.1552963  61.3449249  81.6100769
  70.6483154  59.9700050  81.2131882  78.4776230  57.3233299  24.0971527
  77.9632339  56.6191330  24.4917946  78.5375824  57.0864410  23.1716709
  84.9493790  22.2823124  85.1294708  85.6161499  21.8771076  85.6839600
  84.7419052  21.6135731  84.4767990  71.4989624  46.5459518  28.7063961
  71.6924896  46.1617165  29.5614662  72.2238083  47.1501122  28.5457115
  38.7843857  64.4611664  65.2243729  39.1398392  63.6268387  65.5306091
  39.0722046  64.5243073  64.3136597  81.1245880  37.6322479  47.6174889
  81.9551697  37.5304985  47.1527176  81.2413025  37.1364212  48.4278984
  39.5916252   0.7500306  56.1702538  39.6019630  -0.1455686  55.8325768
  38.8668213   0.7619574  56.7953568  33.9997520   0.5104485  36.2591591
  34.8081703   0.9465217  36.5284729  34.1368408   0.3011683  35.3352318
   4.4407001  62.0864754   2.9365389   4.9083486  61.4556656   3.4839113
   4.8493013  62.9281693   3.1386046  37.3388863  33.1140938  78.1630630
  37.3503914  32.3534927  77.5820389  38.0550957  32.9564362  78.7782211
  34.3828888  57.2879486  28.1357288  33.6799622  56.7648201  27.7504215
  33.9802017  58.1385498  28.3105145  85.6253586  48.4513130  35.9639816
  84.9187775  49.0525894  35.7285156  86.1868744  48.9592209  36.5496063
  84.7307358  17.1668739  18.2970486  85.4000397  16.4997387  18.1447449
  83.9879456  16.6829166  18.6579990   1.1949258  56.7954025  77.5698013
   0.6294003  56.8555946  78.3397293   1.9568447  56.3000717  77.8703995
  58.9322166  21.6166515  62.1702003  58.5421371  21.7509098  61.3064613
  59.6257248  22.2741547  62.2246323  16.7740250  43.1847496  73.6040115
  17.1937599  43.8035660  74.2016068  17.4578075  42.5463753  73.4011459
  23.2521648   2.4224052  24.4104671  24.0776978   1.9960568  24.6405830
  22.6340332   1.7007780  24.2947121  28.2418098   1.2724853  29.8865185
  28.3861732   1.9038497  29.1816998  27.6435394   1.7167971  30.4872627
  57.4867439  52.8074570  53.8493729  58.2035255  53.2861977  54.2656174
  57.0500793  52.3549194  54.5710144  10.1418247  61.8081589  20.4889355
  10.1099300  61.3170509  21.3099270  10.7011127  62.5606995  20.6815758
  72.2875443   6.0822058  32.6453209  72.3214188   6.6405888  31.8686008
  73.1547394   5.6793070  32.6886635  85.8462067   6.6901450  19.4210796
  86.0173187   7.5688081  19.0821056  85.2109451   6.3171511  18.8098888
  19.5148296   2.2069552  61.8842278  18.6578846   2.1079175  61.4694176
  19.7721081   1.3151935  62.1183243  84.6469498   4.0786529  43.6547699
  84.9381790   3.3260541  44.1695633  84.3150406   3.6984899  42.8414154
  61.7803497  37.9917984  56.1066666  61.6940689  37.3253593  55.4250145
  61.7241783  37.5031662  56.9278336  64.6652222  17.6395779  87.1027451
  64.3662872  18.0198441  87.9287415  63.8682747  17.3068867  86.6899261
  48.0700722  21.6463547  36.2706375  47.4751816  22.0021763  35.6105385
  48.9448090  21.8473988  35.9379997  35.2562256  41.2892189  89.0107956
  34.4889412  40.9226494  88.5713272  35.3110809  42.1882439  88.6867981
  78.3842239  33.7933426  54.8192329  77.5435791  33.3364220  54.8471184
  78.3886719  34.2350998  53.9700813  49.2971420  11.8737307   0.8959354
  50.0467300  11.3641882   0.5881776  49.6213608  12.7732038   0.9413370
  72.1206894  47.8843231  43.5816154  72.4738159  48.6403618  44.0505943
  71.9455719  48.2104454  42.6988831  27.9551029  37.6878815  87.1930084
  27.1601734  37.4057121  87.6454468  27.6431503  38.0481911  86.3628922
  64.7356491   6.2792115  22.5241814  64.1407166   6.5445838  21.8228550
  65.3955688   5.7406645  22.0874844  51.4869919  13.2900047  47.2485771
  51.1922531  12.9148960  48.0784302  52.3996239  13.5320663  47.4058647
   8.2884254  30.5303707  83.5895081   8.0085001  31.1632366  82.9281769
   7.5401616  30.4560757  84.1818008  10.2285643  31.1061668  76.6589127
  10.1459990  31.4270477  75.7608871   9.5925369  30.3932762  76.7179565
  15.0811787  30.4507809  62.1231117  15.8680716  29.9203320  61.9979935
  15.2146940  30.8819447  62.9672127   1.4004943  64.7120209  41.3615417
   0.6907734  65.3442230  41.2481766   1.9363632  64.8098221  40.5744514
  62.8755188  56.8201942  53.2903671  63.4167900  57.5450096  53.6032524
  63.3409081  56.4876671  52.5228577  20.5850334  48.8198166   7.5748243
  20.6047916  49.3792877   6.7984028  19.8950062  48.1818657   7.3928485
  11.4014997  66.3608627  29.7982635  10.6296721  66.5565491  30.3295078
  12.0074024  67.0785828  29.9826298  55.8044395  29.6851845  86.3901596
  56.1427231  28.8076096  86.2122269  55.2842293  29.9027290  85.6166687
  54.7718582  33.1747398  47.9393387  53.9836960  32.6641388  47.7540779
  55.3918190  32.9138794  47.2582855  76.9267120  54.8662682  70.8864212
  77.3935394  54.3133392  70.2598572  77.1053314  55.7607117  70.5960846
  54.2588387  53.0103416  16.1909065  54.8866310  52.9506340  16.9110088
  53.4728432  53.3846626  16.5888081  35.7959747  68.5838089  14.1310787
  36.1532211  69.3191528  13.6332045  34.8499832  68.7298431  14.1284466
  51.4171600  29.0887585  23.2127457  51.4765549  29.9363480  23.6535358
  50.7506752  28.6091442  23.7046757   7.0282192  66.4129181  85.6962204
   6.4028897  66.8235168  86.2933884   7.1993403  65.5538559  86.0821609
  14.9510517  15.8837223   3.4124322  15.3887606  15.0530853   3.5986676
  15.2744074  16.1362228   2.5476105  48.6961365  46.5155029  35.6803131
  48.4479332  47.1602859  35.0178299  49.3180695  46.9771805  36.2427063
   5.2733598  68.1700668  45.4804764   4.7473693  67.7725296  44.7865524
   6.0189371  68.5587692  45.0230331  53.6220016   2.6972220   4.0210395
  54.2376404   2.0713487   3.6395888  52.9371109   2.1530120   4.4096131
   0.3129148  23.4277020   9.5770559   0.4615226  23.5890884   8.6453371
   0.1146532  24.2905464   9.9409533  62.3215446  65.9043350  78.2493134
  62.4975929  66.6081772  78.8736954  63.1755295  65.7056656  77.8652954
  79.7981873  65.6563644  13.6801062  80.3568115  65.5823059  14.4538517
  79.2137527  64.9001694  13.7333670  54.9908600  48.1713295  23.2859325
  55.2967033  48.4902687  22.4368343  54.1017609  47.8588676  23.1183167
  37.8763008  51.8691292  42.2878761  38.3614159  52.6105614  42.6500511
  38.4342766  51.5387726  41.5837746  56.9107399  44.1986542  71.5453720
  56.7521820  43.6976318  70.7453232  57.8206024  44.4865646  71.4713058
  70.6979980  46.7408485  50.4430428  70.3371811  46.6245079  49.5641212
  70.5576324  47.6672249  50.6388893  38.0086823  59.2285538  32.3730392
  37.6872406  58.3361855  32.2442589  37.8440399  59.4112778  33.2980995
  58.6552658  59.7038193  63.9596329  59.0083847  60.2968597  64.6228409
  59.3446617  59.6466141  63.2980461  49.8334045  38.5690384  74.3991318
  49.8544807  39.5249329  74.3537903  49.0065117  38.3682213  74.8374863
  51.9151917   8.2693911   7.9769497  52.2605362   9.1381645   8.1823759
  52.5634193   7.8877969   7.3849878  54.6392746  38.8958397  64.4697876
  55.0275993  38.2147903  63.9205971  53.8273010  39.1314125  64.0209656
  76.0026703   2.5311930   6.0173917  75.0905991   2.4315801   6.2902293
  76.4658966   1.8249507   6.4678011  57.7519417  31.8311462  36.6825294
  58.0324478  31.1175594  37.2555389  57.3454399  32.4661598  37.2722282
  41.6346130  18.2278004  72.5765915  40.8141136  18.2591133  72.0846252
  41.7686920  17.2979126  72.7597961   0.4516685  64.8654785  45.0597191
  -0.1007650  64.6763306  45.8181877   0.4932138  64.0374985  44.5812340
  31.9613609  22.5147266  13.1990023  32.5561409  22.3978386  12.4581871
  31.4786091  21.6898174  13.2510405  29.5319157  41.3513908   9.8514767
  30.0821133  42.0023689   9.4158812  28.6434994  41.6996078   9.7760296
  81.8225021  58.3334656  30.4684334  82.4149246  58.9353371  30.9190140
  80.9900589  58.8040276  30.4255524   3.8353138  62.6309204  58.9312820
   4.3197346  61.9778633  59.4363403   3.8527176  63.4170341  59.4771309
  15.6198463  59.8399010  39.9759216  16.3558273  60.0646362  40.5451813
  15.5923958  58.8831520  39.9863892  11.6821928  53.6037788  70.3762436
  11.7497730  53.9518700  71.2653427  11.2270813  54.2878418  69.8851624
  26.5522652  -0.2186297   8.1740808  26.7806091   0.0018467   7.2710409
  26.9541111   0.4738897   8.6986465  57.9436188  16.7431240  65.4565887
  58.1615067  17.6496048  65.2396774  57.5632553  16.3892632  64.6526337
  77.0040512   4.3046784  47.8666840  76.7100601   5.2155871  47.8735809
  77.8675461   4.3348007  47.4547348  83.2559814  48.7168198  71.9412308
  83.0252838  49.6234741  72.1436768  84.1627579  48.6290932  72.2349777
  22.9775009  17.6328945   4.6278043  23.4584904  18.4325314   4.4145889
  22.5315933  17.8338032   5.4506254  34.6048927  21.9889145  88.3236847
  35.5279541  21.9870052  88.5770340  34.6055946  21.6911888  87.4139633
  43.4049187  31.1645432   6.2624798  44.2035332  31.6248455   6.5204782
  43.6980743  30.2796154   6.0452428  56.0336151  67.5857010  10.5213099
  55.4326935  67.3363724  11.2234182  56.1571732  68.5280380  10.6351690
  59.5266266  65.5597687  65.2110291  59.1352005  66.4308243  65.1456757
  58.8453941  64.9666748  64.8941879  71.1866150  28.8208065  37.3745613
  71.7468414  28.4782448  36.6781158  71.1693573  28.1252861  38.0319710
  76.3321304  20.1210842  79.0715942  76.2148132  20.1743240  80.0200882
  75.6788788  20.7231922  78.7152863  43.0652008  56.5708542  39.2703285
  42.5722542  56.3800507  40.0683403  43.5781937  57.3496361  39.4861259
  70.3617859  68.4662628  37.1482964  70.0419235  68.9860611  36.4109192
  70.4170074  67.5739670  36.8062515  43.1910515   6.6866608  70.6392441
  42.8204193   7.0491395  71.4439011  42.5184135   6.8395886  69.9756088
  25.5287704  63.3537292  63.3783760  25.1793652  64.0660248  63.9138985
  25.7695312  62.6755028  64.0094604  60.1567345  59.9352913  61.6858330
  60.1859169  58.9785652  61.6930923  59.4997444  60.1498566  61.0235977
  60.1159325  69.6028976  78.2484894  59.9278297  70.5233536  78.4318161
  60.7376137  69.3452835  78.9292068  80.7344284  67.0446320  20.5151138
  80.4623566  67.8846512  20.8846893  81.6620178  66.9730911  20.7402458
  83.4949570  14.7022829  35.4988403  83.6511841  13.8469572  35.0985374
  82.6042709  14.6457100  35.8448334  20.0440369  61.5968971  29.8061275
  19.5120506  62.0283699  30.4747486  20.1259956  60.6934204  30.1114807
  19.4825706   7.5197825  12.1342535  19.2827892   6.9396529  11.3995638
  18.8467083   8.2311344  12.0575113   9.0910225  21.0776749   9.5130682
   8.1599655  21.1750412   9.3133554   9.5190821  21.0605927   8.6570864
  63.1418037   9.7962761  73.5035706  63.8239822  10.2564220  73.0145645
  63.2217751   8.8838797  73.2254181  23.5955105  61.6994934  80.1588364
  24.3621655  62.0539970  80.6091690  23.3398533  62.3869591  79.5438080
   0.7084622   2.9050894  66.2013092   0.2622236   3.4175947  66.8754349
   0.1359747   2.9652293  65.4365387  61.7259216  69.1245728  80.3187637
  62.6380081  68.8643646  80.1898651  61.4821358  68.7351456  81.1584930
  68.9647217  37.5555458  79.4793320  68.6531143  38.4168472  79.2013168
  69.7510757  37.4045639  78.9548492  14.7119226  31.4721508  19.4129810
  14.4966993  31.1020355  20.2690926  15.1934290  32.2748184  19.6132488
  70.9067764  60.7446899  60.4718208  70.0852432  60.2754135  60.3265839
  70.6444016  61.5606842  60.8979034  55.5725479  25.4830379  59.6557846
  55.3273125  24.6360664  60.0282516  56.3552399  25.2987328  59.1364975
  20.7880402   9.0071182  82.0679474  19.9466057   9.0781174  82.5186996
  20.5583401   8.7864285  81.1652985  83.2587357  16.7159061  43.1867638
  83.6876373  16.0593147  42.6379852  83.9349213  16.9883137  43.8070869
  19.0971584  41.2757530  11.8475475  19.1661167  41.6941109  12.7057180
  19.4159470  41.9364738  11.2326841   2.1701043  43.4350700  19.2390804
   2.7643707  42.7637749  18.9037552   1.4367278  43.4346390  18.6239452
  14.6303883  58.7312126  45.8675194  14.8353519  59.6222801  46.1507416
  15.3462753  58.4969940  45.2768593  49.9509163  43.1292572  56.4072418
  50.4233246  42.3387451  56.1461716  49.0463562  42.8395348  56.5258560
  68.8911819   3.0813966  48.3392525  68.3580627   2.9641821  49.1255569
  69.1152115   4.0120096  48.3383026   8.6441622  52.2816277  88.0077820
   8.0134983  51.6261559  87.7097015   8.4471102  53.0587845  87.4848785
  85.3923798  49.5347252  85.3820496  85.0654449  48.9032974  84.7412338
  86.1251144  49.9653244  84.9416885   6.4845576  56.1684685  41.6796112
   7.2830362  56.6829376  41.5613518   5.9317565  56.4099770  40.9364319
  84.0549088   8.1459904  15.0158625  84.8459930   8.3199215  14.5057993
  83.3742142   8.6639881  14.5862494  58.4343033  47.0170631  64.6462479
  58.9748154  46.2724915  64.3822556  57.5420570  46.7594833  64.4143372
  64.1696548  36.1587410  62.2283630  64.9505615  36.0186501  62.7638855
  63.7299194  36.9045448  62.6365852  65.0495453  46.9293823  36.2422905
  64.8298569  47.6301117  36.8562508  65.5164185  47.3704376  35.5325470
  42.2646065  59.0064888  52.2671165  42.8695030  58.7696838  51.5640831
  42.3363380  58.2889824  52.8966179  54.2688026  53.3445091  52.5966377
  54.0171127  53.8779755  51.8427811  55.0281143  52.8460960  52.2945404
   9.2222424   6.5373254  45.1976662   9.2281303   6.9783773  44.3481560
   8.3733511   6.7622976  45.5784607  34.6911240  32.7779579  78.9059067
  34.0428467  33.0252953  78.2465210  35.5351830  32.9370995  78.4834518
  27.9640446  59.1034164   2.8953769  28.2188969  58.6266518   2.1054540
  28.2873878  59.9930267   2.7529988  26.7858143  43.4556007   3.0304413
  26.4352379  43.8557625   3.8261797  26.6917095  42.5139771   3.1743941
   2.2122843  57.6031761  19.7523727   1.6327624  58.1672134  19.2402725
   1.7355046  56.7767487  19.8293648  36.4832497  42.9019699  83.7483902
  37.2096939  43.2215881  83.2132721  36.8374023  42.8674850  84.6370010
  72.5640640   8.5133877  51.4280853  71.8616791   8.0060749  51.8349266
  72.4707947   8.3428068  50.4908371  68.9766998  18.5588512  65.5522308
  69.3547134  19.4371662  65.5958557  68.0672607  18.6755886  65.8270416
  50.4487839  27.1062527  81.3491440  50.6992836  26.9159546  82.2531738
  50.8689423  27.9442310  81.1555176  48.9084625  67.8755112  84.7899780
  49.3765450  68.6461258  85.1113663  48.7531509  68.0587769  83.8634109
  85.8224869  59.8655510  19.2016869  85.8812485  60.7924500  18.9700832
  86.4663696  59.4365692  18.6381054  41.1269112  67.9086380  67.8552704
  42.0776939  67.8375549  67.9401093  40.9752998  68.8236771  67.6187286
  39.1950684  32.4551773  49.0890732  38.2794800  32.7090416  48.9729385
  39.6329041  32.7692757  48.2979507  19.5388794  10.2715960  15.8430471
  20.0914650   9.6036186  15.4372330  19.9865475  10.4882841  16.6608925
  60.4086227  28.1753788  57.4271851  59.9930267  28.1904812  56.5650482
  61.1806374  27.6215000  57.3112526  45.1096001  25.7327976  56.3716125
  45.1127892  25.3716869  57.2580757  44.6305466  25.0873985  55.8518028
  11.7191133  18.3234768  71.0004501  12.6667652  18.3397121  71.1343307
  11.3810139  17.8215580  71.7420731  59.5923462  54.5880203  83.4200592
  59.9820747  54.2906532  82.5979156  60.2847633  54.4690933  84.0701675
  81.1150131  33.6007957  34.4161415  80.4848862  32.8973007  34.5719070
  81.5870209  33.3295784  33.6288147  37.4248199   9.8975554  76.4794922
  37.2974930   9.7900867  75.5369110  38.3410072   9.6621237  76.6258011
  25.7642365  59.8963585  46.9051476  25.3497276  59.8879509  46.0423927
  25.9496861  58.9758186  47.0907516  10.5485544  68.9938126  58.3514061
  10.3919039  68.8553314  59.2854919   9.6808472  68.9345245  57.9516602
  50.5247917  67.4730911  69.0442734  51.2693062  68.0152054  69.3051300
  49.8365211  68.1010513  68.8247757  69.7833252  48.7212601  45.6973610
  69.3029709  48.0867271  45.1655197  70.7003021  48.5909615  45.4556808
  54.4138222  67.5042801  42.8381348  55.1809692  67.9168167  42.4412270
  54.4528389  66.5939178  42.5449562   8.8748589  14.3265438  68.2768631
   9.0506525  14.8424129  69.0637589   9.5643606  14.5819788  67.6640244
  51.4798355  40.2695961   2.5577700  51.8190117  41.1546707   2.6913209
  52.2097740  39.6957436   2.7903979  47.7193108  10.4997129  46.8268356
  47.8843536  11.0034828  47.6238365  46.8403778  10.7634172  46.5545082
  79.6520996  51.6032448  84.1554871  80.2433167  50.8751488  84.3467178
  79.0769348  51.6516380  84.9190826  30.2546806  41.7164383  72.3757324
  30.9411430  41.2050018  72.8040237  29.9189301  41.1395302  71.6896744
  62.1606140   4.7262149   4.6942081  61.8579750   5.1827765   3.9092278
  61.5866165   3.9633901   4.7638884  30.9608917  36.2056351   9.8881750
  31.0957851  36.2806358   8.9434996  31.3163681  37.0190773  10.2462025
  61.6267166  40.4244614  71.8497925  62.3298950  40.7063599  72.4348679
  62.0498848  40.3257675  70.9969025  11.2237320  40.1343498  31.2054253
  11.2860670  41.0076370  30.8184948  12.1151304  39.7884407  31.1608372
  71.7509232  55.7559700  54.4252281  72.6792145  55.6600456  54.6380844
  71.4850616  56.5606461  54.8702507  45.2350388   4.5704522  45.3447227
  46.1577034   4.6188002  45.0945587  44.7658691   4.4868336  44.5145912
  62.7327614  54.9265785   1.1948081  62.5341873  55.1939812   2.0921900
  63.3932724  54.2403564   1.2899735  57.1371956  30.0266724  88.7074814
  56.5175819  29.8601360  87.9971390  56.7796707  29.5468426  89.4545898
  43.3129044  66.5784912  41.0968666  42.5465927  67.0733871  41.3868141
  43.2808495  66.6254120  40.1413536  23.3499126  20.0655632  46.1963158
  22.4458733  19.9012070  46.4645195  23.8730965  19.4855804  46.7496033
  61.7932549  53.1767807  88.3257523  61.6972923  53.8410301  89.0082474
  61.5986481  53.6403923  87.5112457  33.2828979   5.2838707   8.1220121
  33.2651825   4.5081134   7.5615497  34.0661659   5.1722727   8.6607780
  21.6095905  40.5255127  26.7195778  20.6966877  40.2481689  26.7965164
  21.9282608  40.0847168  25.9319363   3.2358279  48.7471809  80.3316422
   2.8065984  49.5970993  80.4297714   2.8050842  48.1855049  80.9760132
  68.3869629   2.4604797  68.3186493  69.0337372   3.0448387  68.7141724
  68.5326538   2.5446827  67.3763580  57.7962265  56.5861664  45.8635635
  58.7221031  56.3476715  45.8177299  57.6018333  56.9581184  45.0032768
  31.4143620  62.3789711  81.2862320  31.2648792  61.7640648  80.5680618
  31.1897297  63.2342873  80.9198914  68.6278839  13.3371086  80.7110062
  68.6024094  14.2189198  81.0824814  67.7092209  13.1133957  80.5618896
   9.6879988  47.1607590   3.2786293   8.8665209  47.6273880   3.4324667
  10.2096558  47.3290977   4.0633383  77.6526413  24.8848076  55.1565666
  78.0350342  24.4432068  54.3982773  77.0625839  24.2355957  55.5394249
  11.2273731  27.9327488  21.7216911  11.2563744  27.7756004  22.6654568
  10.4900446  27.4057713  21.4136791  83.4648361   9.8076286   8.6214609
  82.7376709   9.2117310   8.4415646  83.9235764   9.8851061   7.7849288
  45.3834152  64.8294678   6.4617324  44.4589233  64.7092361   6.6787319
  45.4084129  65.6471939   5.9648080  41.5921898  10.7443705   4.8152008
  41.9014740  11.4421663   5.3928299  40.6489639  10.7033377   4.9729075
  11.0333481  69.2555389  32.4324150  11.5649014  68.5526886  32.8061600
  11.6500244  69.9743652  32.2937355  76.4382095  69.8466110  42.8605690
  76.7300262  70.6236115  42.3837585  76.8241119  69.9410324  43.7314301
  72.9185715  18.8916245  51.4353752  72.4013443  18.1633987  51.7794647
  73.6266708  18.4724560  50.9463692  85.6225128  37.0652313  65.5062561
  84.9097366  36.6358032  65.0332108  86.4072952  36.8532066  65.0008926
  86.7028961  55.5494080  62.3921738  86.0230713  56.1251068  62.0419655
  86.7130661  54.8005600  61.7960625  47.7047729  16.0114937  45.7261581
  48.1773987  16.6827011  46.2184334  48.1291199  15.1898632  45.9733086
  53.8113441  27.8729095  54.3341103  54.5794983  28.4320126  54.2175980
  54.0192642  27.3366413  55.0992355  25.2444324  50.6129723  76.6897354
  25.9417915  49.9666214  76.7999878  25.6705723  51.3539619  76.2589569
  50.2587967  55.7586899  20.6237221  50.9610977  55.3718643  21.1465721
  49.8313560  56.3767319  21.2166386  76.1217957  34.1270561  36.9572830
  76.5299149  33.9706459  36.1056900  76.3925247  35.0143242  37.1932793
  13.2658997  38.5676308  30.3569450  12.4750624  38.0704269  30.1481495
  13.9102688  38.2743492  29.7127380  78.4560623  52.5226593  39.6238480
  78.0919952  51.6774406  39.3606110  79.3527298  52.3237267  39.8933868
  67.0184708  19.0575466   2.0486958  67.2965546  18.1423569   2.0850973
  66.5658875  19.1371346   1.2090099  75.7099686  35.3682518  88.1372375
  75.1714554  35.4527092  87.3504105  76.4653473  35.9325180  87.9721909
  34.6102486  44.0582695  60.0855904  34.4849319  43.1139412  60.1792412
  34.5184250  44.4013786  60.9744530  35.5760384  13.9494810  12.2572765
  34.6927795  14.2514744  12.4691334  35.9275360  14.6251240  11.6774569
  44.1164284  45.4008369  67.4133759  43.1733055  45.2372971  67.4161072
  44.1989555  46.3303490  67.6265182  16.8620319  18.8733692  15.4622469
  16.6407776  18.5736446  14.5805187  16.1542301  18.5394497  16.0133781
  39.5578346  65.2440338  36.7733192  39.8190994  66.0221405  37.2657890
  38.7044563  65.4700928  36.4033546  84.0415649  55.8219070  11.9870367
  83.4925690  55.0402451  11.9250584  83.7349701  56.2679443  12.7765188
  85.5567322  43.1555405  83.5869522  85.1004181  43.8676376  83.1387024
  85.9568405  42.6462936  82.8821030  63.0774612  44.2694359  53.5497208
  62.8574677  43.9506454  54.4250526  62.3562431  43.9685440  52.9969635
  80.3514633   4.1871543  41.8238678  80.7632675   4.1005135  40.9641342
  81.0275192   4.5820231  42.3745613   6.1592870  29.1320610  76.5949783
   6.7166848  28.4265194  76.2667236   5.2831097  28.7482834  76.6304703
  40.1377029  47.4434509  15.9873791  40.1743469  48.3317528  15.6326885
  40.3534546  47.5465431  16.9142303  29.3078613  52.5230064  70.3908234
  29.6754189  53.4004326  70.4969101  28.4546661  52.6685524  69.9820328
  56.1818008  34.6782837  18.1375370  56.2048225  33.9558296  18.7650375
  56.4793243  35.4388008  18.6368637  49.9011612  52.5121498  13.1757364
  50.7062302  52.0711670  13.4470901  49.2968712  51.7999649  12.9663191
  66.7671814   6.7251530  50.6628342  67.0593338   6.8089228  51.5705032
  66.2594757   5.9138193  50.6485481  34.8687134  17.4945526   6.2562485
  34.5761223  18.3453979   6.5828757  35.7503777  17.6570511   5.9208393
  13.6682329  11.5438042  11.7179308  13.9738455  12.1096172  12.4269352
  13.9240847  12.0028906  10.9179230  44.3889847  16.4180584  79.9228897
  44.4549904  15.8060999  79.1898270  43.5755196  16.8965244  79.7629700
  23.2441349  47.7870560  12.6095295  23.5709476  46.9038696  12.4380493
  23.1753216  48.1892929  11.7436752  38.6786346  71.4018173   8.0962982
  39.4751320  71.4823837   7.5715761  38.9280243  71.7263107   8.9615965
  49.5686722  43.7593079  22.7685947  49.7814407  43.6592598  23.6964684
  49.0783272  42.9672394  22.5485477   4.8017664  48.0176430  66.4773941
   4.0489264  48.3847847  66.0140686   4.9892998  47.1987572  66.0186005
  66.7620773   2.8182359  25.2799244  66.7537766   2.4018426  26.1417713
  67.4419098   2.3507717  24.7946091  20.1602020  42.8894730   7.5194721
  20.7669296  43.1726418   8.2035246  19.4488106  42.4588814   7.9935451
  51.0730858   7.3086948  60.6394386  51.4545822   6.4308553  60.6489754
  50.1395149   7.1658359  60.7952118  31.6648960  67.8717804  35.5214615
  31.8261700  68.6396027  36.0697975  32.5093422  67.4226303  35.4839287
  57.1095009  28.4000359  79.2028427  57.7733498  28.9700031  79.5910034
  56.8590736  28.8419876  78.3915482   4.5985246  71.2927933  45.1307755
   5.3026338  70.9797440  44.5629158   5.0474610  71.6238708  45.9086418
  79.9385986  45.7059975  73.6694260  80.3998108  46.3129539  73.0905304
  79.0911407  45.5685425  73.2461624  74.8786545   7.0741358  15.1254930
  74.2094193   7.4067760  14.5274105  74.8930664   6.1301475  14.9676657
  50.6008034  56.4557076  57.0040779  50.9237633  56.5525856  57.8999290
  49.7892761  56.9629784  56.9858665  59.8619881  46.9921150   2.4648638
  59.7175674  46.1078682   2.1279984  59.0990181  47.1659927   3.0161135
  19.1493378  42.7952766  13.9830914  19.1739597  43.4531212  14.6779747
  18.3595772  42.2854996  14.1637564  71.2892075   0.4566536  81.3713684
  70.5104218   1.0131440  81.3779144  72.0001450   1.0363945  81.6446762
  34.4915199   1.4935633  82.3077240  34.9740143   1.7126915  81.5105896
  34.7861023   0.6105912  82.5309143  64.8520126   1.3965151  74.7850189
  64.9309311   1.0205960  73.9082718  65.3206253   2.2294476  74.7315598
  51.0022850  28.5722466  28.2045994  50.1189499  28.2038975  28.2210045
  51.4817276  28.0743942  28.8668003  48.2614365  46.2269974  58.4776077
  47.7268753  45.4818153  58.2034187  47.6409721  46.9519463  58.5531654
  74.6626434  20.7390957  36.8660736  75.5262909  20.3299351  36.9202309
  74.6100311  21.0696735  35.9693146  19.0516243  29.4327412  13.0714388
  18.5387020  30.2242546  13.2346802  18.7071953  28.7916584  13.6932192
  10.1300411  25.4752197  29.0113487   9.3451414  25.2992115  28.4925194
   9.9522514  25.0694313  29.8598518  26.8825874  57.1672363  67.6078720
  26.2573719  57.1997986  66.8838043  27.4576550  56.4322777  67.3948898
  54.2268486  65.5151291  17.7467308  53.8145523  66.3700714  17.6229496
  53.5170670  64.8860016  17.6177254  52.3862495  67.2487564  27.0433102
  53.0484314  67.2373276  27.7344055  51.7099915  66.6445007  27.3495464
  23.5211163  54.5859032  54.6212730  22.8628693  54.6401558  55.3140945
  24.2206802  55.1724243  54.9090919  81.6135941  14.3597183   3.8378034
  81.8312988  14.2237015   4.7599392  81.1541901  15.1993103   3.8214865
  46.3514557   2.3911290  23.9282017  45.7840919   2.3575094  23.1580067
  47.1737976   1.9969739  23.6372929  78.4319229  50.3152962  16.1918793
  78.6943741  49.4468765  16.4971638  78.1510849  50.1764565  15.2873993
  65.5120010  15.5027313  61.2616615  66.0542297  16.1250515  61.7463684
  64.8876572  16.0496559  60.7849045  67.7287827  64.4938507  86.4927292
  67.6622238  65.4287643  86.2984848  66.8353806  64.1646042  86.3944244
  59.8504219   0.7341183  30.0750160  60.6542358   0.3832090  29.6916370
  59.7405396   1.5894957  29.6596985  64.0452728  18.5318108  54.7010384
  64.6763229  18.2686405  55.3709221  64.2251053  17.9514561  53.9613914
  21.9483700  32.5769348  28.0202065  21.3747673  32.6332512  28.7844315
  22.6811676  33.1568222  28.2274971  35.1196404  10.5200968   1.4628749
  35.1943893  11.4544935   1.2691047  35.4227104  10.0852118   0.6658465
  12.6273241  49.6068649  61.0512581  12.8547726  49.9088745  61.9306259
  11.7068920  49.8475838  60.9459457  75.7656937  67.5788803  52.6565132
  75.7886505  68.1364975  53.4341812  75.9780655  66.7043304  52.9825249
  32.7914696   9.5132322  15.2585659  32.1560974   8.8357410  15.0271759
  32.2614250  10.2288637  15.6095009  56.6280975  28.5980473   1.6408854
  56.3192062  27.7064705   1.8018469  55.9609528  29.1579952   2.0378802
  55.8233261  22.6779003  59.6002045  56.3186607  21.8612175  59.6627045
  56.2062912  23.1335278  58.8505554  27.6346016   7.8430758  31.5411110
  27.7997608   8.6558390  32.0189934  28.3283119   7.2501698  31.8300076
  53.1178551   9.8806601  68.8342819  52.2510414  10.2512178  69.0002670
  52.9554291   9.1483784  68.2396240  84.2327347  56.3730698  39.9058838
  83.5960693  56.4842339  39.1998138  84.4970322  57.2646751  40.1326370
  53.2143784  52.6675072  33.9033394  52.5926552  51.9529419  33.7651749
  53.3450394  53.0430222  33.0326233  72.1754379  12.4595404  57.4469070
  71.8233948  12.4530153  56.5568237  71.7417374  11.7251415  57.8814049
  31.6983032  14.1834431  85.6684189  31.0660114  13.4858513  85.4957733
  31.2136402  14.8219128  86.1915665  54.3866386  22.3584080  71.6630096
  53.8005447  22.9515343  72.1330338  53.9339523  22.1773205  70.8392868
  54.3216553  31.9913635  75.4723969  55.1498070  31.5979538  75.7473984
  54.3244057  32.8603935  75.8736572  70.7671661  54.8262482  47.5771408
  70.7469177  54.5957909  46.6483154  70.0099640  54.3764648  47.9520721
  10.4559393  44.0236473  68.8987732   9.7272701  43.8408318  68.3056030
  11.2275925  43.6922035  68.4394989  73.0617065  14.2481861  18.6565552
  73.7113495  14.4216194  19.3378220  73.2784882  13.3726168  18.3362179
  22.2148800  57.7040215  26.2059879  22.8612156  58.3818703  26.0084972
  21.5905075  57.7501984  25.4819298  47.2277565  55.2914886  82.8412476
  47.5189400  54.7762833  82.0889130  47.7372856  54.9508286  83.5764771
  65.8711166  12.2463884  35.4684410  66.3515091  12.5483484  36.2393303
  64.9817200  12.5764418  35.5960007  13.9920683  35.3858147  71.1824646
  13.5328836  36.2211075  71.0948868  14.7705812  35.5934944  71.6992035
   3.8772616  39.5405159  85.0329742   3.1468782  39.8170967  85.5863953
   3.6046975  38.6923561  84.6828766  80.1630325  28.3471146  12.5485458
  79.3155594  28.6312180  12.8910465  80.2613678  27.4497604  12.8668499
  80.7402725  34.9087105  47.5794868  79.9587479  34.4154053  47.8286934
  81.2526550  34.9690170  48.3857536  38.6714935  56.9804306  66.1704102
  38.9511299  57.1741028  65.2756882  38.3117867  56.0946846  66.1224899
  77.4206543  48.9727745  77.9168320  77.4478531  48.9995308  78.8732758
  78.3353119  49.0606308  77.6486664  65.7447281   1.1218619   1.9214512
  66.4045029   1.7787451   1.6991088  65.6853256   1.1556785   2.8762076
   8.3848820  56.7041512  50.4351959   7.9925127  57.3032570  49.8000984
   9.1567402  57.1691895  50.7580032  21.2742481  59.6326561  22.6965408
  20.3670921  59.6855507  22.9973793  21.2215767  59.7724419  21.7510681
  18.9485703  28.7465363  73.2830811  18.3454037  28.0785484  72.9571762
  18.9275265  29.4336987  72.6170502   5.4669275   9.2666216   3.7865882
   5.0690069  10.0022125   4.2522035   4.9047399   8.5199957   3.9932916
   7.8740335  50.2506218  48.7143059   8.3408842  50.9109802  48.2022400
   6.9620218  50.5411110  48.7051544  44.3659592  24.4136467  61.8992577
  43.7744865  24.3094749  62.6446037  44.8090706  25.2467880  62.0597458
  36.1181946  53.5592041  29.5379677  36.4837646  53.5015602  28.6552067
  35.1704521  53.5291634  29.4071541  22.5937347  20.8872337  21.5835972
  23.3307762  21.2680912  22.0610390  22.9010506  20.8242226  20.6792641
  17.7739105  26.8111343  52.6844368  18.4542809  27.2595959  52.1822319
  17.3297939  26.2559662  52.0435181  26.0780258   8.9751081   8.0770350
  25.5054398   8.4476204   8.6339312  25.5017471   9.6429920   7.7054610
  85.9490738  42.9478951  42.1681061  86.8193054  43.2584686  42.4180527
  85.9703674  42.0074768  42.3452721   3.3808854  11.8938160  74.2143250
   4.2227130  11.8373652  73.7622528   2.9102850  12.5913534  73.7580261
  33.2168999  55.6452560  57.3543510  33.3760796  56.5183220  56.9956741
  33.2248764  55.7710304  58.3032188  46.7391815  44.2195511  16.3773384
  46.2508354  44.7497635  17.0071220  47.6447754  44.5168953  16.4651890
  33.9631844  42.7885551  68.6377869  34.0521889  43.0217896  69.5618591
  33.0191307  42.7920723  68.4797287  53.7178078  50.0435677  53.3004990
  54.2015724  49.2706451  53.0093079  53.0014954  50.1288834  52.6713371
  67.2216797  23.1256218  64.0820084  66.6529846  22.7014637  63.4394264
  68.1081314  22.9747639  63.7538452  39.1509933  32.8132095  69.8661346
  39.6544304  32.5685425  69.0896530  38.5442543  32.0846329  69.9975739
  70.2979889  25.5061359  11.6703358  69.6181870  25.0718193  12.1855812
  70.5709305  24.8482113  11.0309076  21.3945904  50.6737404  24.9122829
  22.2641277  50.4363708  25.2344456  21.0042973  51.1783752  25.6258984
  36.6653824  70.1780777  77.7055893  37.0796165  70.8623123  78.2313843
  36.5538826  70.5745239  76.8415070  70.6503220   1.0058866  27.6947613
  71.5968018   1.0209842  27.5526886  70.4216843   1.9163194  27.8820267
  70.5024796  41.8712006  23.4568882  70.4216995  42.8235321  23.4042664
  69.8102264  41.5401306  22.8846893  20.0254421   3.3570061  58.0471687
  20.6513042   2.8761661  58.5887566  19.3896942   2.6964262  57.7720451
  41.3138504  64.8772659  18.2801838  40.8851051  65.0321503  19.1218605
  41.1030121  65.6512604  17.7579689  61.2005768  68.2209473  43.4614296
  61.8686638  67.7098846  43.9182777  61.6631203  69.0014420  43.1562958
  49.5531616  58.0407257  36.7035255  50.5090141  58.0903320  36.7142296
  49.2795143  58.5237045  37.4833221  26.1359997  22.0759182  39.3303947
  26.5596504  22.1663094  40.1839638  26.8609962  22.0185184  38.7080460
  36.1140594  25.4702377   1.4007822  35.2292480  25.1412449   1.5592215
  36.1710472  26.2674770   1.9274634  16.2333870  71.0166016  28.7861919
  15.6229286  70.4841614  28.2762165  15.6806126  71.4742508  29.4196224
  62.9539452  58.3685570  44.0667038  62.0653191  58.3554688  44.4222412
  63.1549187  59.2981339  43.9584045  44.7782707   3.9153979  31.4053097
  44.8590927   4.1070433  30.4709797  44.4870987   4.7399497  31.7946262
   4.5846391  14.7494869  86.0361633   5.1596775  14.7566147  85.2709808
   3.7083049  14.8922348  85.6785431  80.7562943  64.0697556   8.8553658
  80.1264343  64.6113586   8.3797798  81.2222366  64.6852722   9.4212885
  85.9649963  28.1858864  13.3170528  85.1015091  28.5522575  13.5078354
  86.0012970  27.3785667  13.8300343  78.0051346  57.9757843  67.0751877
  77.4237595  58.5436935  66.5695114  78.2768631  57.2986069  66.4556503
  84.5047073  49.6272316  80.5977554  85.3357315  49.5834122  81.0707321
  84.6407318  49.0811768  79.8234482  70.6167526  33.1173019   7.5660691
  69.6795273  32.9978065   7.7195997  71.0048447  32.2693558   7.7819548
  17.1146259  59.0390129  34.5722389  16.9122238  59.0285263  35.5077362
  16.5300560  59.7038078  34.2081490  43.4473801  65.6738892  25.0079823
  44.2435455  66.1609955  25.2202892  42.8779793  65.8033218  25.7664413
  62.6159592  16.9505634  16.2516212  62.2865753  16.8463612  15.3589382
  61.8689995  17.2903633  16.7443905  70.4818420  51.0347443  41.9683723
  70.7447586  51.2577553  42.8613281  71.2543335  51.2258797  41.4364395
  74.0722656  11.5323973  23.5186043  73.3184662  12.0934525  23.3362942
  74.4276962  11.8686399  24.3413067  58.1116562  28.5058441  20.6975098
  57.9688835  28.7304764  21.6169586  58.8505669  27.8975277  20.7115211
  23.8400555   1.5870851  67.9435883  23.8156300   1.9271653  67.0491714
  24.3346653   0.7703792  67.8758774  80.1081924  18.8764515  55.5926361
  80.5839233  19.2576485  54.8546677  80.7736282  18.7560520  56.2700844
   3.7042525  59.9915962  42.7788696   2.8162882  60.2472954  43.0286102
   3.5925591  59.5044518  41.9625092  67.3864822  39.8327560  31.2049255
  67.7148743  39.9775047  30.3175488  66.5706253  39.3474274  31.0821915
  21.4922924  25.7698154  70.8155212  22.3943005  25.7599125  71.1356964
  21.5589886  25.4889145  69.9029007  59.8410835  31.5918846  24.1716309
  59.9173546  32.0200615  23.3189392  59.6607552  32.3060150  24.7829647
  32.3716698  53.6052475  88.8425598  32.2999725  53.8393707  87.9172058
  33.3131485  53.5310783  88.9985962  38.0659256   9.9112206  84.1646729
  38.1510887  10.5242224  84.8948898  38.2270660   9.0515623  84.5535889
  77.7836075   2.8540716  27.3220272  77.4037704   2.1899590  26.7467785
  77.2306824   2.8388550  28.1032295  63.4444809  10.2270374  66.5522003
  63.6506882  11.0941334  66.2031174  63.0451660  10.4007654  67.4046021
  25.8082409  20.6166534  88.4649963  25.8720837  21.4803677  88.0573730
  26.3709488  20.6740570  89.2371979  41.7540512  45.9959450  54.7036743
  40.8107185  46.1357117  54.6211014  41.8531952  45.5076561  55.5209732
   8.7319336  35.4306870  83.5560226   8.8472528  34.9523277  82.7349854
   9.2630138  36.2199554  83.4499969  32.8009605  45.3440208  40.8480148
  32.1059341  45.5910187  40.2379646  32.7539024  44.3889313  40.8907318
  58.2786255  23.8581161   7.3638334  57.5109291  23.3319664   7.1401358
  58.9850540  23.2201614   7.4648423  58.0895348  52.3977127  60.4373016
  58.6889076  52.1831779  61.1521187  58.4399338  53.2072754  60.0657387
  74.1809158  27.0941677  86.5580902  74.9458771  26.6719971  86.1671524
  73.5377426  26.3906841  86.6456909  41.0524216  33.9031181  21.8724194
  41.6639786  34.5360680  22.2487297  40.4624863  33.6823921  22.5931721
  67.9010773  58.5757446  32.9768066  68.7011871  58.2934685  32.5336723
  67.6179428  59.3497124  32.4899368  53.5790215  20.4974098  58.9984398
  54.4517403  20.4298344  59.3857765  53.3009720  21.3932247  59.1893196
  68.6533737  46.5143204  77.1844330  69.5523682  46.4461479  77.5059891
  68.6130981  47.3744850  76.7664261  68.2180939   5.7163491  54.0163765
  68.6180420   6.2541633  54.6997681  68.9599533   5.3356419  53.5463409
  29.5186081  41.2442169  33.3136063  29.7925777  41.5512123  32.4493561
  29.9795647  40.4134178  33.4298897  55.8638840   1.5307704  60.6307526
  55.7111626   1.1324373  59.7738762  54.9971886   1.5683647  61.0353012
  28.6201973  68.9094391  43.8064270  27.9221077  68.2546616  43.8195076
  28.2270393  69.6701889  43.3787422  74.3294983  38.0059776  25.6716022
  73.5127563  37.5571442  25.4531574  74.0703125  38.9149857  25.8224640
  57.9092026  44.5907021  34.2343903  57.3255653  45.2066650  34.6773224
  58.7869911  44.9407768  34.3865967  64.9608765  62.9664001  80.3233109
  65.3582916  62.4627342  79.6129456  65.1054993  62.4332161  81.1049957
  80.8401184  29.9607544  77.7700043  81.7826004  30.0839634  77.6569977
  80.7601395  29.1132374  78.2076721   1.7066407  50.1217995  67.5819244
   2.1813853  49.8087578  68.3518906   0.9564838  50.5966263  67.9397430
  43.3592987  63.0047836   4.8468294  43.9022865  63.6644974   4.4153538
  43.7547340  62.8975945   5.7119160  67.3112717   5.5981236  26.1871281
  67.0592346   4.7728839  25.7727776  67.5355301   6.1743259  25.4564209
  60.8261147   0.7450177  41.2212944  61.3769112   1.0332090  40.4934235
  59.9324722   0.8041673  40.8834534  46.4781799  18.7697697   1.5155373
  47.1674194  18.2639332   1.0850586  46.0981560  18.1638336   2.1516628
  75.5578613  18.3887806  54.3609619  75.8728485  17.7894878  55.0376205
  74.7187576  18.7066479  54.6942749  69.8642731   9.1427088  63.0754890
  70.6040649   9.7353115  62.9422340  70.0016098   8.4412279  62.4388657
   9.6309319  66.1213226  36.2330132   9.2842922  66.2948380  37.1082077
   8.8565407  65.9407806  35.7001381  68.9883270  55.3911667  85.5424423
  68.6475220  56.0006676  84.8877716  68.2566223  55.2515602  86.1435699
  61.1255417  70.9580536  73.2960129  60.6958122  70.4147186  72.6354446
  61.1329880  70.4154663  74.0845337  66.2843552  64.5089874  29.4950047
  66.6166229  63.8166924  28.9235573  66.9723206  64.6301575  30.1494217
  14.6421070  37.9805450   2.7520864  14.1079149  38.7166061   3.0505574
  14.0887365  37.5246162   2.1179402  27.2067451  67.5791550  41.1690750
  26.9824944  67.2652054  42.0450745  28.1341324  67.3647842  41.0679359
  21.3060627  48.5030670  27.5342617  20.8938999  48.2079887  28.3462219
  20.8757877  49.3347397  27.3357315  64.3004227  41.2416573   6.9081459
  64.4402084  41.0802345   7.8412242  63.5249481  41.8018379   6.8755288
   5.1686206  36.1355324  86.2763519   4.3396482  36.3514366  85.8492432
   5.0412669  36.3917122  87.1898041  66.5237656  58.5362358  41.3071251
  66.3069382  59.1025352  40.5665016  66.1536026  57.6848335  41.0740471
  44.5583267  66.6102982  79.6094437  43.7299805  66.4851837  79.1463852
  45.1937904  66.7950592  78.9178696  70.4222336  29.2662010  72.1569138
  69.9395676  29.9620552  71.7107544  69.8825989  28.4849110  72.0360031
   1.2511908  12.9960260  63.2994385   1.3305067  12.0535622  63.4467583
   1.6903186  13.3937540  64.0512466   5.3244743  57.9307098  39.3365707
   4.3922496  58.1367912  39.4052696   5.7659683  58.7680855  39.4783859
  70.3935013  60.5195465  46.2841072  69.8194199  60.2228127  46.9902267
  70.3180161  59.8412056  45.6129990  41.1042824  61.8665810  84.9223785
  41.1035347  62.8137741  85.0604248  40.8877945  61.4994583  85.7794571
  73.5181732  40.3508797  27.4500179  73.6509171  41.0026054  28.1383972
  73.7952499  40.7912903  26.6465874  64.3293381  13.1288157  29.9764175
  64.2200241  13.9817514  29.5559597  65.2688217  13.0651684  30.1483116
  59.5259247  63.2778206   1.1464289  58.8389664  63.0923119   0.5061874
  60.3296852  62.9619064   0.7336402  56.4343872  59.8026123  82.3397293
  55.8796005  60.3380432  81.7724838  55.9214134  59.6908379  83.1400986
   2.8897355  54.5144081   4.3320556   3.2530105  55.2762146   3.8804872
   3.5873446  54.2311554   4.9231052  85.0360413   1.6871129  12.8509636
  85.4688110   1.6979883  13.7046747  84.1106186   1.5496913  13.0532923
  72.7026672  70.3060608  49.4631920  71.7912216  70.5837402  49.3715858
  72.6481247  69.3830261  49.7106934  41.2937202   1.0038805  25.6424732
  40.8105392   0.3494521  25.1380043  42.1593018   0.6159824  25.7710819
  75.3532257  62.7191353  54.1462517  74.9618149  63.5192833  53.7958336
  74.9180908  62.0114937  53.6707153  79.3502960   5.2634773   6.5208731
  78.4370804   5.4325027   6.2891254  79.3912811   5.4216723   7.4640203
   7.2192931  61.4542465   1.5125004   7.7552443  62.1334801   1.9219220
   7.0204282  60.8450470   2.2235296  15.6428146  54.3122559  21.6939507
  16.1505280  55.1221657  21.6438923  15.5367193  54.0393677  20.7826290
  52.2672997  28.3924980  66.7806091  52.9556427  27.7441101  66.6322556
  52.2886200  28.5528679  67.7240372  53.6257553   6.6199698  80.6945572
  53.1533470   7.4458618  80.7992706  52.9534149   5.9910116  80.4326324
  76.5442886   5.9420729  86.3529053  76.8305054   5.8756728  85.4419174
  76.2805176   6.8565273  86.4550476  66.9684753   3.3719485  77.3687668
  67.5352707   2.6011102  77.3408127  67.5424576   4.0808921  77.6588974
  56.9534874  13.0585899  10.8934650  57.8675995  12.9566517  11.1584997
  56.6539803  12.1664839  10.7183247  52.3460083  61.9090576  34.0282860
  52.6612206  61.5034790  34.8359833  51.6098671  62.4544334  34.3055801
  10.6822996   2.9067600  85.0763550  10.5560560   3.6748037  85.6334915
  11.3483734   3.1764402  84.4440155  67.1959915  18.6415901  46.1652031
  67.6637192  18.5519829  45.3348808  67.8689270  18.5149612  46.8340492
  14.0210152  58.4032021  85.5376892  14.8992386  58.5429611  85.1835327
  13.5104733  59.1442413  85.2114410  54.5363731  60.0146980  23.6758976
  53.8414421  60.2952423  24.2713795  55.3413353  60.1114197  24.1847286
  43.3044243  54.3143806  49.3917847  42.6421547  53.7352638  49.0146179
  43.7849007  53.7602234  50.0068321  70.1211395   7.6050134  60.5872116
  70.3249969   8.4944944  60.2982521  69.8451614   7.1517267  59.7905922
  73.3874741  50.7244682  26.7178478  74.1246262  51.2427254  27.0407257
  72.9112930  50.4674797  27.5074310  13.5038033  47.8910713  16.4217930
  14.1487265  48.5940514  16.5000763  14.0270910  47.0969772  16.3130932
   2.7054503  44.6469345  40.2366791   2.0195336  44.2482567  39.7011375
   3.4888868  44.6113129  39.6878738  73.1725845  63.6088982  73.4870605
  73.5887527  62.9382553  74.0286102  73.8973236  64.1560059  73.1843033
  50.6198959  24.4101181  77.1457901  50.7707558  24.1761742  78.0616226
  50.4713707  25.3555946  77.1614456   3.8384213   8.9168673  84.1886826
   4.7720656   8.7190390  84.1151657   3.4824595   8.2004719  84.7143250
  68.1190948  39.8939171  12.4151525  67.8407364  40.4236488  13.1622362
  68.7137527  39.2444344  12.7903700  71.1369553  19.0838890  24.2403946
  71.4188766  18.3917866  23.6422749  70.1856689  18.9880142  24.2862530
  39.0413780  46.1036263  55.3343582  38.5739632  45.2979507  55.5549049
  38.4016075  46.6273003  54.8519783   7.2952442  61.3257866  46.7234650
   8.0064392  60.7005272  46.5838890   6.6987028  61.1777229  45.9896736
  25.8968372  66.7571640  24.9099407  25.9170723  65.8200378  24.7159901
  25.1454334  67.0874939  24.4174957  75.6620102  60.1972160  42.4985046
  75.1062241  59.6482277  41.9453735  75.7660751  59.6951027  43.3067627
  63.4181786  69.2794876  41.6994858  62.7355118  69.3272476  41.0302162
  63.8847084  70.1120224  41.6255760  34.2401428  49.4249649  40.2701454
  34.3052063  49.1782951  41.1927223  34.9393387  50.0663719  40.1438293
  57.1374779  46.0789680  80.2758102  56.6069603  46.8675423  80.3895340
  57.1213379  45.9133224  79.3331909  20.3630638  54.9650002  44.0264168
  21.0023003  55.2567062  43.3764038  19.5346451  55.3462181  43.7355118
  75.4685364  54.4994850   8.5347490  74.6706619  54.0390968   8.7948771
  75.2782211  54.8315735   7.6574082  42.1387978  12.8418493  14.6344633
  41.2550240  13.0932140  14.3661451  42.2811165  13.3089695  15.4577341
  77.0314941  58.5598106  30.5307732  77.3615265  57.8381767  31.0660820
  76.4585037  59.0517426  31.1189175  81.0256577  31.9357281  81.1020584
  81.7629089  31.4467411  81.4675522  81.1417847  32.8265762  81.4324112
  76.6529999  65.6038742  23.4878044  77.2742462  65.5329895  22.7630596
  76.6579971  64.7367859  23.8932304  57.8044014  20.4831562   8.7652969
  58.4174805  20.9510403   8.1983328  58.1050262  20.6755009   9.6534739
  48.9611053  44.4007988  81.6554031  48.9851952  44.2329445  82.5974655
  48.8151894  45.3441010  81.5838470  79.8957901  22.3575268  38.0576820
  79.6624756  22.6139755  38.9498863  79.1657715  22.6663151  37.5210648
  39.6342010  64.2251434   7.6815438  39.5261803  65.1648483   7.5348492
  38.8222008  63.9547539   8.1102362  77.6627884   6.0207014  83.8376083
  77.9945831   5.1669860  83.5595551  78.3362732   6.6415133  83.5596848
  10.0677853  49.8394051  78.0984268  10.6083860  50.6000061  78.3116608
   9.8910570  49.4266052  78.9437714  84.4803391  53.6084747   9.3535290
  84.4538040  53.5290985   8.3999949  85.1975632  53.0341644   9.6218176
  56.6817894  27.8373985  16.8282604  57.0376434  28.4362850  17.4847164
  57.0444908  28.1482830  15.9987841   6.6569681  19.8213940  18.6536674
   5.9337921  20.4429970  18.5708599   7.4374552  20.3705120  18.7281113
  67.9802246  26.8308907  15.7045279  68.4093552  27.6722755  15.5491209
  67.0451050  27.0219135  15.6318045  13.3792238  46.3064690  66.6694565
  13.0061369  46.4329681  67.5418320  13.1107845  47.0835114  66.1791763
  28.7829990  32.6176071  71.5085602  28.6267815  32.5496979  70.5666428
  27.9089317  32.6921768  71.8915482  21.5577374  28.4912624  71.1851501
  21.6207829  28.9081688  72.0444717  20.9823303  27.7392845  71.3253937
   3.4646547  71.1252136  33.1381760   4.3764200  70.9174881  33.3425407
   3.1096694  71.4748306  33.9554825  66.1981812   2.0900276   9.5162954
  66.8230057   1.9202950  10.2212944  66.0741730   1.2389694   9.0961132
  64.3210297  57.4952965   4.3668218  64.6646576  56.6295853   4.1461520
  64.8699570  58.1040154   3.8724895  13.2930021  32.5011902   1.3759302
  13.4741802  31.5805702   1.5653120  12.8669958  32.4900627   0.5188262
  46.1247406  69.6717072  52.6327591  45.6991043  70.5283890  52.6669159
  45.4090958  69.0444260  52.7357407  23.9720612  69.3981857  76.7550888
  23.0560036  69.1207352  76.7647476  23.9719563  70.2406693  77.2094574
  60.0400505  28.1566772  81.3660965  60.7564697  28.7235870  81.6517410
  59.2540207  28.6927700  81.4709549  55.8173332  41.5040131  16.5552330
  56.4792328  40.8468361  16.3401966  55.0293503  41.2084389  16.0992184
  46.8006020  56.4133606  19.5064297  46.7739830  56.1067848  20.4128151
  47.5689545  56.9829597  19.4687138  69.2977142  35.9030685   3.3756154
  69.9918442  36.4962196   3.0882306  69.7212067  35.3311005   4.0157204
  81.0861359  52.3211098  65.1169434  81.3577652  51.4485016  64.8323288
  80.2422562  52.1810532  65.5464630  40.5468216   3.3999538  60.9825363
  39.6137543   3.3271859  61.1833458  40.6452789   2.9591463  60.1385994
  83.7144394  16.7389946  79.6163025  82.8159943  17.0266705  79.7783890
  83.7759018  16.6708488  78.6635056  43.1858177  60.8697929  68.2397156
  44.0163078  60.4259453  68.0679169  42.7220001  60.2861023  68.8400574
  11.9589968  33.7213173  70.7037354  11.8820009  33.2058449  69.9008713
  12.8598127  34.0448723  70.6951599  70.3540115  18.4228725  15.8726778
  69.7488632  18.4444752  16.6140060  71.2150497  18.5758171  16.2618332
  65.9616547  14.7775574  64.3601303  66.8999557  14.9456625  64.4471512
  65.7911148  14.8516998  63.4211655  57.3945923   0.8337163   7.6101184
  57.9012642   1.0024837   8.4044952  56.8064423   0.1172594   7.8488626
  62.3324356   9.3757477  77.6048813  62.1655655   8.4370909  77.5193863
  63.2848511   9.4446344  77.6711655  52.9130287  69.2764893  37.2182846
  52.1955643  69.5597916  36.6515236  53.6865997  69.7132721  36.8618584
   6.6836905  55.2531662   0.7205181   6.0878024  54.6953011   1.2204536
   6.1099639  55.8716393   0.2682320  60.7627411  47.0681190  16.0051556
  60.9303398  46.2358131  16.4472084  61.3329391  47.6948814  16.4504356
  71.2341156  65.3698502  87.8108521  71.8473282  65.1842270  88.5220108
  70.5628357  65.9222107  88.2114792  82.7950821  51.0334167  82.2172241
  82.0116882  50.5410156  82.4623108  83.3473587  50.3954315  81.7653427
  35.6470985  66.4906464  55.8458481  35.9331551  67.3909149  56.0005074
  36.1237717  66.2192917  55.0613861  29.1664524  59.4681511   6.2940187
  29.3433304  58.8174324   5.6146731  28.2618542  59.2994270   6.5575790
  55.0353203  24.8719215  53.8696632  54.7691650  25.2489891  54.7082405
  54.8794479  25.5695744  53.2330971  22.0801105  47.9848785  57.9520416
  21.7791729  47.1248055  57.6588898  21.8988895  47.9945068  58.8918839
   6.9315000  40.0263748  77.0884705   7.6586089  40.6487198  77.0733032
   7.3456831  39.1779251  77.2460022  15.6663542  27.8518353  80.3062057
  16.3456726  27.3260078  79.8839874  14.9939461  27.2182121  80.5564499
   0.1968467  55.8815308  45.7438469   0.4439226  55.0942917  46.2290688
   0.2156830  56.5811501  46.3968468  55.4546852  41.9179192  84.9669876
  55.2068825  41.3012352  84.2781296  54.7432175  41.8629227  85.6049728
  58.6622200   8.7792578  55.8907547  58.9769554   9.6822844  55.8493080
  58.6111374   8.5012112  54.9762535   2.5976880   0.7610540  73.0470123
   2.0979474   0.7806613  73.8631592   3.4941952   0.9691822  73.3100510
  62.7742310   2.7940030  76.5639343  63.1537590   1.9770192  76.2403183
  63.4718170   3.1925728  77.0842743  77.8940811  36.5358620  75.8825989
  78.4445038  37.0763969  75.3159561  77.0704422  36.4476166  75.4029541
  54.9077606  67.6401672  49.0098686  55.1862411  67.0406799  49.7021828
  55.5089073  68.3818207  49.0791245  51.5483208  57.4136314  32.0982323
  51.7128677  56.6796112  32.6901550  51.0571442  58.0423431  32.6270943
  63.4928093   6.0991483  53.0934982  63.7639465   6.6832495  53.8016968
  63.2752151   6.6858649  52.3691711  45.2485313  38.4864883  58.1782036
  45.8137512  37.7161713  58.1201477  45.4362106  38.9819031  57.3809738
   2.0750523  34.5683174  88.8908005   1.3171445  34.6709976  88.3152466
   1.7324400  34.7319336  89.7694855  65.8172607  28.2484074  64.8242950
  66.7009277  28.3284416  64.4651794  65.3331299  27.7557583  64.1616211
  66.5067673  14.9188328  56.6554642  66.9948807  14.7101355  55.8589592
  67.1632080  14.8953943  57.3517151  24.3708801  59.4960289  63.8480377
  25.3052006  59.3012810  63.7748833  24.1703949  60.0061646  63.0633087
  28.4001236  43.6541100  42.7441902  27.6820164  43.9789276  43.2873726
  28.8832779  44.4405441  42.4905891  72.2785110   8.2604723  13.4261789
  72.0594635   8.1662283  14.3532009  71.5973816   8.8348341  13.0763187
  13.0336828   7.7636900  24.3946400  13.7608843   7.7843394  25.0167198
  13.4050827   8.1038561  23.5806503  35.7730675  40.8461342  85.9748459
  36.5070076  41.2752228  86.4146729  34.9967308  41.2904358  86.3156204
  53.0454865  20.5640697  19.1109028  53.4182472  19.6978283  18.9468632
  53.5690269  21.1562538  18.5710392  26.4399490  66.7042465  43.6106071
  25.5816307  66.3726807  43.3468208  26.8320885  65.9857712  44.1068459
  77.2132492  22.9628334  10.4078484  77.4861679  23.5650845   9.7157202
  77.9219742  22.9992065  11.0502005  29.2945042  60.0466347  35.7286720
  28.6934471  59.3473320  35.4718819  28.7277279  60.7987518  35.8998947
  46.6612091  60.7748222  72.9570770  47.5657196  60.9273834  72.6835403
  46.1335869  61.2519112  72.3165817  32.8828239  50.8489647  31.2591610
  32.2830696  51.1655731  30.5836697  33.0732422  49.9456711  31.0061092
   4.4134459  46.4735069  22.8117409   4.5722446  47.4131279  22.7215786
   4.5621667  46.1202164  21.9346428  46.4860077   8.5342617  11.6655922
  46.2677460   8.2998533  12.5676155  46.0766373   9.3895397  11.5346355
  20.2673874  40.0180016  73.0672760  21.1614323  40.3585129  73.0361786
  20.2408962  39.4869652  73.8632202  81.1433258  65.9991302  34.5250168
  80.4528580  66.6248779  34.3060837  81.4197693  66.2465134  35.4074059
  82.3757629  17.5101757  38.6670456  82.5648346  18.4418659  38.5555305
  83.0854111  17.0647011  38.2042542  48.1355934  58.3122292  57.6853676
  47.9245605  59.0403290  58.2698059  48.4385490  58.7316055  56.8800240
  56.3539925  18.8007793  73.5743408  56.4236221  19.7485561  73.4598694
  57.0800285  18.5758152  74.1561432  81.9842758  56.8324280  46.3959503
  82.7148972  57.0154762  46.9866486  82.0986252  55.9142113  46.1509399
  11.5795527  56.9125938  15.3084249  10.8293648  57.1105270  14.7478237
  11.1917410  56.6066704  16.1283302   1.2847281  29.6814137  73.0691528
   1.0515456  28.8127728  72.7415543   1.9456457  29.5144939  73.7411346
  33.1048393  15.5852308  87.9948196  33.9940376  15.7702103  88.2970352
  33.2253952  15.0966005  87.1806030  22.3390923   1.7906504  17.7158928
  22.5546417   1.3142023  18.5176201  21.8535194   1.1591386  17.1851921
  38.3660126  54.3696022  78.1632919  39.0598412  54.3203201  77.5057144
  38.0864906  53.4622536  78.2850113   7.9875884  69.3991699  57.4122429
   7.3898263  68.6538315  57.3540230   7.5698938  70.0826874  56.8882523
  56.2392426  66.5648193  19.6389217  55.9102440  67.2820816  20.1807079
  55.6579781  66.5529480  18.8785114  16.4953575  65.7064438  62.4797058
  16.2350292  66.2321625  61.7233391  17.2627888  66.1572037  62.8319778
  63.2312393  67.5017700  66.4625092  63.0157318  67.8868408  67.3119202
  62.4000168  67.1541595  66.1392899  84.2653046  41.4511185  53.7463226
  83.8105392  42.2926369  53.7106552  83.8704834  40.9355087  53.0431213
  65.2358017  33.3382759  71.9299011  65.1529236  33.3706131  72.8829575
  65.6948090  32.5162582  71.7571564  29.1364994  64.3628922  41.6894684
  29.3058376  64.8211899  42.5125885  29.9127026  63.8194351  41.5538406
  45.5466156  41.8993340  17.0252590  44.6759911  42.2289276  16.8025150
  46.1349335  42.6305389  16.8369770  57.2070808   9.2206144  70.8454437
  58.0820999   9.5412617  70.6269073  57.2809601   8.9217062  71.7517700
  26.0263443  53.4571800  27.8703346  26.9446678  53.2553558  27.6909504
  25.7366028  53.9545326  27.1055317  77.2913132  45.8393631  39.8598862
  76.7088776  45.5060272  39.1773300  76.7021484  46.1382446  40.5525513
  30.2886772  15.8915634   7.5103431  31.1170654  16.3711224   7.5156159
  29.7710743  16.2999744   8.2042599  10.9719095  36.5844955  57.3977547
  11.6937084  35.9947205  57.1800346  10.1827602  36.0835419  57.1915474
  53.7725372  55.4099884  46.1361847  53.1264305  55.1274261  45.4889259
  53.3086433  55.3667183  46.9723434  81.4530563  58.8122902  16.1513252
  80.9379349  58.3325462  16.7999649  80.9807739  59.6363068  16.0322666
  64.4873276  25.4208755  75.8442688  63.7745056  24.8030605  75.6817245
  64.3065643  26.1549759  75.2571945  18.8756256  14.4728060  47.7603645
  18.1153221  14.9204178  47.3891373  19.4486408  14.3121490  47.0106506
  83.8900833   7.2106266  30.6360741  83.0266953   6.8769341  30.3922634
  84.4496078   6.9951382  29.8899307  44.5344925   9.2683945   7.7810836
  44.1429825   9.1772337   6.9123826  45.0777130  10.0539713   7.7177367
  83.6500931  31.7226734  41.1513100  84.1628952  31.1714096  40.5602341
  83.7005386  31.2781410  41.9975281  77.9490967  39.7513123  86.4384613
  78.3779984  40.5866280  86.6242676  78.5304489  39.3172340  85.8140945
  78.4430389  37.2411652  46.8335495  79.3098373  36.8630219  46.9814911
  78.6144409  38.0548973  46.3595314  83.7408676  21.4368000  39.2060661
  82.8577499  21.0934486  39.3418846  84.2883301  20.6577282  39.1082726
  72.3877335  28.2971554  23.0891895  72.2113800  28.8783150  23.8290443
  72.2377014  27.4172096  23.4347572  68.2596436  11.4102182  55.8538055
  69.0367432  11.3077679  55.3043938  68.5399780  11.9938936  56.5587616
  50.8757286  30.1291714   9.8281822  51.1002617  30.9132519  10.3292141
  50.1795998  29.7118664  10.3356209  72.8587646  12.8815823   5.5917878
  73.4874725  12.7743006   6.3055449  73.3455353  12.6363010   4.8049459
  14.5237226  23.6050243  78.7662354  13.9589176  23.9611664  78.0803833
  14.4134378  22.6565914  78.6988373  74.9056931  17.8604603  78.9142609
  75.4494247  17.0830479  78.7868958  75.5301437  18.5844002  78.9612808
  19.4872017  62.9760284  85.8754654  18.8008327  62.3419151  85.6680222
  19.2756462  63.7414093  85.3409805  39.7629929  24.8426552  41.6966133
  40.5106163  24.4519463  42.1489792  40.1028252  25.6612740  41.3352127
  19.1276512  17.5682068  29.0822182  18.7839851  18.3588104  28.6661949
  18.3798237  17.2012863  29.5537643  66.9117584  62.6674652  61.8496056
  67.4220963  62.9428215  62.6111641  66.0127792  62.6072235  62.1727676
  16.8020096   6.2475629  77.2914734  16.1088257   6.0019498  77.9041672
  16.6061764   7.1553850  77.0596542  16.9398060  63.6301689  50.0865059
  17.4691849  64.3957443  49.8631668  16.5967712  63.8224907  50.9591866
  42.9648132   2.8434701  52.5579987  42.1078033   2.8048053  52.9825859
  43.2815208   1.9403442  52.5750580  70.9115982  65.7051849  62.0561028
  71.2733917  66.2659225  62.7423325  71.4221039  65.9217529  61.2759018
  85.2301407  62.8428955  62.2655602  85.9856262  62.7584686  61.6838875
  85.5864487  62.7026367  63.1428299  39.5573235  22.0256042  10.7866964
  39.3092995  21.1464844  10.5005741  39.4024849  22.5791779  10.0213118
  50.3663139  61.5893669  41.9316139  49.8092995  60.9432526  41.4974442
  49.9475670  62.4298782  41.7460709  31.9035378  37.0802727  82.5778961
  31.6548958  36.8312759  81.6877213  32.7166481  37.5737343  82.4702911
  73.1418076  67.7708130   6.4041281  73.0815353  66.9540405   5.9086676
  73.6783600  67.5500793   7.1654582  73.4116745  36.9889946  47.7065392
  73.7292023  37.8687897  47.9099312  74.0871353  36.6154976  47.1404305
  44.6439247  68.0074539  48.8174248  45.5752831  68.2233047  48.8645134
  44.4854698  67.4610901  49.5872345  46.8620872  23.6102962   7.3562698
  46.5704880  23.0293274   8.0588932  47.6860809  23.9778728   7.6758804
  51.0745583  63.7867508  75.4891357  51.8322144  64.0661087  76.0030975
  51.4475632  63.4627419  74.6693115  69.9586258  20.6991539   1.4107924
  69.8139648  19.7529926   1.4199189  69.1332550  21.0706635   1.7221882
   7.5232930  28.1995010  72.2978516   8.0026188  29.0265331  72.3478241
   8.1224823  27.5525208  72.6701736  73.8937531  13.5464354  46.8947220
  74.7838821  13.5279808  46.5432053  73.9266205  14.1971207  47.5959778
  30.1117172  11.3858910  76.5110397  30.6606140  12.0166960  76.0451736
  30.7317905  10.7634773  76.8909683  83.7155228  43.3953285  50.6492195
  83.6107864  43.7264481  51.5411949  82.8205566  43.2718315  50.3329544
  69.6882324  67.8836975  69.5414810  68.8469620  68.3162231  69.6878204
  69.5510330  66.9852142  69.8416977  10.6385736  59.3252220   6.5289135
  11.4410286  59.6538086   6.1235394  10.8701382  59.1967926   7.4487586
  72.3632507  32.0222816  84.9847107  72.8023605  31.2048244  85.2196274
  72.4544601  32.0783844  84.0335236  14.4678726  57.7866974  18.7484589
  15.3189821  57.5887756  18.3577271  13.9004984  57.0710373  18.4618397
  24.2617512  17.8658867   7.5410271  23.3602486  18.1857109   7.5762253
  24.2266445  17.1153660   6.9479699  75.0983200  14.3828230  53.0364990
  75.5151901  14.6336594  53.8608398  75.3468323  15.0737848  52.4224625
  29.2205086  63.8046455  35.3470993  28.2988586  63.9525452  35.1351624
  29.3541260  64.2702332  36.1726913  83.5514755  63.2111549  88.1678238
  84.1860886  62.5214310  87.9734421  83.6306992  63.3504753  89.1115112
   6.5008345  12.6141977  65.5216141   6.8738918  11.9307642  66.0783691
   6.0187960  13.1787786  66.1258621  64.8736191   3.2166486  65.9435043
  65.6364899   3.0768869  65.3825073  64.4842758   4.0291629  65.6203003
  14.8480902  31.3202305   6.1122422  14.8116283  30.4066143   6.3954539
  14.1362209  31.7472992   6.5887785  64.3432541  24.9890957  19.7645531
  63.4230537  24.8127232  19.5687084  64.3684464  25.9222069  19.9764557
  23.2605228  61.8841248  89.0959015  24.1890602  61.6519279  89.0842972
  22.8558960  61.2847481  88.4688034  47.7559471  49.1177750  79.8474503
  48.3127708  49.8650017  80.0661621  47.6720238  49.1524048  78.8945694
  16.5604324  53.6450005  48.5262260  16.8906555  53.0451698  49.1950951
  15.6150227  53.6711807  48.6736984  47.1831093  58.8212318  20.9905872
  46.8148613  59.7036362  21.0351315  46.4815445  58.2526169  21.3079529
  62.5385170  47.1874084  11.4791899  63.2223091  46.5270805  11.5915508
  61.8921928  46.7685890  10.9107800  10.6597662  21.8281746  81.8647842
  11.5891800  21.9040375  81.6487579  10.5275507  22.4539204  82.5769577
  23.7131329  45.9389687  30.5572224  22.8485184  46.0917892  30.9384270
  24.0390949  46.8134689  30.3445473  12.1003170  16.5264416   3.4207578
  12.7645321  16.1174908   3.9755642  12.1736574  16.0694637   2.5828884
  54.9477196  35.0333443  10.8770008  54.3583755  34.4112968  10.4504337
  54.7939720  34.9056435  11.8131018  83.7909622  66.2029648  18.3505478
  84.7362976  66.1252518  18.4790955  83.5678787  67.0559311  18.7232628
  56.3825340  27.9978447  68.7929916  56.0664139  28.7012978  68.2260208
  55.7488251  27.9647388  69.5096054  56.5291519  53.0664101  65.7371368
  56.1896706  52.1759224  65.8266830  57.4720383  52.9524231  65.6179504
  37.0101509  23.0484200  68.8733749  36.6495552  22.2570057  69.2732086
  36.3174210  23.3592625  68.2905121  21.5890026   7.2646232  70.2922058
  22.4786968   7.6120610  70.2292404  21.0574493   7.8728442  69.7786407
   9.2566948  66.5473862  70.4768677   9.5752907  65.7443237  70.8889542
  10.0488186  67.0512009  70.2899246  57.4906998   7.8443050  79.7211075
  57.3528404   8.7874203  79.8092041  58.4269905   7.7546687  79.5434723
   7.3091860  37.9774208  47.0733490   7.7478013  38.4918747  47.7509804
   7.1886439  37.1139908  47.4685593  69.9868546   0.6082983  39.1622772
  69.8729782   0.7703686  38.2257957  69.6491241  -0.2774721  39.2948608
  49.5918312  47.9574928  28.5005932  49.8979111  48.6876869  29.0385189
  48.8044510  48.2906609  28.0701675  65.9922104  38.7970314  38.5748787
  66.5043411  38.1082878  38.1511002  65.9522476  39.4994965  37.9258995
   2.2522407  65.5382767  25.1013184   2.3710237  65.2449493  26.0046902
   1.3929683  65.1992493  24.8504353  64.2342224  35.3351746  50.7011108
  63.4696579  34.7706375  50.8149986  64.9825745  34.7596054  50.8589668
  60.3826942  19.3209724  26.2762299  61.2199821  19.7550392  26.4398422
  60.6107330  18.3996277  26.1523247  74.9294205   7.2766557  49.6368675
  75.4169464   7.6964827  50.3455887  74.0562210   7.1303921  50.0006943
  26.1812420  50.3182220  35.0138092  26.6355171  49.4957047  35.1963768
  26.0368080  50.7085152  35.8758087  50.5739288  19.1751728  15.3252344
  50.1279869  18.3466663  15.1493225  49.9892349  19.6394081  15.9242764
  16.8461056  56.7160034  68.4267044  16.2714500  57.3747520  68.8166428
  16.3740940  55.8906708  68.5374451  50.4968910  22.6612453  70.5709763
  49.5746918  22.9113464  70.6278381  50.9458542  23.2656517  71.1620407
   0.8074563  39.5054626  11.4364986   1.5259966  38.9174995  11.6693773
   0.1840205  38.9487305  10.9700136  74.5219345  13.0033636  25.9208431
  75.3082809  13.4376297  26.2514572  73.7968826  13.5133162  26.2820625
  82.8677902  46.3099136  80.3352737  82.3646317  45.7729950  79.7230759
  82.7830582  47.2014999  79.9974518  33.4235001  22.7419834  70.9458466
  33.0671539  22.1084194  71.5686188  33.4402161  23.5685883  71.4282074
  13.0257483  54.8728676  62.0900002  13.8037996  55.4080849  62.2462425
  12.3384371  55.5050392  61.8797798  74.4482269  49.1052513  19.6316090
  75.3985443  48.9990158  19.6745148  74.1378479  48.8360062  20.4961319
  31.8707943  40.8647728  26.2870197  32.0230522  41.4821625  25.5715656
  31.1805878  41.2710800  26.8111935  83.1582870  29.5563393   1.6980072
  84.0426331  29.8722038   1.5125681  83.2272949  29.1423550   2.5582891
  62.8045464  14.3972416  83.6706085  63.6226845  13.9004879  83.6595154
  62.1209984  13.7313166  83.7450180  30.1347122  43.7886314  45.6677322
  30.1488552  43.3101501  44.8388214  29.5749111  43.2623215  46.2385674
  84.4380112  50.9036598   8.2714167  83.9954910  51.5364304   7.7057242
  84.4659500  50.0986214   7.7543392  63.3001404  68.2357254  83.2823868
  64.2269440  68.2217026  83.0434875  63.2682533  68.7516251  84.0880356
  45.5368729  50.2347298  66.9121704  46.1535339  50.7408295  66.3831787
  45.2201996  50.8544731  67.5693359   8.5945063  60.7756538  14.8911247
   9.3549995  60.8835831  15.4622927   8.4160690  61.6562004  14.5609303
  61.7244186   7.1109190  32.1660347  61.0522461   7.7751765  32.0138054
  62.4188538   7.3257723  31.5432739  20.8501854  29.7464466  11.0887222
  20.2731209  29.5498905  11.8266888  20.7957249  28.9717674  10.5291357
  55.5213013  28.4327126  59.3190117  55.6375046  27.5112991  59.5508003
  56.4118690  28.7776241  59.2545471  74.2333221  41.6078873  58.2753677
  74.3508301  41.6945610  57.3293724  73.6531830  42.3315506  58.5119591
   1.4914961   9.6161671  77.7282028   1.9507349   8.7772942  77.6879196
   1.6592164  10.0221233  76.8777313  73.8838654  40.8303146  10.4025784
  72.9690552  40.8542824  10.6832771  73.9562149  40.0249176   9.8903971
  68.7476730  14.9283657  64.1123810  69.3488693  15.6435127  64.3206024
  69.3124084  14.2284889  63.7845421  28.9036846  62.6240044  69.6009293
  28.1421375  62.8137512  70.1489029  28.5652962  62.0556030  68.9090881
   7.8993459  70.9354401  76.5824203   7.1939631  70.2941284  76.6683731
   8.0765905  71.2182159  77.4795532  73.3391953  30.7702827  49.7995720
  73.0909119  30.9862099  48.9007034  73.5093613  29.8285046  49.7813873
  81.6193848  64.5072327  78.4473267  82.0382614  64.0870514  77.6961746
  81.0656204  63.8243103  78.8257446  43.7383575  40.6543388  79.5919189
  43.3089828  40.0035706  80.1472321  44.4545250  40.9927139  80.1293564
  12.8340292  21.5489025   3.4606304  11.9182377  21.2704353   3.4570818
  13.3286572  20.7435913   3.6124425  30.3849964  35.1283264  22.9902401
  30.7962666  34.8316612  22.1784039  31.0223713  34.9175377  23.6725540
  85.0785904  53.1060448   3.1301694  85.9793472  53.0997353   2.8063977
  84.9369965  52.2192955   3.4616234  83.3777390  39.1055870  11.6540680
  83.8486176  38.9848404  10.8294888  84.0348740  39.4545479  12.2562571
  46.0588570  23.1910706  78.4775772  45.8847885  22.6437855  79.2433472
  45.7597961  22.6661892  77.7350845  19.7264347  39.1851654  68.0775833
  19.7611465  38.6996536  68.9017792  20.3832264  39.8742485  68.1776733
  23.4111633  42.4114571   8.4209433  22.6399403  42.9747086   8.4856939
  23.5782394  42.3412399   7.4810562   9.1718512  25.7991562  11.8259516
   8.3251381  25.5296497  11.4700394   8.9544020  26.4439030  12.4991913
  76.7228394  44.0125542   7.9416251  75.9443588  43.7512054   7.4497972
  76.4834671  43.8773384   8.8584957  17.5659618  42.6270485   4.3097992
  18.0121746  43.1412239   4.9826670  16.6600609  42.5697670   4.6136003
  11.6483049  67.5701828   2.0190001  11.5580959  67.2461548   2.9151602
  12.4316797  68.1197968   2.0407555  85.8719025  41.9277229  20.5017014
  86.3023987  42.7035637  20.1425686  85.3768158  42.2546463  21.2528648
  51.1279411  71.1753693  82.7117462  51.9393654  70.6737671  82.7905655
  51.3851471  72.0780258  82.8996277  33.2104187  37.3352585  20.2947674
  33.6185951  38.0125427  20.8341293  33.7067719  37.3493118  19.4764347
  42.2812386  64.0281754  80.5266495  41.6056175  63.3899269  80.7555618
  42.5616570  64.3917770  81.3665237  52.5300560  51.6238556  43.5693054
  52.4719238  52.4727859  44.0076790  52.8900871  51.0356712  44.2331161
  37.6991196  59.2458191  49.8084030  38.4413986  58.7789001  50.1921196
  37.7498016  59.0487480  48.8730850  63.5612106  11.0992765  10.2289448
  62.6300697  11.0750532  10.4494371  63.6994781  10.3220024   9.6876879
  32.6095276   3.2367256  30.6070538  33.4344139   3.5624738  30.2469406
  31.9408016   3.5572615  30.0018311  73.1205673  24.8223915  26.2771626
  73.6545181  25.2509136  26.9461136  73.4104843  23.9102097  26.2873688
  30.7899456  18.9581089  69.8317032  31.7154160  18.8934555  70.0674057
  30.4055901  18.1387634  70.1434326  13.2910156  53.3335114  48.5091820
  13.1520786  52.6594200  47.8439560  13.3680553  52.8475037  49.3302155
  14.2909946   5.0229106  25.1561127  13.6166553   5.6611366  25.3888493
  14.0566626   4.7382183  24.2727833  43.5430717   0.8583076  18.0681019
  42.9605064   1.6147088  17.9994678  44.1761780   0.9785954  17.3603325
  58.4586563   5.6817341  76.9319382  58.3201637   4.9917531  77.5807724
  59.1558380   5.3448768  76.3691864   7.4548783   7.0676699  14.3612661
   7.4018397   6.2835903  14.9077444   8.3576717   7.3693447  14.4622021
  53.6553802   5.3079481  74.6487961  53.1898499   6.0886660  74.9487839
  54.4840622   5.3244505  75.1275940  25.8993187  65.7114029  55.0838280
  25.6745625  65.5853500  56.0056877  26.5538845  66.4097824  55.0902138
  57.4248047  28.0876102   8.3813448  58.1951256  28.6532650   8.3277693
  57.1677017  28.1197128   9.3028107  67.5149307  69.7417755  58.3446655
  68.1196594  69.8339996  57.6084366  66.6454926  69.8158493  57.9511948
  70.8812485  37.0577583  46.9146690  71.7374649  37.1117058  47.3391800
  70.2630157  36.9421959  47.6362381  60.4656715   6.3947301  35.0316963
  61.2702675   5.8853302  34.9349289  59.8022995   5.7501798  35.2781219
  69.5053940  67.4537125  41.2923126  68.7530899  67.9320755  41.6407852
  69.4695816  66.6015778  41.7268524  46.7724876  65.3184891  44.6511993
  46.5234108  65.6237717  43.7788467  46.1602936  65.7568588  45.2422066
  35.0869102  39.0308037  21.3943825  35.9019318  38.7178993  21.0018806
  35.1405106  39.9843063  21.3296490  18.7410107  14.3359365  83.9155426
  18.8790760  15.1609783  84.3808136  18.6964512  14.5859661  82.9926529
  86.2515945  43.2611580   0.5711657  85.9374771  43.3379593   1.4720892
  85.4635391  43.3467598   0.0346296  12.3931122  22.8551292  55.8265076
  11.5861063  22.6423435  55.3577919  12.4215851  23.8118877  55.8322639
  84.8366776   5.7332935  21.7286758  85.3107529   4.9353795  21.9628124
  85.3002167   6.0711694  20.9623852  21.5567360  61.7574425  42.2639847
  20.9735870  61.1252975  42.6841736  21.3974648  61.6441879  41.3269463
  59.4951439  37.2278786  69.5140686  59.4801254  36.3503571  69.1320190
  60.2683716  37.2302551  70.0783005  52.1231689   3.8509884  76.5096054
  52.2189217   4.3128886  75.6767120  52.7350006   4.2914152  77.0994568
  58.0110779  33.2581711  58.1106949  57.7013474  33.2351227  57.2052841
  58.3882751  34.1319923  58.2126274  10.7186298   7.0849347  14.9979715
  11.1961441   6.2631207  15.1112547  10.7767506   7.2684245  14.0603228
  48.2933235  50.6476936  12.4229860  47.6067467  50.5625534  13.0844975
  47.8211899  50.8225784  11.6089001  66.7246933  22.2604561  58.7624626
  66.5305786  22.6299076  59.6238899  66.3705902  22.8984241  58.1429138
  30.8648376  55.9303207  36.5694084  30.9741383  55.3290176  35.8327103
  31.7521782  56.2290878  36.7684021  39.8512535  29.2668266  72.2178650
  39.0026855  29.6513710  71.9981079  40.3945084  29.4286499  71.4465561
  27.4572773  62.5302391  25.8129539  28.2628231  63.0002670  25.5975494
  27.5847569  61.6556129  25.4455147   2.8191984  18.7117729  77.3751297
   2.1146524  18.3661652  76.8270416   3.6224732  18.4080257  76.9523773
  31.8876114  62.4272804  57.6848793  32.2406311  62.4264641  58.5746002
  31.1082592  62.9805717  57.7369385  16.3215561  33.1169052   0.9493673
  16.4879684  32.3381195   1.4804348  15.4213200  33.3635445   1.1614469
  13.9583263  44.4571266  71.2394714  13.8065681  44.9860954  70.4562759
  14.2531004  43.6107178  70.9034119  85.5736084  57.0138664  23.5057373
  85.5028076  56.2030334  23.0019798  84.9333725  56.9147377  24.2103691
   8.2006054  37.5434608  77.6948242   8.5118608  36.8951492  77.0631256
   7.6104140  37.0547752  78.2684860  52.1229439   0.9491050  11.3126955
  51.5267029   0.4835861  11.8992290  52.3345680   0.3114762  10.6308775
  45.8151016  42.6377754  65.5993271  46.4505386  42.1750450  66.1455231
  46.0854301  43.5550117  65.6421585  77.3388214  17.2361298  82.1555557
  78.0142670  16.5701332  82.0272751  77.2179031  17.2749977  83.1042938
  53.0072861  57.8041039  58.1412849  53.8516083  57.3565521  58.0860100
  53.1595573  58.6545181  57.7291718  76.3967896  26.0311852  10.4902153
  75.6487274  26.6203442  10.3926039  77.1102219  26.4713631  10.0281706
   2.6209593  57.3055763  84.9473343   2.5795169  58.2523155  84.8124313
   3.4268126  57.0359116  84.5067520  50.9194870  16.0148735  45.1108398
  50.6797829  16.0744324  46.0356255  51.1810303  15.1021271  44.9895096
  78.2342834  19.3331299  69.6142578  77.9193420  20.2262077  69.4747772
  78.0537262  18.8837967  68.7885895   3.0354688   1.2348629  15.9692640
   3.8254888   1.7277011  16.1910992   3.2965357   0.6830504  15.2319860
  15.5173845  54.1112747  59.4482918  16.3211613  53.9367256  59.9378929
  14.9096355  53.4294815  59.7347031  59.2833633  35.9622116  43.9362335
  59.5327377  35.4749565  43.1509743  58.5217056  36.4759331  43.6675415
  40.0819473  52.7115936   1.3838867  40.4079857  51.8635101   1.6850255
  40.5970612  53.3534927   1.8726183  73.0152206  21.9728031  59.6604462
  73.2323456  22.2700844  60.5440254  72.6461029  22.7450123  59.2318687
   4.0901022   4.8093176  58.4700546   4.9554214   4.4074011  58.3931274
   3.7133336   4.4177384  59.2580528   9.9437208  58.8242989  54.4166412
  10.0386515  59.2278595  55.2794037  10.0188093  59.5537682  53.8014412
   9.3897514  52.4442101  56.7233505   9.7987890  52.0404282  57.4887772
   9.9745340  52.2277298  55.9971313  64.1387939  42.6811867  81.8009796
  64.3686676  43.3213959  81.1275406  63.8674507  43.2098618  82.5513840
  41.4755020  61.3913536  50.8118706  41.6667976  60.7569847  51.5026779
  41.7551384  60.9586105  50.0051689   6.2890024  58.5160103   2.1694858
   7.1534343  58.3324890   2.5373292   6.4430056  58.6055832   1.2290117
  18.3706436  43.6730423  88.0769958  18.7352734  44.3313446  87.4854584
  18.2619743  44.1329536  88.9094009  55.0441589  25.1494961  68.6065826
  55.1237869  24.2154198  68.4132156  55.4609337  25.2533779  69.4619980
  27.8195114  41.3134384  23.4296207  28.3225670  41.8954582  22.8600388
  28.4228706  41.0923004  24.1390476   8.8816271  58.2086067  40.8305435
   9.0841236  58.1833191  39.8953514   8.4611216  59.0584373  40.9616623
  71.6132050   2.5576406  67.8069382  71.0667191   3.1939194  68.2681656
  72.4511642   3.0043402  67.6864929  11.8140736  50.5546036  74.2124863
  12.5852585  51.1074448  74.0864944  11.5184898  50.3500595  73.3253403
  44.1713142  52.2297249  68.1066132  44.0335121  53.1687622  67.9823303
  43.2914200  51.8722343  68.2258453  78.4572296  41.5254745   8.9389305
  77.7897568  41.9046822   9.5106983  79.2813644  41.6709633   9.4035482
  28.9937363  14.4552298  69.4630966  29.3873997  13.6352568  69.1649323
  28.0568943  14.3438644  69.3013687   7.5330472  35.2563324  16.4741573
   8.2643700  35.4228020  15.8794432   6.8301659  35.8214645  16.1535091
  85.4124756  52.3545227  45.2874947  86.0020676  51.6017990  45.3325119
  84.5412369  51.9707336  45.1880836  42.2439919  66.6018143  74.9635162
  42.0534935  67.1171951  74.1797333  43.1991653  66.5436478  74.9856262
  14.1276922  57.7044716  79.5485458  13.9377117  56.8252182  79.8757401
  13.2774343  58.0458260  79.2714691   9.9732094  64.1824951  28.4753418
   9.8913965  63.9613838  27.5476322   9.8052893  65.1241074  28.5128498
  71.9336472  57.7324486  11.2991982  72.6072845  58.4013710  11.1767902
  72.3875198  56.9041786  11.1436253  16.2311554  28.5761623  20.4249306
  16.2667255  29.2031002  21.1473675  15.8537807  27.7861176  20.8117771
  19.4763641  54.5570946   9.5651951  18.7082424  54.6632271  10.1264067
  19.7618885  55.4514084   9.3783493  11.5535145  37.7457008  12.9908352
  11.9289112  38.1379929  13.7791348  12.3010817  37.6205940  12.4062643
  72.5157852  29.8400822  76.2950211  72.1605377  30.0745449  77.1523743
  71.8036270  30.0236149  75.6823425  19.5449619  43.9022903  59.6354256
  18.8858395  44.1505165  58.9872208  20.3635902  44.2629204  59.2947998
  57.5412445  19.2119312  67.5941238  56.7506218  18.9942379  68.0878372
  57.2196655  19.4827118  66.7341843  46.6674690  55.6143074  27.9180241
  47.0642815  56.0197906  27.1470776  46.3718643  56.3521690  28.4513283
  80.3574524   1.4377097  36.4848785  80.9623184   2.1783888  36.5269470
  80.5392075   1.0277940  35.6392021  75.7570343  51.4165573  78.3542786
  76.1687851  51.9189987  79.0573044  76.4093552  50.7573776  78.1172256
  86.1150970  48.6150932  73.0762329  85.9696045  48.5508080  74.0201263
  86.5022125  49.4816666  72.9520340  69.7235260  71.4821091   7.7914882
  69.3117981  70.8543625   8.3853197  70.2948914  70.9493408   7.2383742
  63.4574585  27.3622837  85.0795059  63.4045753  26.6600132  85.7277756
  63.0333366  27.0018291  84.3007736  51.5011444   3.3716683  24.0421124
  52.0561142   2.6567626  23.7304230  52.1054153   4.1009383  24.1808796
  62.6653900  28.5465965  31.4760170  62.1960831  28.8632870  32.2478256
  63.5823555  28.7598438  31.6490440   3.6553526  27.2825775  55.3073235
   4.1006942  26.6070232  54.7959251   3.8116758  27.0351009  56.2186699
  52.6608810  25.3890991  20.7023449  53.2359009  24.8805370  20.1305466
  51.8437500  24.8910656  20.7245121  62.9309502  27.6112957  68.0472031
  62.1038780  27.1438370  67.9302979  62.8030472  28.1292877  68.8419113
  85.6513748  57.8619499  56.1564369  86.4642258  58.3197289  56.3707771
  85.5344162  58.0083199  55.2177544  86.2619324  50.9411087  20.0266132
  85.3548126  51.1199341  20.2743683  86.3098221  49.9870834  19.9651909
  54.5527649  23.4252548   7.0907302  54.3350182  24.3314533   6.8724999
  54.3983498  23.3621426   8.0332813  43.7335320  63.8375664  39.9150620
  44.1618347  64.1582794  39.1213799  42.9159355  64.3330231  39.9629211
  42.2875938   4.2439547   7.6196337  41.5912857   4.5589719   7.0433083
  42.9451218   4.9393821   7.6031361  10.3656139   8.2082090   8.0168781
  10.3058462   8.4287825   7.0873585  11.2952595   8.3001041   8.2255535
  68.8421860  48.9834366  14.9415407  69.6658936  49.4707260  14.9581757
  68.6084595  48.8765640  15.8635950  80.9306717  13.6266251  69.6017914
  81.3984604  13.6330090  70.4368744  80.3316345  12.8830280  69.6685028
  23.5883808  33.0910149  66.4182816  22.8625793  32.7157440  66.9169006
  24.0848503  32.3327332  66.1104584  26.7634983  67.1202850  38.4644928
  26.0422344  66.4929581  38.4147911  26.9928818  67.1484146  39.3933754
  37.5756302  46.5070343  37.3695717  36.6859169  46.7442970  37.1081352
  37.8066826  45.7758751  36.7966385  36.9832764  31.0698280  27.2824249
  37.3719864  30.2898788  27.6784267  36.8713455  30.8396816  26.3600712
  42.2085762  51.5989876  25.0173550  42.9279289  51.1482964  25.4596672
  41.6401176  50.8946648  24.7058792  60.0234909  45.3752747  52.8229599
  60.3176231  45.6954918  51.9702110  60.0757713  44.4221458  52.7519341
  17.4863949  41.3609848  36.6065865  17.3042126  41.0350914  35.7252045
  18.3141594  41.8339157  36.5207329   0.7287873  51.2150154  79.2196274
   0.3152174  50.6643372  78.5548401   0.4137446  50.8629532  80.0521088
  22.9461975  40.2860374  51.4439316  23.4141445  40.1593895  52.2692871
  23.3453903  41.0665283  51.0595970  57.5324211  63.6161766  64.0805283
  57.9781761  63.7870636  63.2508659  57.9799805  62.8499794  64.4394989
  50.7841377  67.8086243   8.4260540  50.4229507  67.1546783   9.0244961
  50.4813042  67.5343246   7.5604429  43.2268906  65.0684433  82.7562866
  43.9404449  64.5875168  83.1755447  42.6347084  65.2923889  83.4741974
   8.0711193  48.3889580  44.3542442   8.0186033  49.3260536  44.1663017
   7.3033667  48.2101784  44.8972206  43.0906410  70.6479874  20.2652779
  43.0673599  71.1420135  19.4457493  44.0011635  70.7068176  20.5546207
  71.8481293  55.6300316  61.3875771  72.7736740  55.4054413  61.4833069
  71.8517838  56.5421448  61.0972786  71.8629990  32.9940376  68.9088440
  72.2026901  32.1245842  68.6969681  72.6092072  33.4562149  69.2906799
  25.8694611  59.2841187  11.9635820  26.5514145  58.6188126  12.0559921
  25.0790615  58.7887230  11.7489147   9.1198492   3.5232353   4.1856117
   9.5829735   3.5510421   3.3483694   8.6235847   4.3413134   4.2120991
  12.9944801   2.4674439  63.5134468  12.1088581   2.5294981  63.1555977
  13.0186872   1.6140027  63.9462090  73.2803421  13.6305685   0.4846784
  73.5903015  14.5225658   0.3281606  73.4241943  13.1777554  -0.3462842
  82.0102768   6.0006590  55.9986038  82.2613068   5.2184525  55.5073090
  81.5035400   5.6663175  56.7386475  46.3960953  45.4380226   4.5285201
  47.1781235  45.9718819   4.6687303  46.2514381  45.0001869   5.3673320
   2.6703746  53.4444084  33.2289162   1.9512715  52.8689995  33.4897385
   2.2762384  54.3156052  33.1852379  84.8740082  31.4805069  43.8803864
  85.6526184  30.9239101  43.8663635  85.2180634  32.3725281  43.9267693
   2.5663528  18.7666817  68.4715118   1.8382331  18.2491016  68.8152924
   2.1504419  19.4249439  67.9147873   5.6825633  52.9446335  33.1503220
   5.5103307  52.5258904  32.3069839   4.8404064  53.3196335  33.4079628
  26.3865490  70.7834015  21.5632515  25.8375854  70.4885559  20.8366566
  25.7798119  70.8826599  22.2969074  58.1711159  11.6928453  73.3465576
  58.3498688  11.4637117  72.4345398  57.6460266  12.4914627  73.2943726
  51.4985428   8.3685513  80.6660156  50.8456116   8.9269218  80.2439499
  51.3345451   7.4959192  80.3084488  59.1709137  47.7793770  47.9313087
  58.6689148  47.0932579  47.4914551  60.0244713  47.7666130  47.4982834
  83.4195328  33.0905762   1.6086969  82.5196991  33.1258392   1.9331737
  83.8261948  33.8900108   1.9430096  24.8056984  53.9631004  50.0788765
  24.4643860  53.5502892  50.8721771  25.1360645  53.2347221  49.5529938
   1.7103897  40.0544853  48.0193291   1.4354169  40.2946701  48.9041634
   2.5668602  40.4687119  47.9139442  84.7358780  11.4214029  18.9660778
  84.1570587  10.6638241  18.8807983  85.4257965  11.2696104  18.3201656
   6.8099003   7.1567783  65.1476059   7.2424417   7.9463711  65.4727020
   6.2812772   7.4599242  64.4094391  75.7475433   8.1707850  52.2438812
  75.0243683   8.6539116  52.6436768  75.8060150   7.3623877  52.7531013
  80.3833694   9.7964029  40.5697289  79.8948746  10.5850573  40.8055916
  79.9595490   9.0951891  41.0646172  29.3901234   0.2222589  41.1163254
  29.5305901   0.8094982  41.8590584  29.8338833   0.6511400  40.3846359
  27.5376701  48.1465416  14.1470242  26.7483521  47.7203941  13.8129492
  27.8896790  48.6222992  13.3947096  80.0385513  49.6576042   4.2537165
  80.2877045  48.8728447   3.7655468  79.6067352  49.3235550   5.0399590
  76.3854446  52.3448753  51.6198273  76.6074753  51.4599876  51.9094963
  75.7295380  52.2151566  50.9348488  29.2533379  71.4120026   0.4955032
  28.5929184  72.1033478   0.4494346  29.5008335  71.2560806  -0.4159054
   7.3198009  52.5173187   7.8843732   7.7530856  52.3876457   7.0407610
   6.6040421  51.8817749   7.8862062   1.6817741  11.0625172  13.4234867
   0.8298830  11.2495127  13.0290928   2.2648492  11.7299166  13.0617781
  44.1723289  50.1871719  44.7928581  44.0084724  50.4271126  43.8808212
  44.5867729  50.9615059  45.1734810  23.9679699  51.5920830  55.0101166
  23.5773067  51.3197250  54.1797943  23.7522545  52.5218277  55.0827484
  24.6921024  57.3821983  77.8930588  24.7254486  58.2604446  77.5138474
  25.1436768  56.8288460  77.2557907  20.9081402   5.9259162  76.6850891
  20.2135048   5.7223592  77.3114166  20.5087700   6.5498233  76.0788956
  23.7949715  48.2834816  72.8492889  22.8434696  48.2428474  72.9453278
  24.0490456  49.0795364  73.3161697  33.5060081  67.8793640  46.6546745
  32.6237335  67.5087051  46.6753922  33.6919899  68.1061172  47.5658417
  65.8044968  20.5094280  69.7277756  65.1619263  19.8127174  69.8616867
  66.6463776  20.0552940  69.6927567  20.5684948  54.1362610   1.0459231
  21.4678860  54.3821945   1.2623550  20.6446342  53.2619972   0.6636910
  26.3696194  43.2782135  19.7728100  25.8506680  43.9748268  20.1748714
  26.1229839  43.2990456  18.8481655  39.9758568  40.4732895  35.4195480
  39.9887543  39.6196365  35.8523827  39.0886612  40.8020172  35.5646362
  39.0354919  16.5521240   0.4310221  39.7714844  15.9830580   0.6562017
  38.6299057  16.1306248  -0.3266536  35.1813431  57.7089386  64.3259888
  35.8005867  57.8732986  65.0371552  34.8018227  56.8545685  64.5315323
  48.0847855  29.1547356  33.6936226  47.7335320  29.5653152  32.9035072
  47.3298378  28.7258301  34.0965233  79.1855392  44.4099617  37.8612900
  78.9275131  44.3497391  38.7810860  79.7038651  43.6204224  37.7057495
   8.8153782  49.6590118   8.4157944   9.5319386  49.0349236   8.3005247
   9.2347527  50.4419708   8.7726336  81.1164780   6.2553196  66.5734253
  81.4890213   5.7626266  65.8421936  80.6059494   5.6095986  67.0619278
  51.1677437   5.4061542   4.3953438  50.6412773   4.6146455   4.2831945
  50.9431076   5.9519906   3.6417973  20.2010307   7.8737888  17.6983051
  20.6134930   8.2774630  18.4619503  19.2997303   8.1956892  17.7147350
  30.2037258  26.6256371   5.5450187  29.6599293  26.8190842   6.3086252
  30.9384384  26.1221046   5.8955669  19.3556709  35.3734169  17.9427891
  20.0771370  35.9356041  18.2250366  19.7650452  34.5246696  17.7746601
  43.0680809  53.4933014   9.1848869  43.9910431  53.4255295   8.9403887
  42.7077522  54.1436920   8.5820684  75.1373978  13.5414057  59.9316902
  75.5651321  13.1826925  60.7092514  74.2274475  13.2534685  60.0045738
  71.4624023  23.1119404   3.1406512  70.8836212  23.0296307   3.8985896
  71.2948151  22.3234005   2.6245615  46.9483452  45.7836876  48.7073555
  47.5953674  46.3365784  49.1454239  46.1371841  46.2906761  48.7422142
  71.8315659  37.5620308  22.9583206  72.2411194  38.4271584  22.9510002
  71.0927582  37.6518707  23.5602551  84.5187302  27.6580219  44.8700905
  84.6301422  28.4650726  44.3676109  83.9553223  27.1109676  44.3227921
   4.8407526  45.8598900  71.6184692   5.5255723  45.5584030  71.0215073
   5.0536404  45.4468727  72.4553223  37.4446030  21.0047779  82.8863602
  37.1663017  21.9170055  82.9677277  38.3264809  21.0553875  82.5176392
  20.0169888  39.6404381   2.5196421  20.4209480  39.5765152   3.3850682
  20.3356915  40.4714279   2.1673455  84.6026688   1.7933286  86.7788010
  85.4138412   2.1485648  86.4154358  84.8776932   1.3279976  87.5687790
  76.5524902  53.4576492  88.4524231  76.6483917  52.5145111  88.5848236
  77.1172333  53.8515053  89.1173859  18.0961132  25.4111347  12.0531158
  17.9202709  24.7248631  12.6968126  17.3802547  25.3367100  11.4220524
   7.2076406  63.8047638  14.0831537   6.9214077  64.4325562  14.7466135
   8.1593733  63.9030304  14.0552177  24.5800648  68.1234818   5.8450994
  25.2017040  67.6928329   6.4319029  24.9925060  68.9605103   5.6317673
  11.8769932  64.1958923  59.6131592  11.5350246  64.3465881  60.4943962
  11.8732719  63.2438126  59.5143623   6.4048953  66.6151657  12.6008110
   5.5885119  66.4351273  13.0670042   6.3055830  67.5120544  12.2814970
  79.0303955  52.6903000  50.4892426  79.0186005  52.1784668  49.6804657
  78.2051926  52.4724388  50.9226151  24.1699810  11.9251328  80.0637512
  24.6894302  12.7291155  80.0599594  23.9066010  11.8058434  79.1512604
  23.8187160  37.2782555  20.7782478  23.8775711  38.2238579  20.9146538
  23.0409012  37.1629562  20.2324066  62.2401085  33.3347931  74.5610123
  62.6868019  34.1518707  74.7825546  61.9982300  33.4360428  73.6404343
  76.2200012  30.2234612  24.9651604  75.9584503  29.6153393  25.6565456
  75.7933807  29.8876667  24.1768246  60.1984901  48.1468544  56.5190735
  59.5735092  48.8690872  56.4557381  60.8018799  48.4124184  57.2130661
  18.8323212  64.9433975  81.1124802  19.0531216  65.7510223  80.6485519
  17.8814106  64.9790115  81.2160797   5.5343971  51.2385750   4.1667762
   5.4021258  52.0760307   4.6110754   6.2753968  50.8398094   4.6229987
  52.9175453  27.5262547  84.3812332  53.4324150  26.7193241  84.3824158
  52.0080528  27.2300053  84.3453369  73.7099991  27.9129066  10.4534788
  73.1554565  28.4485188  11.0207815  74.1296616  28.5414848   9.8661051
  44.6553879  61.3302116  27.5750084  44.9153862  61.2659836  28.4939785
  44.5690994  62.2700958  27.4156322  66.9016571  43.1099510   9.2104406
  66.4200974  42.2866592   9.1296816  66.3447800  43.7566643   8.7769842
  -0.3334926   2.8156686  22.0636959   0.4373206   3.3044446  21.7752914
   0.0057179   1.9534343  22.3039455   8.8752794  32.4766731   8.5277929
   8.7307434  33.4218254   8.5728140   8.0387640  32.1204414   8.2285032
  26.3118706   2.5551116  79.6317444  26.7363377   3.3879027  79.8379364
  25.3801117   2.7678428  79.5787811  20.4844646  15.7444048  59.2676620
  20.4360256  14.8057518  59.0865097  21.4182243  15.9495773  59.2204285
  25.6642265  37.3953438  59.9231796  25.6770401  36.9469528  60.7687645
  25.8497829  36.7071304  59.2842979  18.6141281  46.4477768  14.8786383
  19.4125519  46.5477753  14.3602247  17.9229736  46.8143234  14.3271112
  20.8177681  63.1784630  33.3544197  20.5311604  64.0549850  33.0979233
  20.0672646  62.6157379  33.1638489  23.3043518  34.1787987   7.2773681
  24.1763134  34.4525642   7.5619102  22.7433109  34.3398056   8.0360126
  81.1816940  52.6611481  30.7047691  80.5155716  52.5947227  31.3889446
  81.3453522  53.6004562  30.6202126  70.6750565  49.6022224  50.7323418
  69.7570267  49.4656754  50.9664421  70.7122803  50.5089340  50.4278412
  30.7117310   7.0291147  15.8808765  30.6912403   6.0721378  15.8836098
  29.7903709   7.2883801  15.8704576  17.7705460  13.2387276  58.2318878
  17.1991692  13.1510382  58.9948273  17.2534351  12.8929586  57.5043793
  85.0175552  10.4200220  81.3739853  85.2639084  10.9191523  80.5952606
  85.3379364  10.9459038  82.1068192  72.3007126  56.9635544  74.5978851
  71.5371857  56.8377151  75.1612930  72.1589508  56.3643494  73.8650208
  33.2183304  47.5095901  70.5872116  32.8234825  48.0397682  69.8949432
  33.0201607  46.6064224  70.3397217  26.7147923  49.2126389  58.2179413
  26.1042385  48.6396599  57.7540932  27.0826550  49.7735596  57.5350990
  35.0939407   6.4229283  69.0504684  35.4832344   7.2936411  69.1313553
  34.1836357   6.5893521  68.8057632  44.0927849  63.8051567  17.9394932
  44.8209343  63.4131393  18.4215260  43.8936577  64.6094437  18.4187679
  77.1412964  43.5435257  25.9009609  76.6293793  44.2886581  26.2155285
  76.7265396  43.3003235  25.0732746   9.6371307  63.7369423   3.6668162
   8.8501158  63.9760056   3.1772368   9.3400688  63.6560936   4.5731544
  25.1274815   5.4656153  12.4658327  25.3883572   4.6575022  12.9075661
  24.1893120   5.3601255  12.3079023   1.3147143  56.2412148  59.8324509
   1.6527842  56.5055618  60.6880569   0.3633668  56.2937050  59.9241829
  18.0910206  17.1347198   9.0141468  17.6148434  16.4528027   8.5403576
  18.5308609  17.6392193   8.3298569  68.6405640   2.0685055  42.2999039
  69.0878754   2.5147789  41.5808868  68.0329819   2.7219868  42.6463699
  69.6293564  12.0111094  30.4115067  69.5668259  11.1035852  30.7093697
  70.3402863  12.3854942  30.9317417  25.5469170  34.7120972  31.5465565
  25.0672970  34.8333168  32.3660088  26.3796673  35.1625175  31.6875572
  21.0491276   6.4848371   7.9313402  21.3570919   5.8646054   8.5921755
  20.5020294   7.1013417   8.4179993  86.2635727  59.9078026  62.7173920
  87.0664291  59.4363251  62.9395714  86.2505341  59.9208717  61.7603722
  70.9352493  22.8953972   9.4715281  71.5734329  22.2667847   9.1341829
  71.4636154  23.6334820   9.7753258  85.0128708  16.2586880  84.3672180
  85.0945053  17.1346283  83.9899979  85.2710037  16.3670864  85.2825623
  29.5262127  34.6925316   3.7206047  29.4172516  34.4296112   2.8066943
  28.6821384  35.0736961   3.9624395  27.5886688  67.6787033  19.3040695
  26.9481812  67.1939621  19.8246841  27.3700848  67.4660110  18.3967571
  54.4065437  69.4510651  18.7520237  54.6121941  69.1057510  19.6207600
  53.4499855  69.4603958  18.7182713  80.0002365  69.5099640  72.9031830
  79.0973053  69.1928177  72.8841782  80.0087051  70.2454300  72.2905960
  51.7699432  21.6666851   5.7039895  51.5564041  21.4332485   6.6073937
  51.1552505  21.1594124   5.1738400  66.3029785  56.6685677   6.4666677
  65.5367279  56.3516426   6.9448485  65.9646530  56.9081955   5.6039109
   7.8714290  56.5714455  63.5506897   7.3288126  57.3080215  63.8322067
   8.4915257  56.4426880  64.2684174  21.4239521  19.6744099   1.9462929
  21.0722885  18.8929348   2.3727427  21.4125423  20.3453865   2.6288564
  16.7673893  29.5750866  59.6280022  16.1410561  30.2862186  59.4929810
  17.0148010  29.3028221  58.7443237  84.9295273  37.9152718   9.6076469
  84.1692352  37.4405212   9.2717886  85.6328125  37.2659950   9.6160002
  55.9580002   4.6367102  54.7734070  55.6303406   4.0352244  55.4420509
  55.6513100   5.4984684  55.0554466   1.7659603  67.9504166  12.7437563
   1.6309639  68.8561554  13.0223904   1.9914086  68.0163574  11.8158245
  11.4695082  61.6722260  32.2911072  11.5393372  62.2106819  31.5028038
  11.6999178  60.7900391  31.9997578  52.7501717  55.2039566   3.6756752
  52.2611580  55.1520157   4.4968944  52.6642532  56.1175003   3.4031222
  39.9210777  17.3638382  16.0068569  40.5532761  18.0670853  16.1551762
  39.4575844  17.2787819  16.8400269  46.3115196  35.7340927  45.4656944
  46.7086067  35.1323166  44.8360748  46.4049187  36.5976105  45.0634003
  80.8160172  24.0232697  44.0428314  81.1756363  24.5014763  44.7899742
  80.2584610  24.6605453  43.5964622  22.9703045  16.5017834  58.7439728
  22.7048950  17.3933258  58.5182686  23.8226662  16.3916912  58.3225555
  71.0906448  55.6070709   9.0749531  70.1775055  55.3993645   8.8768091
  71.2219238  55.2835121   9.9661922   3.5498552  50.9391365  40.3369293
   3.5606234  50.5339012  39.4698067   2.6866546  50.7248344  40.6907501
  40.1077499  65.1284866  40.9223328  39.3049011  65.0532684  40.4065742
  40.4746590  65.9764099  40.6720428  81.2058868  51.9166145  40.2476768
  81.8494568  51.7304459  39.5640144  81.3382721  52.8414879  40.4557877
  51.5917931  66.5908585  72.2961197  51.1954689  67.1997070  72.9193878
  50.9505653  65.8854752  72.2095947  62.9132690  32.0602760  80.6238403
  63.6221390  31.6771202  81.1404953  63.2454948  32.0628128  79.7261505
  45.9440155  56.1073685  40.3272095  45.6947212  57.0154762  40.1556778
  46.7133522  55.9620895  39.7765350  62.1093636  28.6696033  52.8859177
  61.9710922  27.7403183  52.7027626  61.9280472  29.1072235  52.0541458
  32.0981293  46.6620789  51.0719070  32.9579887  47.0160789  51.2989578
  32.0606613  45.8175163  51.5208397  13.5475130  41.1793404  77.7937775
  12.6164970  41.3906136  77.7244644  13.9335690  41.9386597  78.2303848
   6.8489480  47.6914978  48.1792068   7.2743292  48.5489540  48.1862602
   6.2484636  47.7158966  48.9242287  70.1588593  14.7133169  22.3848629
  70.1033554  14.2423153  21.5534115  69.6399689  15.5056639  22.2463837
  63.1729736  12.8697033  48.8639259  63.4107666  13.2843008  49.6932602
  63.2919617  11.9331055  49.0215874  10.5625334  25.6656742   9.5842075
  11.2334108  24.9830627   9.5701799  10.2327499  25.6589527  10.4827785
  53.5073242  21.3844624  56.4275932  53.5525780  20.8022251  55.6691818
  53.4563179  20.7945766  57.1796989  73.2669601  34.8175888  35.7093887
  73.4976501  34.8983612  34.7839241  74.1055222  34.8551636  36.1694221
  68.3268127  70.9609680  19.4105721  68.0585709  70.0538177  19.2644348
  68.7261963  71.2289200  18.5829697  84.7503738  41.2785301  18.1072388
  85.1158752  41.7035370  18.8831291  83.8066101  41.4219856  18.1777649
  18.6968327  57.5954361  78.2961121  18.7025089  58.5316505  78.4953690
  19.6072712  57.3903160  78.0833664  -0.0565520  57.0340576  36.7106209
   0.2107088  57.5655136  37.4605255   0.5333043  56.2804184  36.7287865
  83.5618210  48.9272385  26.0806942  84.0867920  48.1924362  25.7633572
  83.8841095  49.0863609  26.9678478  68.0030289  68.8316727  23.9340305
  68.7289810  68.2094269  23.9792099  68.1738205  69.4508896  24.6437016
  70.0810013  34.3234291  62.0975800  70.8043289  34.7127953  61.6062241
  69.3797073  34.2247849  61.4536247  26.0295944  24.2077255  47.4796600
  25.5964279  23.7307987  46.7717476  26.4099216  23.5241623  48.0313187
  17.5591583  69.6497574  30.6955757  17.1946507  69.9455261  29.8613758
  18.2613735  70.2722702  30.8842773  43.0772324  32.1842117  67.3135529
  43.9356003  32.4869423  67.0172501  43.0707397  32.3652687  68.2534561
  59.8024101  13.8377304  83.8395691  59.9455605  13.1602859  83.1786575
  60.3342667  14.5767202  83.5441818  45.1685829  65.3769073  76.7513199
  44.6621094  64.6088791  77.0156174  45.8642998  65.4417572  77.4055405
  47.6656036  65.9924393  18.2574921  47.1873665  65.3229065  18.7466145
  47.7507477  66.7222290  18.8709965  22.6687965  16.6345062  14.5330305
  22.5097866  15.6943531  14.4490137  21.8035870  17.0330734  14.4392843
  61.9726982  11.1800451  68.5745621  61.3957672  10.7143478  69.1799622
  61.3804169  11.5713711  67.9324570   4.1314907  52.5091629  16.7888451
   3.6624055  53.0109291  16.1221962   5.0564213  52.6762047  16.6076488
  26.7607918  53.5095558  42.0449715  27.5354557  54.0707932  42.0787506
  26.6010742  53.2666283  42.9569550  32.0854950  70.9499207  74.5335388
  31.4305782  70.3703537  74.9226685  32.9098587  70.4709015  74.6183701
  74.2719116  70.8106537  51.8707924  75.0758209  71.0083542  51.3902969
  73.7770462  70.2383118  51.2844772  72.5598831  23.5403061  36.4939308
  72.4299469  24.0626869  35.7024345  73.4784317  23.2736225  36.4567795
   0.5776054  44.3235970  28.8438740   0.6893353  43.6944313  29.5565434
  -0.3070339  44.1603661  28.5167656  81.3194885  55.7931824  21.8305206
  81.3689270  56.0695610  20.9154224  80.3917847  55.8689308  22.0538101
   1.1279440  70.0755005  71.0604706   0.4190235  70.5718994  70.6515045
   1.5849960  70.7157135  71.6058655  77.7425537  22.0331421  25.0035191
  77.7024155  21.2277699  24.4877701  77.0611649  22.5915165  24.6291294
  17.1137733  36.4707680  79.9531250  17.0188236  37.3694458  79.6375427
  17.9112034  36.4857674  80.4823837   5.2001071  12.4842072  23.8628292
   4.5104485  12.9669876  24.3183804   4.8350058  12.3055019  22.9962292
  58.5215645  10.6777792   7.6907167  58.1875191  11.5007372   7.3338032
  59.4424896  10.6600676   7.4303064  69.1740570  28.4600372   7.0457478
  69.0141373  27.9720459   7.8535366  69.7297974  27.8821430   6.5228467
  38.7804489  24.0223274  71.8280869  39.1407127  24.8611088  71.5401840
  38.9439888  24.0023994  72.7710037  12.6982174  13.7067690  86.1520767
  12.6780901  14.2009830  86.9715729  11.8086157  13.7798595  85.8063889
  19.8091812  37.5085983   0.0517430  19.8222160  37.9733887   0.8884205
  18.8932209  37.5384598  -0.2245888  38.4685211  57.9782410  12.9058332
  39.0997581  58.6972122  12.9350529  37.7595367  58.3043671  12.3515625
   1.9292942  27.2355194  58.6968193   2.6439312  27.8188534  58.9522552
   2.2562110  26.3570461  58.8908272  70.4238815  63.4140701  73.0057526
  71.3090363  63.3310204  73.3604889  69.9886169  62.5987015  73.2546692
  12.5280180  65.3930817  27.2219334  11.9474678  65.6334457  26.4998417
  12.0455332  65.6421204  28.0102367  58.1746330  36.0695496  30.7405701
  58.8095360  35.4153748  31.0324402  57.5191765  36.0948906  31.4376812
  59.6865959  39.7175865   8.8433552  59.9971199  38.8667030   8.5338268
  59.7609444  40.2915115   8.0809164  73.9925919  55.2589149  37.9364624
  73.8071518  54.7896080  37.1230736  73.4042053  54.8643074  38.5801392
  72.7462463  71.0495148  24.6559315  72.1062241  70.3510742  24.7929935
  72.8300629  71.4689941  25.5122280  65.7969284  50.7633705  41.8127708
  65.8514404  51.6117706  41.3729057  66.5990753  50.3085175  41.5560684
  21.4550858  43.9555626  41.7964592  21.6273193  44.7333946  42.3270683
  20.5619011  44.0780144  41.4748077  69.7863922  52.1908760   3.5167301
  70.2664032  52.9468765   3.1786590  70.0484924  51.4668999   2.9480522
   6.8271260  29.6865063  32.3789062   6.4049792  29.4951668  33.2164078
   6.1294045  29.5882206  31.7310181  61.8350601   7.4289360  62.5474129
  62.0551109   7.7558303  63.4197388  60.9262772   7.1379919  62.6228714
  64.7342834  13.6429520   0.0879033  65.4041672  13.2283440   0.6315842
  64.1067734  14.0035200   0.7143621  62.7816467  17.8121758  63.8153496
  62.1693039  18.0975437  64.4934540  63.6117706  18.2252541  64.0530396
  35.0605812  37.9327736  26.3081646  35.9835167  38.1766815  26.3783989
  34.7676163  38.3366241  25.4912739  72.2592773  57.5314903  45.6587334
  71.3223038  57.5005455  45.4654732  72.5706329  58.3173599  45.2096291
  75.9185410  14.2547264  29.9512920  76.5937500  14.9094114  30.1293774
  75.2902985  14.3580551  30.6660404  79.2307968  51.2525787  68.5365906
  80.0130005  51.0740356  69.0586166  78.7761230  51.9454002  69.0156555
   6.9250450  53.4284325  16.7493095   6.6048923  53.8752174  17.5329647
   7.7684751  53.8420486  16.5655155  26.0229092  48.1821404  60.6933594
  25.7226601  47.2737923  60.6618652  26.3835258  48.3455505  59.8218765
  67.0613098  10.4924154  66.3520355  66.7868881  10.1860209  67.2163467
  67.9992981  10.3046532  66.3180389  53.8702469  27.0727425  11.5905876
  53.4179230  27.1857185  12.4265728  54.6838455  26.6223755  11.8174219
  -0.0564420  60.8486519  47.0963631   0.0337352  59.9188118  46.8878098
   0.7646270  61.2413292  46.7999153  86.4415894   9.9150524  64.9541626
  86.1895370  10.7154074  65.4147415  86.0151062   9.2121840  65.4443893
  79.1180725  21.6610317  84.8048935  79.9004517  22.1605854  85.0384979
  78.8767014  21.9857807  83.9374237  36.0508194   4.6146173  84.7854538
  35.1852455   4.3251390  84.4969788  36.1730309   5.4639263  84.3612213
  66.7733078  21.9939880  26.2382679  67.0435715  22.8695412  26.5150280
  66.7779846  22.0330105  25.2818756  53.4845581  50.8683739  75.4525528
  54.0273857  50.5077858  74.7514496  53.9329872  50.6122284  76.2584915
  65.2556534  28.5680389   3.4102161  65.3989487  27.7446938   2.9435227
  66.1334076  28.9294357   3.5333896  27.9052696  21.0194836   1.1626337
  28.1044807  20.4314728   1.8911871  28.6872406  21.5643482   1.0738933
  79.6120453  22.0824547  31.7723064  79.4150543  21.1539154  31.8957520
  80.1405487  22.1112041  30.9747543   8.7344189  20.6631165  80.1057358
   9.5205917  20.9135799  80.5909500   8.0391359  21.2036381  80.4807739
  35.8472557  51.9588737  74.8714218  36.0498924  51.7675743  73.9556885
  36.2711143  52.8004417  75.0397644  13.2928400  58.8678055  75.0848770
  13.7789021  58.0870628  75.3502426  13.5246363  59.5278282  75.7382278
  79.7846909   3.8656163  72.3227844  80.3050079   3.2341108  72.8194733
  78.8849335   3.7154086  72.6127853  78.8715134  32.0633621  63.3539696
  79.0479889  33.0025063  63.2983017  79.3553696  31.7741833  64.1275940
  32.4572563  50.9225388  17.8374405  33.3648949  50.7441521  17.5912666
  32.0485535  51.2396584  17.0320663  27.3605556  24.7817020   0.0818956
  27.7554817  25.2762432  -0.6362236  27.0654278  25.4507332   0.6995770
  56.1330872  59.3161774  39.8603935  55.9080505  58.9158287  39.0205650
  56.8160820  58.7502098  40.2201614  11.4757910  55.2654266  81.9889679
  11.9585905  55.8809662  82.5405579  12.1347523  54.9111519  81.3918991
  77.5472565  21.7638607  59.8021507  77.6466675  22.1589012  60.6683464
  78.3386612  21.2380028  59.6864738  59.2468529  50.1279106  53.1783829
  59.0089493  49.7922516  54.0426521  58.7476234  49.5876808  52.5658875
  21.3159657  20.8854313  71.1944275  21.5288143  21.6906071  71.6662521
  21.8328362  20.2082748  71.6309280  36.5923920  51.6164093  18.3905945
  35.7954636  51.5433311  17.8654289  36.6940041  52.5560493  18.5421944
   9.4338808  56.3944473  80.2604980   9.7182169  55.5428276  80.5923538
  10.0425491  57.0200081  80.6534653   7.6122050  46.8378410  20.4674072
   7.5579824  47.5830917  19.8691654   8.5471230  46.7454185  20.6507626
  67.5944901  24.8771534  28.5942497  68.4194412  24.5587273  28.2277870
  67.4759445  25.7419910  28.2015228  37.9693260  49.6336174   1.2177445
  37.3908806  48.9991646   1.6409528  38.8304253  49.4650421   1.6002651
  10.3831282  56.3811951  48.0221100  10.7674084  57.1807251  48.3817139
   9.8414335  56.0356865  48.7316360  40.3305855  47.6788406  57.2773972
  39.6346016  48.0162239  57.8413239  39.8793869  47.4009056  56.4802780
  56.1007385  31.1980152  26.0203648  55.6147919  32.0215530  26.0636959
  56.5916405  31.2524376  25.2004356  42.6124763  42.5319214  23.6498737
  42.3545036  42.8890877  24.4996471  41.9317741  42.8317757  23.0474072
  49.2861710  22.8020706  23.0666199  48.9232407  21.9663391  22.7732563
  49.3651161  23.3227005  22.2672787  83.4470901   9.4947929  71.9673843
  82.9622116  10.2647486  72.2645264  83.9336166   9.2055321  72.7393036
  27.4939327  42.5421677  51.8738594  27.7423859  42.3646584  52.7810478
  26.8037453  43.2021599  51.9393082  21.0742168  10.2963762  66.2186737
  22.0030994  10.3309660  65.9901733  20.9663296  10.9740629  66.8860092
  78.0273972  70.8069305  47.8563728  77.6585312  71.5442200  47.3699875
  77.4090500  70.0908356  47.7111664  57.7354927  65.7221298   5.8305092
  56.9541702  65.9596176   6.3298793  58.4422760  66.2212067   6.2399111
  66.1307373   8.4399796  38.1564980  65.3388748   8.2833300  37.6420670
  66.0742111   7.8151536  38.8794289  55.8204727  25.2515030  29.9974709
  55.2739754  24.5720615  29.6025848  55.4150810  26.0742092  29.7235279
  36.6510887  28.0941772  69.0092773  37.0060844  27.2278118  68.8102341
  35.7459641  27.9274864  69.2723312  20.1221008  14.4691286  45.5375175
  20.9517899  14.7179623  45.1301765  19.7635803  13.7961035  44.9589577
  61.8787117  27.5035725  25.6754227  61.4206772  28.0786343  25.0624485
  61.2848434  27.4280167  26.4223118  65.3507996  57.9472427  49.1652451
  65.2945404  58.5935135  49.8690948  65.1203079  58.4341469  48.3740273
  54.9078217   1.7244527  16.2833328  54.9578667   0.8018484  16.5333900
  54.0767250   2.0270581  16.6493168  69.4093552  28.4551487  24.2205830
  68.7632065  28.9817104  24.6911755  69.0355606  27.5740719  24.2060356
  69.0298691  45.8699646  37.9477196  69.7777863  45.9105034  37.3517380
  69.3462982  45.3623009  38.6949692  49.1880035  20.1564369  21.9062500
  49.6898270  19.5721512  22.4745941  49.7871857  20.3667488  21.1900253
  76.2157669  22.7187614  55.5326881  76.5066605  22.0928879  56.1959343
  76.1289444  22.1983547  54.7340202   6.8263421  17.8554115  88.3700867
   7.6201816  18.1101685  88.8403549   6.6048207  18.6219139  87.8412781
  55.5421486  58.7979164  75.6985703  55.6975365  58.0099716  76.2193680
  56.0584602  59.4773254  76.1322327  55.2833176  10.4191694  50.8624687
  55.2989616  11.0919933  50.1818123  54.4466133  10.5493937  51.3087883
  26.8402309  64.0629578  45.7095871  26.1959076  64.7023621  46.0132904
  27.4459724  63.9658051  46.4443474  55.3578987  42.4789009  26.1223946
  56.2042389  42.4994164  26.5690708  54.8563385  41.8111534  26.5901375
  84.9893112  61.3386421  22.9046268  85.1824951  60.4564056  22.5874977
  84.4263077  61.7178192  22.2297363   0.5822678   1.3688670  17.5697346
   0.1942013   1.3322306  16.6954956   1.4973845   1.1220127  17.4361076
  31.9499931  65.5252533   5.3937864  31.4071198  66.3018951   5.5292206
  32.7360954  65.8554077   4.9587312  13.0994482  38.5374565  78.9911423
  13.6499023  39.2813873  78.7466049  12.3823948  38.5514641  78.3572083
  17.6485233  49.3485336  61.9822578  17.5891647  48.4790535  61.5863876
  16.9100857  49.8315392  61.6112518  85.8087540  69.5873108  73.3021317
  86.3988647  70.0751953  73.8765564  86.1881180  69.6866226  72.4289474
  36.2783356  37.3885002  62.7065353  36.3114548  36.9027824  63.5306778
  36.1486244  38.2994156  62.9704285  72.7563858  29.7304688  16.1218662
  72.7236404  30.6871090  16.1218758  72.9821396  29.4985523  15.2210455
  41.0796394  47.7377357  34.1886940  41.4126701  48.1819992  34.9684067
  41.2383041  48.3554649  33.4749260  54.6700287  48.1012383  51.6725693
  54.6428032  48.4119148  50.7676010  54.6845894  47.1470642  51.5978966
  33.3890495   5.1533189  73.4764557  32.5453262   5.4688816  73.8001556
  33.3376350   4.2013564  73.5622177  20.3162079  69.3495102  63.7042084
  20.2484264  68.5962372  63.1174965  20.1896610  70.1085968  63.1350021
  57.2905922  18.7726994  77.8684845  56.5291023  18.2024803  77.7625809
  56.9698868  19.6453400  77.6407242  85.1674957  63.6991539  79.3729172
  84.3606110  63.5936317  79.8769302  85.4798203  62.8055458  79.2309647
   3.3808784  40.2799988  57.0662994   3.9413621  40.7923889  57.6490059
   2.6930084  39.9365616  57.6364899  40.4705353  42.3662796   9.7774277
  40.6149445  41.8703613  10.5833073  41.1647758  42.0723152   9.1876402
  56.5823402  10.1243200  38.1238327  56.9031219  10.8080091  37.5357018
  55.7539825   9.8432932  37.7351494  60.2402039  15.9071054   0.5284840
  60.6284599  15.9182911  -0.3463675  59.5843620  15.2109251   0.4905811
  24.7381077  59.3446274  89.2871628  25.5037193  58.9903526  88.8348770
  24.0790195  58.6537895  89.2195129  76.0767670  50.6283073  37.0987740
  76.0382690  49.9040222  37.7234039  75.5058136  50.3557281  36.3804855
  40.6691208  40.6750183  66.6036682  40.2909203  41.4324226  67.0503616
  41.2983437  41.0499535  65.9874420  41.3924599  67.8887482  42.3699913
  40.6437111  67.6932220  42.9333496  41.5820770  68.8122559  42.5355835
  78.2245026  46.0047874  22.3369579  78.3908539  46.1977043  21.4142761
  79.0805588  46.0876884  22.7571011  26.0275650  45.8360939  86.4462891
  25.7593555  46.7242699  86.2108307  26.9031773  45.7428894  86.0709915
  46.5617561  67.3062744  10.5204830  46.4724007  66.6134491  11.1748819
  46.0010147  68.0125656  10.8413467  11.1253519  56.4059753  18.6511478
  10.7919521  56.2475471  19.5343113  11.9397106  55.9046974  18.6090622
  44.2274590  23.1440334  82.9683762  44.1086006  23.5087280  82.0913925
  44.3357124  23.9091358  83.5332947  61.9301834  62.6928711  13.2863874
  61.7987061  63.5107307  13.7660275  62.8628502  62.6887436  13.0710974
  16.0886822  62.0190697  44.7652245  15.3649464  62.6452522  44.7469406
  15.9640293  61.5326691  45.5801506  42.7747650   4.9715443  78.5884705
  42.4392548   4.6018715  79.4051743  43.6043472   5.3811336  78.8339539
  13.8185558  28.7212276  64.6548996  13.2784233  29.3098049  65.1822205
  13.2818861  28.5278702  63.8862457  58.8095589  55.9705887  18.4486160
  59.6239586  55.7249069  18.0097256  58.9555397  56.8713608  18.7376251
  63.4808846  47.5373421  30.8602581  64.4327545  47.6278839  30.9047394
  63.3397293  46.6461639  30.5407181  46.4171753  13.7404013  72.9286728
  46.3796692  13.8719978  73.8760452  45.6007271  13.2876978  72.7172394
  80.3568802  45.2590332  14.3666821  80.6108780  44.5149460  13.8207417
  80.2997971  45.9948692  13.7571573  66.6284485  54.5249977  58.8370819
  66.0952759  54.0878792  58.1730919  67.1326523  53.8193054  59.2420654
  63.0062752  18.6865273   1.7272233  63.5733261  17.9159298   1.6978667
  63.1052742  19.0897446   0.8647586  75.7500458  43.1031342  10.4939871
  76.0764160  42.4231224  11.0833073  74.8547745  42.8332443  10.2893343
  81.2795410  54.8641739   1.5576617  81.2242966  54.2810974   2.3147626
  81.6651688  55.6693001   1.9030515  49.0017166  41.7614136   1.8075759
  49.8716087  41.4172630   1.6049030  48.4024086  41.2070236   1.3078578
  17.7923775  22.2830620  13.7695951  18.4629879  22.8920059  14.0789528
  17.1307602  22.2837715  14.4613285  37.0678177  53.2353973  26.9963341
  36.7687416  53.9630356  26.4510536  38.0058327  53.1712990  26.8167629
  58.7835045  49.3880615  74.9631653  58.5682678  49.1124687  74.0721283
  59.3581047  48.6981888  75.2950363  -0.2489534  64.4987259  55.8346405
   0.5357450  65.0210953  56.0007935  -0.0587715  63.6482315  56.2305298
  21.0921707  68.0729294  30.5369987  20.3018227  68.2179413  30.0168514
  21.0697098  67.1404419  30.7519264  23.9152756   2.8606112  72.6813126
  24.3179626   2.0380411  72.4030151  22.9860439   2.7530968  72.4783325
  49.6454926  25.6094227  59.6916695  49.4097557  26.5019646  59.4386253
  50.5980530  25.6301727  59.7834663  13.9281216  43.8186340  65.3924789
  13.1623697  43.7312431  64.8248367  13.7137728  44.5488129  65.9730988
  85.2217407  31.4838123  85.4854965  84.6211853  32.2272530  85.4320450
  85.0992203  31.1400890  86.3704147  35.1806107   5.0815954  10.1011162
  34.7911186   5.9212985  10.3448906  36.1241989   5.2252269  10.1735268
  11.8545008  32.6270905  58.0967522  12.6004238  32.9093361  58.6260643
  11.1067305  32.6738472  58.6924744  34.3885307  21.5988979  18.8195438
  34.9170227  22.2459507  18.3523712  35.0261536  20.9772968  19.1706581
  75.4387741   7.6021571  79.1500397  75.4929199   8.5048265  79.4638672
  75.3652725   7.0758071  79.9461517  38.4724808  66.7169037  85.3226089
  38.9102821  66.0717010  85.8778305  39.1816521  67.2667084  84.9894104
   4.6724634  43.8111153  26.7294559   4.7896204  44.7022133  27.0587749
   4.7148600  43.9001312  25.7773476   0.3551439  29.0169525  25.3412933
   0.3099446  28.9582596  26.2956238   1.1002879  29.5933781  25.1718063
  66.6732330  29.5814838  25.3743343  66.0734177  28.8763199  25.6176281
  66.3819427  30.3326817  25.8911362  53.1251869  16.8161068  63.9108696
  52.4781647  17.4766235  64.1584854  53.7765503  17.2980919  63.4013100
  43.7013817   2.1702018  38.2414818  44.3319092   1.4735998  38.4242706
  43.3528366   2.4091928  39.1003380  65.6241379   3.2211859  14.4202070
  65.4392014   2.3361642  14.1059370  64.8141098   3.7058532  14.2615089
  46.6990891  57.1224327  45.7988281  47.3324699  57.7979279  45.5564079
  46.5722046  56.6144409  44.9975319  56.4234924  13.2040491  48.3834419
  56.3577309  12.2739220  48.1671791  56.0853577  13.2667389  49.2767334
  80.0459595  34.4136200   5.9201360  79.9730988  34.1057968   6.8235559
  79.7026520  33.6922493   5.3928833  55.9192772   2.8106470  13.9377108
  56.1941528   3.7241039  14.0169048  55.8871994   2.4911413  14.8394413
  10.5812454  45.7149925  26.5189896   9.8830881  45.0680923  26.6206341
  10.8041134  45.6826859  25.5886574  13.1232176  42.8122826  19.8088589
  13.8214903  43.4605293  19.7170563  13.5326700  41.9827499  19.5629921
  40.6938171  70.5201187  60.6871910  41.5655708  70.8389587  60.4534760
  40.3809013  71.1397476  61.3462639  11.8994408  47.9156456  42.1859055
  12.7126112  48.3407173  42.4584846  11.9265461  47.0555840  42.6051826
  44.7204628  29.1811543  75.5247955  44.0724335  29.4605179  74.8780823
  44.2926598  28.4690895  76.0003815  54.9032059  42.6738586  21.6778851
  53.9999924  42.9050064  21.8947048  54.9043884  42.5802155  20.7252769
  19.2408867  64.4270172  70.1011887  18.2936897  64.4848404  70.2265015
  19.5538979  65.3232040  70.2240906  62.3232040  26.4304161  82.5579529
  63.1589432  26.6840630  82.1662445  61.9868965  25.7443123  81.9814224
  45.9802361  28.7586346  19.7355709  45.3977280  28.9482174  20.4710827
  45.4787941  29.0134354  18.9610615  83.1121750  45.0302277  47.2317276
  83.0523834  44.1618195  47.6298828  83.0512924  44.8668938  46.2905350
  81.7333679  18.0760307  57.5091476  81.8435593  17.1874466  57.1707573
  82.4167938  18.5848827  57.0729904   8.4148026  25.4356937  26.0617809
   8.0065756  24.6689262  26.4638367   9.2703819  25.1242981  25.7664013
  38.9885254  45.6072617  46.2210770  38.7208138  46.3783913  45.7211609
  39.9093437  45.4811935  45.9920998  74.8064880  42.4277687  19.9514427
  74.9568939  41.4833488  19.9924583  75.6791687  42.8046227  19.8390293
  20.3012238  60.8840675  25.8673363  19.8892498  60.3950920  26.5796623
  19.6242962  61.4929695  25.5719681  29.8658581  57.2114563   5.1662393
  29.6339264  56.5467224   4.5177269  30.8060970  57.3450737   5.0465341
  74.3059998  11.8318996  17.2136631  74.7351608  11.0741482  17.6109886
  74.9700165  12.2073240  16.6354198  52.6730537  19.3770123  71.4413605
  52.5181656  19.5338173  70.5098877  52.6215324  18.4258900  71.5359421
   7.7765355  39.2913475  33.0810204   7.5615516  40.1891136  32.8279839
   8.3370905  38.9710312  32.3743286  28.6525421  41.9377785  80.1067505
  27.9282780  41.3224068  80.2207108  29.4035206  41.3859863  79.8881454
   9.3617296  53.7649765  20.5436211  10.2314558  53.4102211  20.3593426
   8.8127480  52.9932289  20.6824055   0.7776249   5.7908115  69.4275360
  -0.1092615   5.5879316  69.7250290   1.1409656   4.9454951  69.1636124
  71.4395676   9.3236666  22.2568130  71.6360931   8.6916618  22.9483204
  72.0318985   9.0889854  21.5424557  85.2291412  71.6935959  52.7171288
  84.5113754  71.9683151  52.1465416  85.7828522  71.1472397  52.1593399
  39.0898705  47.2348824  78.0336227  39.0222282  48.1261139  77.6910400
  40.0311623  47.0770836  78.1064529  56.6243134  61.2207413  13.1127281
  56.1800804  60.3747826  13.0557709  56.7857895  61.4682541  12.2022905
   0.1914346  65.8823624  18.9838276   0.3794612  65.2956924  19.7164211
  -0.1402195  65.3065338  18.2948723  41.3225288  21.3705730  85.6989822
  41.6993103  20.4978523  85.5866165  41.1682587  21.4454212  86.6406937
  33.2834778   7.2661657  66.4163589  33.7359657   6.9846954  65.6212082
  32.6892281   6.5444889  66.6219788  24.4999352  11.6936731  13.1630239
  23.8771324  12.3376780  12.8259678  24.1752892  10.8537855  12.8383322
  61.0174217  69.6664352  32.8731918  60.1136551  69.3903961  33.0256386
  61.3068428  70.0150528  33.7163582  83.9965668  59.5940971  37.5112419
  83.3537140  59.8122978  38.1860428  84.7905121  60.0574684  37.7780228
  30.3704185   2.6953316  86.7908554  30.0321560   3.5105984  87.1611938
  31.3116550   2.7268798  86.9620590  15.2024736  35.5301094  10.0612326
  14.8893051  35.1577301   9.2369204  16.1308346  35.7054138   9.9074650
  62.4125175  19.7845001  19.3112431  61.6059723  19.4334373  19.6887016
  62.1839638  20.6745605  19.0433140  30.5466042  31.8624554  84.4018478
  31.1888885  32.0607033  83.7203751  29.7255993  31.7334404  83.9269333
  46.7150230  65.1001740  36.6617508  47.0677757  65.4377594  37.4850578
  45.8066216  64.8764725  36.8642311  47.1694832  49.0664215  58.2263985
  47.0657272  49.0868187  57.2750587  46.3138580  49.3283157  58.5663223
   0.1317836  10.6118250  23.9011726   0.2856926  10.0390015  23.1498947
   0.9767933  11.0331802  24.0581760  68.8124466   6.7571507  82.8957748
  68.4171295   6.7554626  83.7675323  68.1863098   7.2326026  82.3497696
   0.5852236  70.8504410  64.8013916   1.2006259  70.8003616  65.5328369
   0.6057565  69.9767761  64.4108658  74.1387405   5.2022400  38.5805779
  74.2357788   5.0682273  39.5233688  73.3119049   5.6758828  38.4898338
  17.1923923  52.1748238  68.3351440  17.9525394  52.7525368  68.4033661
  17.2975330  51.7395439  67.4891510  19.5979042  44.6115189  23.4303722
  19.4771862  43.7845879  23.8971100  19.4241695  44.3968353  22.5138798
  24.3533268  28.3873005  71.1468124  23.4588699  28.7281513  71.1467056
  24.4279633  27.9108067  71.9736252  47.8322716  64.0105209   7.6832500
  47.6723633  63.4623184   8.4514513  46.9646225  64.3238144   7.4277763
  60.6465340  34.5587463   4.0124168  59.7904358  34.9521637   3.8434386
  61.1943550  34.8560791   3.2859774  25.5362625  46.8921089  71.1829300
  25.0229530  46.8546562  70.3758698  24.9229183  47.2171326  71.8420181
  23.7897873  56.5841446  47.3356667  24.7296047  56.4678154  47.1962280
  23.3807068  55.9324570  46.7662888  36.6196251  56.6580620  50.8484459
  36.7436066  57.6056023  50.7934227  35.7402763  56.5522461  51.2114563
  45.8633842  57.7904396   2.2238104  45.1794434  58.3529930   2.5871160
  45.3920708  57.1662712   1.6719861  66.4531097  24.8633461  21.7502346
  65.5923920  25.0552616  21.3779869  66.3958969  25.1684399  22.6557045
  36.9128342  41.6302071  57.4580231  37.7491531  41.2101021  57.6588173
  36.9091644  42.4241676  57.9926643   1.5166235  62.6584625  49.0073967
   1.7178282  61.9115829  49.5712395   1.9821560  62.4748344  48.1914368
  44.1957626  48.1989632  67.7184296  43.4163933  48.5787621  68.1240997
  44.7693024  48.9475327  67.5543289   1.5738399  59.7606850   3.7936468
   2.1582599  59.0056496   3.7257781   1.0216061  59.7069931   3.0136552
  44.7054214  71.5160217   0.8723814  45.0021172  70.6326981   0.6534190
  45.2123909  72.0885544   0.2966926  31.2219296   6.3626142  10.2955999
  32.1774521   6.3248281  10.2534552  31.0293140   7.2614412  10.5625105
  40.4021721  68.3304825  29.3582878  39.9052696  67.5123825  29.3633518
  40.8335686  68.3539810  30.2124405  41.7114258  46.3507004  63.7711487
  41.0728493  46.3710480  64.4839172  42.5004311  46.7428741  64.1451874
  35.8249512  58.8344727   3.1527252  36.1869240  59.5152168   2.5854561
  36.0560188  59.1132050   4.0388098  69.7226334  29.2503815  78.1164322
  69.7892456  30.1700840  78.3732224  70.2675171  28.7845402  78.7507248
  13.4194775  26.3186989   7.4236684  13.5948391  27.2454052   7.2602806
  12.4957161  26.2900391   7.6728187   9.0125885  19.9770164  83.1408234
   9.5615540  20.7535763  83.0320816   9.5894318  19.2439461  82.9261322
  27.3123474  65.8165741  62.4130898  26.8710823  65.4632874  61.6406212
  27.3663139  65.0763702  63.0175858  54.2926979  17.6055775  83.7064972
  54.6084213  16.7362976  83.9532852  53.5921516  17.7923050  84.3314819
  53.5356255  47.8226738   5.0356021  53.2506790  47.2573891   5.7535796
  54.2254105  48.3654900   5.4174170  61.4188843  61.4793396  79.5366745
  60.9747887  61.2350235  80.3486633  61.2428093  62.4151840  79.4396133
  83.9385986  24.1241169  54.3610229  84.6917725  24.3358765  54.9124908
  83.4475021  24.9435654  54.3013573  71.8172379  40.2632751  48.9836998
  72.6965790  40.2664604  48.6055679  71.9610062  40.1511536  49.9233780
  68.9109573  31.0369034  70.7263794  68.0093460  30.9081535  70.4318314
  69.1380310  31.9166279  70.4251251   2.4397976  59.4019432  48.8671455
   3.1483605  59.8573799  48.4124527   2.8434479  59.0720329  49.6699257
  27.4956112  53.2460060  54.5903206  28.4102097  53.1846619  54.8659630
  27.5085258  53.0090561  53.6630020  74.6335449  34.8072433  15.9218998
  74.7949524  35.1576843  16.7978973  75.4679031  34.9118919  15.4645901
  71.5383301  33.5516434  18.5028210  71.0034714  34.1325760  17.9618263
  70.9886475  32.7804565  18.6419239  15.4042311  14.4649763   6.2493062
  15.5035028  13.6302443   5.7914858  14.4605560  14.5544043   6.3823957
  45.1225204  12.7146387  53.6834869  45.1582031  12.5239611  54.6208229
  44.2491074  12.4301891  53.4142799  85.1174088  20.8132133  71.4334183
  84.9446411  21.0603695  70.5249557  84.3730850  20.2631798  71.6776962
  19.7021885  56.0022011  72.3031464  20.1858177  55.2085457  72.0741348
  19.0539989  55.7110214  72.9444733  31.9516468  31.4813614  86.8299026
  32.0864944  31.6200848  85.8924561  32.5510025  30.7699127  87.0553894
  65.3535156   3.8884714  46.4906693  66.0633087   4.5170689  46.6221695
  64.6563416   4.1890225  47.0736351  50.5608902  23.1287899  88.2713928
  50.5516891  22.2955074  88.7423401  50.5720215  23.7931843  88.9603729
   1.1313089  25.1572876  31.9181023   1.0012767  25.6551800  32.7252121
   1.1612110  24.2437706  32.2024002  36.1621857  30.6257420  76.7010498
  36.6900330  29.9764328  76.2362823  35.8031731  31.1818752  76.0096359
  35.6335907  39.8194885  50.7685356  35.6519508  38.9922943  50.2872353
  36.0690918  39.6236191  51.5981178   9.7935686  69.4047394   4.1488657
  10.4882154  68.7648010   4.3043756   8.9980640  68.9762421   4.4647751
  48.4274940  39.4342880  25.5297375  48.2863503  38.4900208  25.5980377
  47.7015953  39.7465134  24.9895382  11.0128059  58.4500656  21.1593571
  10.3738594  57.9503479  21.6675529  10.7592907  58.3058434  20.2476749
  47.8844643   0.3590534  59.9695053  47.5785446   0.3346018  59.0628395
  47.1139221   0.6170722  60.4753952  42.3497162  55.9333458  87.2024231
  41.5246239  56.3936043  87.3561020  42.5282135  56.0660782  86.2714233
  13.5476589  19.2177200   6.6436338  14.3016272  18.6879826   6.9027495
  13.5833578  19.2334957   5.6872296   7.7725229  11.4041872  17.0090141
   7.7109432  11.8238668  17.8670998   8.4157963  11.9282160  16.5317039
  27.8923397   8.2629251  28.9555321  27.4429302   9.0586596  28.6708050
  27.6193581   8.1462536  29.8655319  68.0513382  50.6110497  46.5716743
  67.6717453  50.4594345  47.4372139  68.7075195  49.9210739  46.4737129
  46.7313232  16.8789368   9.3656559  47.1352081  17.7043762   9.0977726
  47.4473724  16.3773117   9.7553730  81.9909210  67.9828339  30.8362389
  81.7723236  68.7111359  31.4176350  81.8005676  67.1992264  31.3519459
  38.5066872  54.3906288  51.0483971  38.0465622  55.2299805  51.0502205
  37.8470154  53.7552605  51.3265648  11.7801533   0.8291527  28.9531517
  12.6268349   0.5727906  29.3187218  11.7065382   0.3248832  28.1428909
  33.2412682  44.2472420  57.5380478  33.0736580  45.1860924  57.4562073
  33.7405090  44.1629906  58.3503876   3.8627932  10.5402365  87.3232422
   3.9478948   9.8981943  88.0280609   2.9300020  10.7542934  87.3055878
  76.1711426   2.4857700  20.9274654  76.1674271   3.0503163  21.7004490
  76.8116302   1.8043561  21.1316204  14.7497215  13.7415028  89.1608124
  15.2514286  13.8663464  88.3552475  14.3383179  14.5908422  89.3208160
  13.0142498  31.9172344  65.5681381  13.9559965  31.9760437  65.4072418
  12.6759930  32.7800217  65.3285141   0.2214965   5.4816999   3.6010230
   1.0953698   5.1183186   3.4577358  -0.1740776   5.5048966   2.7296937
  16.4046040   4.2460494  20.6258373  15.5452671   4.0653696  20.2448826
  16.2842674   5.0615935  21.1122932  13.2471313  62.8424644  42.4272079
  12.4168806  63.3122482  42.3483505  13.5892754  63.1026840  43.2824593
  43.6682396  34.9218292  63.6234093  42.8834953  34.3976631  63.7835960
  44.3932495  34.3055840  63.7274933  71.8333130  63.2815895  83.3884506
  72.7862167  63.3550186  83.3353806  71.5310516  64.1796570  83.5238724
  21.7692585   8.7596579  23.2619228  20.8985538   8.9310799  23.6206970
  21.9261608   9.4848576  22.6571922  46.6610489  64.9470673  52.5650787
  47.3500290  65.2776413  53.1414948  46.7242317  63.9947433  52.6379852
  32.8268967  45.8896294  29.6548557  33.6812820  45.8139076  29.2299690
  32.9621735  45.5282822  30.5308495  78.7733383  32.9924011  48.4362221
  79.2136917  32.1425285  48.4308090  77.9004211  32.8076553  48.7828140
  53.8035316   5.0923791  24.3362007  53.9803658   5.0240569  23.3979607
  54.4514351   4.5181308  24.7444820   6.8133287  42.1049347  27.7708836
   6.4017081  42.0543671  28.6335793   6.1350336  42.4703979  27.2029190
  71.9845276  62.2546387  44.7947731  72.4090881  62.4760857  45.6235924
  71.3870010  61.5400543  45.0151634  59.8191261  16.8865299  83.4017258
  60.5543213  17.4583378  83.6225357  59.0433197  17.3810329  83.6659698
  38.0723572  40.0218468  32.3969574  37.8507805  40.5833855  31.6541157
  37.8394585  39.1395035  32.1080627  57.9589691  64.7879257  26.6976299
  57.7267265  65.5150299  26.1200390  57.7337456  64.0034332  26.1975498
  32.7176590  45.2623405  85.2316208  33.1049118  45.3400841  84.3597107
  32.2061501  44.4540901  85.1953125  79.1063156  58.5662155  76.0573349
  79.6575165  58.5777016  76.8398132  78.4633560  57.8777924  76.2273636
  19.8311882  13.2460661  63.6984291  20.1895008  13.3824663  64.5754929
  18.8896446  13.1441879  63.8375320  84.8235092   4.1650596  51.9105949
  84.6615372   3.8299861  52.7924805  85.1686020   3.4135852  51.4284859
  37.4838715  32.2423096   6.9672055  37.4943504  31.4931316   6.3715105
  37.6841545  31.8687267   7.8254323  10.5036697   3.4927888  16.2616653
  10.6458693   2.6745734  15.7857094  11.0531549   4.1321707  15.8083582
   0.8727624  59.0278931  17.5053215   1.5666935  59.6861115  17.4673386
   0.2943108  59.2472763  16.7749138  59.5711823   4.4413810  20.6570358
  60.4602966   4.0986891  20.7479858  59.0497818   3.9194767  21.2669468
  51.4232140  35.7577057  57.0226288  51.4274063  35.8293114  57.9771347
  50.5994720  35.3146057  56.8192978  10.4373207  37.7925987  52.7782173
  10.9098406  37.5835876  51.9724426  10.4665356  36.9839897  53.2896156
  86.6027069  16.0778542  21.5428143  86.4813843  15.8262730  22.4583569
  86.6353912  17.0343494  21.5595703  44.1764526  64.8965836  30.5901642
  44.3891945  64.3084641  31.3147926  43.6516609  64.3621902  29.9941330
  26.3439198  39.7544861  80.2775269  25.8755455  40.1805687  80.9953766
  26.9541168  39.1575470  80.7106018  20.8374290  49.4652557  41.2289009
  21.7542076  49.7234993  41.3240662  20.8689556  48.6501160  40.7281189
  73.8175354  11.5315456  50.9688797  73.8108368  10.6793137  51.4046402
  73.5977325  11.3364868  50.0579071   7.6004825  26.3270721  46.7453461
   8.2328749  25.9724636  47.3702965   6.9526973  25.6304798  46.6387405
  50.1082268  47.9273453  41.2143440  49.5184784  48.6217384  41.5080261
  49.5822449  47.4074936  40.6066246  64.0517883   3.9472797  25.8393803
  63.6913338   3.5135922  25.0659351  64.9418716   3.6031451  25.9139462
  14.1528568  32.2316093  60.1742630  14.1980467  31.7377815  59.3555298
  14.2212248  31.5664902  60.8592262   2.7234242  58.8057785  11.5870523
   3.3658042  59.0448189  12.2552137   2.6750493  57.8508644  11.6320686
  29.6429081  39.8740387   4.9628077  29.8901310  39.2010384   4.3286295
  30.0918636  39.6198616   5.7690725   2.2078087  44.9169655  71.3867950
   2.5507617  44.1982574  71.9179001   2.8582907  45.6133118  71.4774017
  13.4838943  54.9196167  15.4370718  13.6381445  54.5702858  14.5593433
  12.7872772  55.5653572  15.3188467  61.2019424   4.8458428  40.5723267
  60.9956017   4.5384998  41.4550438  60.3548775   4.8851538  40.1282883
  77.2392807  64.7529984  71.1837769  77.2262192  63.8111534  71.0135117
  76.9806671  65.1503220  70.3522186  76.8640366   3.8731022  57.4199181
  77.1394958   4.1644650  56.5507469  76.4680862   3.0145574  57.2704010
  20.5225410  13.6597815   4.7710266  20.2796268  12.9772835   5.3966627
  20.5821743  13.2045450   3.9311249  83.6859589  53.0111961  68.1005783
  83.1891632  52.1930885  68.0893173  84.1028366  53.0264244  68.9621048
  71.4478760  42.8634338  88.4573669  70.5435333  42.5604362  88.3762665
  71.8488998  42.6485443  87.6152039  51.0079880  37.1281395  60.3428917
  50.1687241  37.5197334  60.1009750  50.7736473  36.3781433  60.8895378
  50.9064484  36.4496155  28.2126904  51.1538467  35.5268784  28.1528702
  49.9645958  36.4345245  28.3827457  49.6032486   6.3015456  28.4898758
  50.3252373   5.6922350  28.6438370  48.9329834   6.0434771  29.1226311
  54.2520790  34.6021194  76.6162262  54.8336220  35.2241364  76.1790314
  53.4100685  35.0547867  76.6646271  72.9335327  34.2662926  61.1870003
  73.2469864  35.1520042  61.0039864  72.7816544  34.2564659  62.1320229
   5.5241771   2.8734517   7.4567585   5.3555164   2.9542136   8.3955145
   4.7720895   2.3869338   7.1192737  81.8944855   4.4940567  29.0947075
  82.7467194   4.1099491  29.3006172  81.2809906   3.7617400  29.1544037
   3.6469183  33.1050797  19.4075603   3.7297013  34.0538063  19.5039902
   3.6570046  32.7713661  20.3046474  76.3935089   3.7940390  23.5558834
  75.9378891   3.9469330  24.3836880  77.3091202   3.9993119  23.7449684
  55.5191269  27.2962608  20.0660648  56.2935219  27.7574177  20.3883705
  54.8461266  27.4691257  20.7244129   4.3848224  37.1004333  61.4118690
   4.3207288  36.4689674  60.6953659   4.2651501  36.5767212  62.2041016
  62.8968506  34.9604301  88.2700958  63.5555267  34.2680550  88.3247681
  62.5691338  34.9088860  87.3722229  36.3922081  49.7259064  20.7265911
  36.5104256  50.2311020  21.5309753  36.1180382  50.3722267  20.0759506
  47.9985809   3.1838415  11.1066370  47.1761856   3.0792584  10.6281443
  48.4079361   2.3193164  11.0711603  54.9639664  69.9450836  86.0018539
  55.5435066  70.4219894  85.4077759  55.1555252  70.3085327  86.8664017
  43.6628227  66.5277863  28.5747719  44.0137177  66.0020142  29.2935677
  42.7485466  66.2539062  28.5018120  63.5880661  52.9959183  85.3370895
  64.1159210  52.4851646  85.9508820  64.2133331  53.3008842  84.6796188
  72.8617859   4.3074389  28.5053139  73.3232422   3.9395916  27.7516727
  73.1683426   5.2128429  28.5553036  65.9156418   2.4414692  86.7733841
  66.4237289   3.0772085  86.2694931  66.5081940   1.6986177  86.8886337
  40.3666611  29.8769093  25.6193981  40.9559860  30.2068710  24.9411259
  39.5131187  29.8229237  25.1895332   0.0125552   6.0165997  59.0115623
   0.0722836   6.9036069  58.6567650   0.5304653   5.4823899  58.4093819
  55.5297050  11.2768888  68.0834961  54.6500359  11.2222786  68.4569016
  55.7289810  12.2130852  68.0759048  66.1176910  50.3357697  36.6494827
  66.0284805  50.5638161  35.7241325  66.9314423  49.8338165  36.6950836
  83.8593826  48.4854774   6.9687343  83.0765076  48.2226639   7.4527440
  84.0776367  47.7223625   6.4337101  12.9749508  37.7969551  18.6312485
  12.7023916  36.8839531  18.5397720  13.9052610  37.7482986  18.8512154
  13.9154253  43.8563728  74.0314865  13.6660881  44.1791344  73.1655273
  14.6981554  43.3283730  73.8740692  69.4201889  36.9891434  26.0256348
  69.3395004  37.4491920  25.1901264  70.1782379  36.4159851  25.9112301
  13.5025625  58.2776909  38.2167664  13.6855927  57.8864250  39.0709572
  13.8684006  57.6576271  37.5859604   5.0721593  23.2776585  66.6151810
   5.0495768  24.2123413  66.4100189   4.4331617  23.1716251  67.3199234
  40.7728539  30.6077995  11.0907965  40.1656647  30.1051331  10.5477667
  41.6355171  30.4230232  10.7194424  75.4604721  22.0214558  76.7505569
  76.0425415  22.7586269  76.5661697  75.2373352  21.6709557  75.8882370
  64.8031464  40.9057159  54.0377502  65.1607208  41.5402451  53.4166679
  63.8771477  40.8383369  53.8049164  42.9946938  64.6103973  45.5301857
  42.0918083  64.2965775  45.5805855  42.9327545  65.4443665  45.0644608
  62.8135490  35.2468681  24.4196148  63.7004013  34.9095573  24.2933273
  62.7463379  35.3967743  25.3626118  69.8140488  39.0251923  68.3801193
  69.6335678  38.6476364  69.2409973  69.7796173  39.9712677  68.5215149
  30.8251534  58.6998749   8.3366013  30.2438927  59.0336380   7.6532497
  31.6697788  58.5897903   7.8998876  68.5109100   6.0933509  58.7207451
  68.3715591   5.5302000  59.4821053  67.6762695   6.0739889  58.2525330
  78.5087891  38.9878464  71.5753326  79.2808990  38.9853859  71.0095825
  78.7590332  39.5351257  72.3197098  34.7996254  56.1942406  69.0986404
  34.8399239  56.1864014  70.0549545  35.6224594  55.7916870  68.8209305
  79.9426956  61.2648773  44.6891098  79.8036957  60.4510994  45.1735458
  79.5233231  61.1139603  43.8420067  47.2824821  39.9654427  17.1252041
  47.8787689  39.9504204  16.3765736  46.6208458  40.6164398  16.8913841
  15.4642620  56.3784828  62.3778954  15.9083853  55.5369492  62.4818420
  16.0136738  56.8649559  61.7633057  52.3345032  42.6102486  36.3918953
  52.3355713  41.7699661  35.9334641  52.8501968  43.1897087  35.8310738
  29.9571133  39.8998032  70.1963806  30.5189438  39.2422142  69.7863159
  29.6886406  40.4688759  69.4750519  36.9605370  66.1631851  48.7576256
  36.4765129  66.9384613  49.0420532  36.7230110  65.4865646  49.3916588
  51.3165016  64.9973679  47.5168686  51.7192688  64.5807495  46.7550049
  50.3831482  65.0292206  47.3069420   9.5895481  18.7665062  87.8774033
  10.0687571  18.1176758  88.3927765  10.2718801  19.2894897  87.4565201
  79.6876602  15.5562305  82.3756409  80.2111816  15.9787140  83.0565720
  79.1566620  14.9135294  82.8459702   1.9184104  44.6446991  25.5703106
   1.8384360  45.0409622  26.4379597   2.2265058  43.7546539  25.7409687
   0.7157981  58.9437027  38.6832619   0.4002471  59.6352234  39.2650337
   1.5323814  59.2886391  38.3220940  13.1523924  58.3510094   4.2967701
  13.6893063  58.5863419   3.5400846  13.3032417  59.0562668   4.9261260
   5.1360974  56.0445976   3.4170463   5.9947934  56.0768318   3.8387501
   5.2353625  55.3951607   2.7209058  68.2475052  54.0589447  88.9467316
  68.3222809  54.3581161  89.8528976  68.2876129  54.8608894  88.4256592
  12.9693575  47.1683884  30.1274548  13.0726213  46.2904701  29.7602673
  13.2142801  47.7569733  29.4134426  76.2913055  11.5078564  43.8850708
  75.9597244  11.3191500  43.0071907  76.6235886  10.6677294  44.2013092
   2.7733107  36.1913910  44.4370232   3.4217196  36.6804199  44.9436302
   2.5790861  35.4234352  44.9743805  47.0894508  44.0704498  11.3506231
  47.3942299  43.2095490  11.6373110  46.7767296  44.4925117  12.1508112
  55.6770210  15.9833183  16.7210674  55.3865929  15.4079561  16.0133667
  56.4386253  15.5390549  17.0936546  69.3807526  65.8848267  22.5046558
  69.5953674  65.5569458  23.3779621  69.3745728  65.1042938  21.9506054
  67.9895248  60.0329132  48.0457382  67.9811859  59.1215439  48.3382568
  67.9770737  60.5442696  48.8548050  80.5158920  54.6239510  55.4422264
  80.2333145  54.2207108  54.6213837  80.3439026  55.5578575  55.3219490
  68.2330627  27.4888210  28.1283741  69.0105591  27.3790588  28.6758080
  68.1814423  28.4317417  27.9719620  80.5003967  21.7637596  80.0798721
  80.6259232  22.7031593  80.2140579  81.3734512  21.3872471  80.1905289
  47.7843475  46.1865654  78.3344345  47.5660896  46.3478508  77.4165115
  48.4343147  46.8562317  78.5473175  44.5282974   3.6442666  83.2191772
  43.7578201   3.2356100  83.6136398  44.2194977   4.4999061  82.9212570
  78.2990875  15.1796646  64.9255829  77.3542480  15.2085466  65.0761642
  78.5230560  14.2510347  64.9865265   1.6246501  16.9566803  41.9006958
   2.3367829  16.8732471  42.5348396   1.1960478  16.1008301  41.9078789
  72.7054825  33.9428673  50.8915443  72.2473297  34.7399559  50.6251183
  73.0568924  33.5847549  50.0763779  47.2908363   1.6435755  45.9612274
  47.4494095   0.8906464  46.5305977  46.7587700   2.2369249  46.4913902
  82.4314728   7.6895533  28.1458397  82.9835892   8.4614840  28.0212402
  82.0373154   7.8138361  29.0092201  81.8283844  16.2183285  84.4079285
  82.7835617  16.1928940  84.3511810  81.5680161  15.2998180  84.4770737
  32.5024490  44.8586502  72.4201736  31.8961658  45.1266632  71.7296524
  32.8664742  44.0292435  72.1106491  39.3195343  10.7001476   6.1668577
  39.8976784  10.9888268   6.8730087  38.4683456  11.0806084   6.3835492
  78.3718338  33.9152985  84.5808258  79.1263275  33.3369560  84.4690323
  78.5764389  34.6820793  84.0456467  23.5046978  31.8356323  62.8983002
  22.5995922  31.8717251  63.2076797  23.8342896  30.9962997  63.2194290
   6.8265905  35.6708336  54.4474907   6.5406814  35.3458977  53.5937309
   6.3987527  36.5226021  54.5351181  80.1271515   4.1713815  11.7059870
  80.0825195   4.3910685  12.6365662  79.2262421   3.9522269  11.4681540
   3.3028872  58.6544342   0.3973460   2.4345174  58.4475479   0.0518555
   3.1894121  59.4935913   0.8436353  76.4094772  59.6047401  70.3381348
  76.5398331  60.5441856  70.4672928  75.7724228  59.5469894  69.6260605
  80.1114120  46.7033501   4.0086727  79.4270706  46.0341797   3.9977407
  80.9052811  46.2384071   3.7444043  69.8819504  12.3066797  71.7377930
  69.1752777  11.7064791  71.9757004  70.1411591  12.0345278  70.8574677
  81.0528717  14.2904167  52.7020226  81.5921478  14.7928848  52.0913391
  80.6132126  14.9532423  53.2345581  27.6716309  56.5865707  26.4509125
  26.7757950  56.3132553  26.2534027  27.7660103  56.4363136  27.3915215
  61.6151466  69.4755096  39.6385689  61.1695786  69.9675293  38.9489212
  61.5972176  68.5678864  39.3350449  18.7690048  66.1718063  86.8767548
  19.6317616  66.5031738  87.1259079  18.7661629  66.2065887  85.9201889
  20.6954689  40.0558586  82.8664780  19.8991833  40.3507423  83.3082962
  21.3686543  40.0771790  83.5466232  25.5411606  21.6180534   6.3845224
  25.7546844  21.2118435   7.2245426  26.3673630  21.9974442   6.0850506
  41.8907623   1.1375446  48.2563095  42.1960144   1.9365634  47.8266335
  42.6914749   0.6540955  48.4597092  84.2219696  67.8046570  74.1138763
  84.5848541  67.2382889  73.4328766  84.8331909  68.5395203  74.1650696
  72.0679321   5.5733180   8.8677177  71.4642639   4.9811664   8.4191866
  72.3529892   6.1844459   8.1883850  67.9707336  23.9262772  13.3706713
  67.7201538  24.2219753  14.2458878  67.1403809  23.8235397  12.9057035
  52.7386856  59.1217155  30.6264000  53.3286095  59.1779442  31.3781071
  52.0754700  58.4836769  30.8896141  86.5520401  11.2156096  73.6623459
  86.1012573  12.0098333  73.3755875  85.8472977  10.6049366  73.8783340
  64.5550156  54.1520729  12.0863667  65.0339203  54.5891113  11.3821783
  64.0019913  53.5118980  11.6385212  37.0799675  30.1525269  72.7252960
  36.7449341  31.0465698  72.7936630  36.2956734  29.6052971  72.6846390
   7.7164726  31.9328766  25.6389694   7.4708142  32.0654640  24.7233810
   8.4984236  31.3821945  25.5998192  29.8864708  46.5153046  32.5274429
  30.6065388  45.9028053  32.6777000  29.2660789  46.0274086  31.9858704
  37.4306297   3.6740451  23.8947964  36.6714478   4.0540547  23.4526806
  37.0824966   2.9100006  24.3544369  59.9369240  51.0723343   9.0299358
  60.6805687  51.5811920   8.7069960  59.6549988  50.5550194   8.2755251
  54.9316635   8.4329090   6.4227915  55.6921501   7.8834581   6.6125269
  55.2991257   9.2196913   6.0200763  21.4771786  37.8666649  78.1454468
  20.8289604  37.4448853  77.5814056  21.0396290  37.9495888  78.9927444
  71.0988541  48.5922012  74.0180130  71.4569473  48.3534508  74.8729935
  70.4639053  49.2826691  74.2086105  55.2051430   2.5976231   7.3069272
  54.4676170   1.9874713   7.3084130  55.9749031   2.0426083   7.1817894
  23.1337490  36.6217308   9.9596844  23.9203568  36.0788345  10.0121040
  22.4490757  36.0231590   9.6610756   4.5411816  66.3761444  82.5280685
   4.1707711  65.5116959  82.7062759   5.4868231  66.2304459  82.5003891
  64.5922623  44.3721657  49.5170975  65.3103104  44.3915100  48.8844337
  64.4256821  45.2929764  49.7185707  60.8268700  28.2744884  78.3880539
  61.6894379  27.8767757  78.2695999  60.5727692  28.0344353  79.2791443
  66.9898376   5.5058775   4.0710545  66.4968414   5.2385187   4.8467526
  66.5158920   5.1120973   3.3385618   0.3538438  19.3983326  80.8149796
   0.6356540  18.5356979  81.1194077   0.6722185  19.4500656  79.9137573
  46.6419792  48.8637466   3.7886701  47.3337898  48.4241257   4.2829971
  45.8596420  48.3366508   3.9510057  47.0608521  60.5841370  40.8137398
  47.3710442  60.1108437  41.5857544  46.6706352  61.3847618  41.1643944
  34.1927071  29.1827831   8.4191837  34.2160721  29.9482517   7.8449502
  33.3972511  28.7157593   8.1635103  20.8824768  14.7444324  87.5802917
  21.1653709  15.5136909  87.0858841  20.7584343  14.0656462  86.9169006
  57.7461014  25.9896965  26.5094185  57.2026825  26.6493111  26.0783367
  58.5621262  26.4470291  26.7123489  30.9279175  31.2877483  73.0014877
  30.0784817  31.6361294  72.7307053  30.8356743  31.1358204  73.9420395
  28.0009441  67.6940384   5.5915198  27.7036285  67.5212479   6.4848175
  28.9153290  67.9592361   5.6905046  47.2422485   7.0126233  42.8414116
  46.4379120   6.9885445  43.3597679  47.6949081   6.1990457  43.0637245
  25.1967068  -0.1550342  79.3618088  25.3555527   0.3269820  80.1733932
  25.2593689   0.5073460  78.6736526  37.7748528  45.0118561  77.0399246
  37.8079147  45.0791893  76.0856705  38.2817993  45.7619743  77.3506699
  55.5756302  48.6886444  40.7073975  55.1133041  49.4507065  40.3584709
  54.8812828  48.1147499  41.0310631  71.8830414  18.3447075  48.4355698
  70.9896393  18.4471664  48.7635574  72.3794708  19.0366306  48.8726425
  67.9091110  10.4005737  40.7774124  68.2106705  10.1630888  41.6542778
  67.0243912  10.0393476  40.7223892  48.4697304  11.0176706  77.4484482
  48.2638397  10.4546690  76.7022095  48.8303337  11.8128815  77.0562210
  71.1345520  42.9265976  10.4205484  70.3755646  43.4685631  10.6360617
  70.8011627  42.2868919   9.7913733  74.5976105  32.6840706  47.5159302
  74.9562759  33.5254898  47.2337952  74.0127716  32.4224434  46.8047714
  32.0487556  62.4112625  34.5793915  31.1044426  62.5672798  34.5920448
  32.3508377  62.8353500  33.7761917  64.4938583  42.1607552  24.7620564
  64.2419586  41.2862396  25.0587082  63.9093361  42.3415794  24.0259399
  42.8086853  15.5381021  72.8209839  43.3378143  16.0077686  73.4657059
  42.8113976  14.6302938  73.1244812  62.4075279  62.2317047   9.0999184
  61.4604950  62.1372070   9.2020473  62.5780296  63.1542702   9.2897491
  27.3714123  60.9378090  58.0678596  27.6453037  60.2359314  58.6582680
  28.1470795  61.4914055  57.9778328  67.4409332  49.2357178  40.1690025
  68.2464676  48.7563705  39.9751778  67.2344818  49.6959877  39.3555183
  71.0655136  62.8581505  19.1178608  70.1222000  62.9943695  19.2064056
  71.4177094  63.0489311  19.9872246  21.9944382  65.7969894  14.3059034
  22.0879097  65.7187958  13.3564930  22.8872166  65.9304657  14.6242828
  41.0939941  56.7771988  29.0518780  41.2783470  55.9611969  29.5170536
  41.9087143  57.2761230  29.1113529  27.2958794  55.2502403  79.5009766
  26.5913029  55.0284309  78.8922043  26.9471283  55.9777031  80.0161514
  75.1557999  43.7076340  53.6159172  76.0826569  43.6082497  53.3984680
  74.9407349  44.6003113  53.3455467  55.5782356  49.3645325  36.9654198
  55.5578690  48.4670792  37.2976761  55.1406097  49.8805809  37.6424789
  32.4099007  66.7066727  43.2567368  31.6035404  66.3296661  43.6087036
  32.2801399  66.7069397  42.3083725  15.8711557  35.1820869  85.9057922
  16.0701637  34.3667870  85.4454498  14.9178648  35.2559395  85.8609009
  48.6973839   3.3447537  -0.1883768  48.3076897   4.1256728   0.2047351
  49.5325737   3.2386785   0.2670735   1.6900990  20.2909756  84.2392044
   0.9939052  19.8079338  84.6844177   1.8460447  19.7982407  83.4335251
  22.6332741  68.1850204  12.2661161  22.3484383  68.5239639  11.4174604
  22.2022476  67.3336334  12.3408937  73.9667435  13.2804604  82.0237656
  73.0114746  13.2701216  82.0836182  74.1928177  14.2085171  81.9618378
  55.9674835  67.9200134  52.2498550  55.5613861  67.2641144  51.6831856
  55.5488052  68.7439651  52.0007668  82.7749329  19.6387196  33.2228165
  82.7119827  18.7154598  33.4674721  82.6703644  19.6420345  32.2713509
  85.4715118  37.4397392  36.4338799  84.5448532  37.6729088  36.4900589
  85.8455505  38.0870285  35.8360901   3.0563354  49.3712273  65.2029266
   2.6366539  49.7675552  65.9664841   2.4802191  49.5924034  64.4712143
   7.6036158  39.4550209  73.2137070   7.5881705  38.5341682  72.9528961
   8.3852282  39.5360718  73.7602844  63.1290283  48.2301292  68.6891556
  63.4420547  47.8170624  67.8844070  62.2848663  47.8124962  68.8600540
  78.4001389  24.8097229  79.8380585  79.1537247  24.5013237  80.3412781
  78.4885483  25.7628231  79.8341827  63.9464111  60.3078384  11.9477320
  64.1680222  61.1147041  11.4828777  62.9894333  60.2871857  11.9488478
  49.5473557  57.1597214  63.5437698  49.7615776  56.2714386  63.2586365
  50.3785439  57.5184784  63.8546524  71.9982605  66.1038666  44.7073174
  71.0485535  66.2179718  44.7429314  72.1298981  65.3822861  44.0923195
  12.2270613   2.9876611   3.7201619  11.4500704   2.8784595   4.2684250
  12.2955494   2.1652222   3.2352540   6.6141005  59.4153671  24.7194901
   7.3066010  60.0704956  24.6329918   5.8011909  59.9132538  24.6327820
  62.6839218   6.1152015  20.2306805  63.5080070   6.1895118  19.7494411
  62.1322556   6.8090820  19.8695354  36.2732201  26.7358322  65.4381104
  35.6715469  27.4288254  65.1661148  35.9239464  26.4303532  66.2753220
  83.5882339  53.2652168  55.5365219  82.7083130  53.6194725  55.6648750
  84.1636887  53.8849525  55.9848633  52.3680992  47.6917953  22.2388611
  51.4897499  47.3982925  22.4809265  52.3443298  48.6413918  22.3568993
   1.6555570   0.0099261  35.6724243   0.9089833  -0.0978327  35.0831451
   1.7959583   0.9560034  35.7105942  33.3220215  68.8231430  10.9188547
  32.4291229  68.9575500  10.6012020  33.3500786  69.2846298  11.7569914
  58.1428337  70.3484802  46.6204262  58.5424042  71.1542816  46.2929306
  58.5066795  69.6582184  46.0659981  85.1732254   7.9583349  45.7813988
  85.3779907   7.9549928  44.8463631  85.1875916   8.8835297  46.0264282
  70.5197449  58.4747505  52.8158340  70.7981339  57.8967400  53.5262108
  69.7661362  58.0306778  52.4271126  41.3392258  57.6969414  15.3508368
  41.4277458  58.4180565  15.9740467  40.9800034  58.1042976  14.5626402
  74.9510117  66.8682251  79.0553818  74.6224518  67.0214081  79.9412766
  75.8983231  66.7826920  79.1627197  58.2987175  10.9060793  23.2062798
  58.6879883  11.3154459  23.9790154  57.3546638  10.9824829  23.3446903
  42.7334518  58.4770470   5.1478620  42.2329216  57.7907753   4.7065783
  42.8909035  58.1313324   6.0264521  18.8917770   1.1522564  65.7923431
  18.4273815   1.6875236  65.1488724  18.4843197   0.2887768  65.7244186
  71.4410400  34.6427040  66.7668991  71.0466461  33.9292183  67.2685318
  71.6309891  35.3173676  67.4188080  86.1385651  22.0603123  19.1979065
  85.1998215  21.9288349  19.0648537  86.2914276  22.9702778  18.9432907
  12.2002306  11.1017981  25.9556122  11.5361242  10.5630999  25.5254993
  11.7272892  11.8843498  26.2387581  57.9752579  37.0870972  18.5344505
  58.2108078  37.8756027  19.0233364  58.5145569  37.1249924  17.7445450
  76.7750626  41.8780594  65.3388596  76.6064987  42.0210037  64.4075317
  76.3861465  41.0233002  65.5242233  70.0328522  20.1984978  20.7904797
  70.4707413  20.7143688  21.4675007  69.1120605  20.1926041  21.0519028
  74.7531738  21.7519150   2.7358968  74.5498505  22.6755028   2.5879910
  75.4496918  21.7621574   3.3923965  36.4525337   8.6322012  18.2754097
  36.3560219   9.5552559  18.5096893  36.4772377   8.1732988  19.1150723
  71.8645630   1.4643698  41.0146751  72.4316788   0.7688875  40.6816292
  71.0234985   1.3150102  40.5827789   6.7393951  64.6849747  38.3152390
   7.5949945  65.0878677  38.4630928   6.9258704  63.9193382  37.7718620
  77.5308685  10.6926174  63.4072571  77.6874237   9.8150301  63.7559128
  77.6143646  11.2701893  64.1659851  13.3055611  45.6104698  88.3989944
  12.7848845  46.3122177  88.0082550  14.1288815  46.0319061  88.6455002
   4.1199899  15.8460827   2.1112611   4.0227947  15.4874687   1.2291151
   3.5917754  15.2697897   2.6636264  13.8035727  29.7122192   1.0305161
  13.1497011  29.0181847   1.1141769  14.0704107  29.6804104   0.1118119
  46.4572296  51.4982643  76.7879333  46.2330856  50.7197685  76.2780991
  46.4710426  52.2087555  76.1466522  22.6387787  44.7107315  49.0190010
  23.1450005  44.6773872  48.2073021  22.8721218  45.5515633  49.4124298
  53.1766968  20.8133183  83.6479797  52.4360695  20.5491638  83.1021576
  52.8264313  20.8226910  84.5387421  61.4466057  19.1672554   6.5236392
  60.5540466  18.8228436   6.4928255  61.4734154  19.8255615   5.8292723
  41.1842537  48.6883965  36.9615402  41.7627678  49.2868462  37.4342079
  41.3084373  47.8435974  37.3941193  16.7641296  71.1469803  78.3912659
  16.7001953  70.7003937  79.2354813  16.1364155  71.8669739  78.4530334
  82.8863220  19.0831375  70.8276520  82.7344742  19.7025204  70.1138306
  82.0095673  18.8148899  71.1025696  19.2652111  65.1096039  59.6495209
  20.1002903  64.9835510  60.1000595  18.6586361  64.5224533  60.1006889
  75.8836365  21.9890404  17.1832352  76.7822647  21.7223263  16.9894257
  75.3489761  21.5039349  16.5547085  76.1697464  43.1520996   4.4440317
  76.0360489  42.4787445   3.7769871  75.3762207  43.1207581   4.9784160
  18.8169842  36.1769447  14.2845821  19.5082512  36.0034637  14.9235544
  19.2649841  36.1681633  13.4387379  75.6344757  37.0959549  12.4611511
  76.0958176  37.3629913  11.6661148  75.0016022  36.4427071  12.1628590
   8.6484594  40.7416878  55.0399590   9.3153667  41.3504829  54.7224197
   8.9093866  40.5489998  55.9405251  62.3885651  64.1098099   6.8898792
  62.0947151  63.4621735   7.5305419  62.2082710  64.9542542   7.3029699
  63.6388626  36.8283348  79.9188080  62.9172745  37.4455185  80.0397644
  63.6923599  36.3565369  80.7499390  70.4282532  21.2111034  61.2009277
  70.7356873  21.6210709  60.3924446  71.0830307  20.5398712  61.3931160
  31.7824459   9.7749100  87.4744415  31.9707451   9.1321115  88.1582489
  31.3526707   9.2707205  86.7835617  67.8321915  65.4290237  34.5659637
  67.2154007  65.2631989  35.2789192  67.2994461  65.8229370  33.8751335
  51.7153244  11.5296793  61.6828918  50.9118576  11.3879337  62.1834755
  52.1434097  10.6736431  61.6696129  46.3908386  43.6305428  50.1864281
  47.1898804  43.1050034  50.1467514  46.6067543  44.4311638  49.7082901
  48.8440285   5.1699724  17.4796104  49.7537842   5.2313223  17.1883888
  48.8908463   5.2578688  18.4316158  85.4462814  27.6259003  31.9234695
  86.3564835  27.3918266  31.7419033  85.3993683  28.5643921  31.7410851
  21.3998051  28.6180649   6.1182127  20.9362164  29.4433136   6.2606297
  20.8910503  27.9703045   6.6058679  50.8834419  54.7121735  14.3923302
  50.2146530  54.0653381  14.1674709  50.4150734  55.5468750  14.4038439
  79.3897552  42.1186638  34.0953293  79.9862976  41.4445534  34.4208183
  78.5706177  41.9604607  34.5646057  42.2570457  62.4705505  73.2731628
  42.9418182  63.1105499  73.0789566  42.5745049  62.0080185  74.0487366
  19.7486954  42.9662056  82.5938416  19.1671848  42.2217369  82.7482605
  19.8425617  43.3789139  83.4523849  17.8639221  39.5126839  86.0265961
  17.2445335  38.7831192  86.0445557  17.6294479  40.0447121  86.7869949
  49.5606346  32.9334145  51.4862595  49.5404663  32.4252205  52.2971611
  49.0324249  32.4243584  50.8713722  13.5053806   0.6700876  18.1660881
  13.1862278   1.5514868  18.3597603  14.0491562   0.7783292  17.3858166
  83.2109451  20.6955090  80.8820496  83.1134033  19.8460503  80.4517746
  82.7065048  20.6133747  81.6913834  13.8650351  62.4809341  49.3567619
  14.5349159  63.1529961  49.2309723  13.6378374  62.5399475  50.2847328
  80.8426361   0.3484576   0.6786811  81.0782547   1.2613580   0.5133670
  80.5201797   0.3437499   1.5799223  14.8255510  49.2707405  38.6060600
  15.7540417  49.4144173  38.4230461  14.6042109  49.9357948  39.2579346
  55.0858574  69.9947281  16.1935863  55.0055580  69.2845840  15.5568151
  54.9067230  69.5807877  17.0378551  60.0030823  34.4586601  88.8714828
  59.6453934  33.9080696  89.5680008  60.9515648  34.3540001  88.9466782
  31.2961349  67.3694611  49.7090034  31.5511875  66.8695984  48.9335556
  31.8082333  68.1762161  49.6530418  50.6862221  14.0185022  83.8499146
  51.5664978  14.0590906  84.2236786  50.3921242  14.9291906  83.8302917
  67.5157471  58.8642426  54.0166779  68.3002472  59.4032135  53.9151649
  67.2240753  59.0321960  54.9127541  61.5544434  63.5278435  36.0568275
  61.0650101  64.2323074  35.6320724  62.4726181  63.7364769  35.8846092
  75.5957870  53.2686005  57.8385735  74.7472229  53.5332565  57.4834175
  76.2222443  53.4835434  57.1474991  16.9115620  67.2018585  76.6496124
  16.3094921  67.6805038  77.2193832  16.7605953  66.2807083  76.8615417
   0.6018210  46.7594223  69.3158112   0.2306118  47.5448914  68.9139786
   1.1064695  47.0869179  70.0603256   6.1717200  32.5419960  44.5525742
   6.0337858  32.6310196  43.6095581   6.3154774  33.4372940  44.8591805
  56.5264320  36.9301834  14.8279572  55.6223335  36.6552544  14.9804382
  57.0523567  36.1667442  15.0662775   5.1968551  40.4769783  72.0167236
   4.4628868  39.8701630  72.1131516   5.8764925  40.1239853  72.5909348
  81.6473236  20.0845432  37.9021645  81.0643845  20.7899075  38.1830177
  81.6937256  20.1767673  36.9505501  57.1571655  36.2409630   5.2817593
  56.8934288  35.3372459   5.4548674  57.5240059  36.2182961   4.3979344
  62.3488846  19.8893795  73.8411026  62.9464874  20.2732563  74.4827728
  61.8549118  19.2351398  74.3352661  10.8753204  67.4169922  79.6493683
  10.7087708  68.0258408  78.9297867  11.5434952  67.8505859  80.1801910
   5.0522385  29.8169727  58.5957985   5.9129601  29.6980057  58.9973412
   4.4327025  29.5394382  59.2706184  40.6698151  52.3349037  72.7934341
  41.3009148  51.7268257  73.1783829  39.8197289  52.0311928  73.1117859
  81.2452240  24.9432678  51.3290443  80.5181580  24.5275993  51.7925377
  81.9000092  24.2507076  51.2404480  83.9801102  68.6977463  19.3421726
  83.4246902  69.4676895  19.4643307  84.8704376  69.0476074  19.3083382
   8.7535782  56.1591072  27.1043777   9.4809885  55.6372643  27.4431782
   9.1172810  56.6111183  26.3430367  13.5243063  56.6909218  26.9089241
  13.9608927  55.8598862  27.0960217  13.4971409  56.7373581  25.9532375
  39.5985756  34.9783478  77.4656982  38.7393723  35.1156387  77.8646393
  40.0988503  35.7602310  77.6994095  69.6504898  40.4794197  18.6084976
  70.3746185  41.0412254  18.8846302  69.4477310  40.7697792  17.7192211
  48.5909233  69.5362015  69.2745895  48.7757149  70.4328766  69.5539627
  47.6803513  69.5598373  68.9804230  67.1003952  30.7141991  43.9616127
  67.8989868  31.1591892  43.6779366  67.1029053  30.8021145  44.9147644
  16.0103893  30.2594929  73.5634155  15.2823982  30.6039696  74.0807114
  16.1633568  29.3838844  73.9185791  13.1996078  11.3258505  87.8359680
  12.5698795  11.2799215  88.5553894  13.3970871  12.2584763  87.7496948
  48.3922691  52.4323387  59.3878365  48.2903175  52.2967682  58.4457855
  49.0621910  53.1121216  59.4608727  84.1126251  43.3552856  59.4500771
  83.4502487  43.9226265  59.0555916  84.0709152  42.5470734  58.9389153
  60.9986649  42.5066490  35.1282387  61.0308418  43.3006401  35.6618805
  60.1661987  42.0953560  35.3607712  58.6832733  68.4868622  44.4689980
  59.4987106  68.6367416  43.9906349  58.7262497  67.5679779  44.7336311
  34.4687157  32.7352066  29.4142323  34.9488029  33.0227623  28.6376629
  33.5470352  32.8049965  29.1655006  43.2153435   8.4175911  11.4607601
  44.1173019   8.3332548  11.1515875  43.2389908   9.1555004  12.0699911
  26.5529308  14.8351269   2.1043496  27.3522129  15.0851679   2.5678792
  26.2545700  15.6437607   1.6880268  62.5055618  18.1253185  41.3177834
  62.7110977  17.2414665  41.6224022  62.4808884  18.0502014  40.3638535
   8.2334728  49.5263596  31.9140759   8.0507202  49.6795082  32.8411026
   8.5020771  48.6086121  31.8713360  46.1361504  45.4444847  13.5816555
  45.8512001  44.9062309  14.3201141  46.5587349  46.2020035  13.9864035
  81.0455170   4.2900577  69.5490417  80.9626999   4.5528059  70.4657440
  80.1531906   4.3346982  69.2055359  21.1760006  64.4080353   8.3938246
  21.9745750  64.6563263   7.9281421  20.4707680  64.8258362   7.8995366
  30.5693245  51.2028923  29.9989471  29.7094479  50.8398094  30.2111168
  30.3947773  51.8463402  29.3121166  46.0273972  56.0961876   9.7217970
  46.8819504  56.4985123   9.8770647  46.2033844  55.3944092   9.0950861
  42.0743103  47.1514244  77.6564560  41.7891388  46.3356018  77.2449417
  42.8406105  46.9036331  78.1737671  52.9291496  34.1847649  83.0876770
  53.3658714  33.9770470  83.9137268  51.9956932  34.1647415  83.2986069
  49.6313705  45.8574638  70.9159775  50.4393921  46.3284149  70.7121658
  49.8814087  45.2385788  71.6020508  78.1768875   0.3912664   1.7911698
  77.7520905   1.0101334   2.3851233  78.7070770  -0.1639548   2.3628852
  73.1890488   2.6888704  74.9177475  72.6778107   1.9607017  75.2707748
  73.9238510   2.2703700  74.4692307  47.2903900  56.5304718  50.6433601
  46.4774513  56.6719322  50.1582298  47.9825363  56.7564583  50.0219955
   5.9645033  52.6131935  64.1410294   6.2900248  51.8370056  63.6851807
   6.4779196  52.6499252  64.9480515  19.6277428  54.8249817  37.5595360
  20.1310616  55.5672112  37.2248764  18.9168663  54.7135391  36.9282951
  68.6132965  13.2079229  67.9478531  69.2994385  12.8136177  68.4863358
  67.8268890  13.1636744  68.4917603  33.9549179  66.3557968  35.7254791
  33.6256676  65.5498657  36.1233444  34.2137299  66.9012299  36.4682808
   0.3664958  20.7738743  26.7413044  -0.2724127  20.1235981  27.0331383
   1.2011385  20.3052616  26.7388096  34.7329445  15.8419800  14.8920422
  35.3405304  16.4793587  14.5167866  34.3330078  15.4168701  14.1333828
  25.2187958  64.8436966  38.3888855  25.0246582  63.9986267  37.9834175
  24.5475445  64.9454422  39.0636444   2.2481837   3.1744947  10.7033281
   1.8925900   3.6507325  11.4536495   1.5045633   3.0741954  10.1090212
  83.1210785  22.5219860  57.3117294  83.4509659  22.6930161  58.1938553
  83.7502136  22.9527245  56.7330399  29.2442169  70.9460907  16.7334557
  28.4763927  70.4229889  16.5031528  29.7124901  71.0610657  15.9065752
  29.4517784  65.8029327  37.4512215  29.0798206  65.7931900  38.3331413
  29.0101376  66.5303802  37.0130386  84.5114822  49.4368782  22.9084759
  84.9016495  48.6579514  23.3050461  84.2066345  49.9570236  23.6519451
  82.9536209  33.4801636  77.7328110  83.3647156  32.6173782  77.7860641
  82.6571274  33.5486031  76.8252640  69.3049088  12.7633181  84.2358627
  68.9090424  13.2218189  83.4947205  69.3346558  11.8465633  83.9621735
  18.3937149  42.1737556  57.6033173  19.3057041  41.9095383  57.4820976
  17.9964809  41.4488831  58.0860138  80.8051376  46.4952583  57.2432289
  81.1454849  47.1254539  56.6082115  80.3880692  47.0341072  57.9154854
  14.1634979   9.0878935  86.6118317  14.6107626   8.6876497  87.3574829
  13.9371214   9.9679775  86.9125595  77.8209763  43.3611603  52.8130112
  77.8238525  42.6514702  53.4553223  77.9984589  42.9288597  51.9776382
  16.2360325  23.5714970   5.2676296  15.6849279  23.1628628   4.6001458
  15.7804785  23.4004803   6.0919209  36.0793495  38.0082474   2.3178844
  35.6032906  37.8672180   1.4995258  36.2457085  37.1272278   2.6530848
   0.6300120  43.5505943  10.1598158  -0.1723362  43.6562881  10.6709890
   1.2682762  44.1146278  10.5965300  14.9225569  43.1385841   4.8639841
  14.6212978  42.5501137   4.1717587  14.2587614  43.8273621   4.8985233
  78.7444992  12.1176987  69.6950760  78.4867859  12.7539454  70.3621674
  78.7394028  11.2764807  70.1517563  11.8759527  13.2040043   3.8866467
  12.0114479  13.6762505   3.0651500  11.6227942  12.3212929   3.6165323
  65.3808517  45.8157654  11.3957891  65.8913193  45.0938873  11.7625980
  65.3844147  45.6562881  10.4519739  31.4196129  65.3980560   1.9790336
  31.1189976  66.1726608   2.4542730  31.1103649  64.6599045   2.5041339
  67.1455231  67.7930984  55.1165771  67.9792633  67.8573990  55.5823822
  66.4818573  67.9159088  55.7953262  74.9501877  61.3764915   3.6215010
  75.9023819  61.2930984   3.5704777  74.6864929  60.7201309   4.2663927
  54.5049248  37.5794907   5.5643353  53.9717102  37.5102463   6.3562450
  55.3606262  37.2357521   5.8209414  53.7549133  30.6351757  63.2739182
  53.8831367  30.7712994  64.2126770  54.6402626  30.6252575  62.9102097
  66.2827835  18.4697094  66.8261185  65.9702454  17.6374912  67.1810303
  66.5302658  18.9808521  67.5966568  68.3720169  36.0732994   0.5743535
  68.6218491  35.7719231   1.4478467  67.4153595  36.0986671   0.5942589
  12.1370268  60.4699821  56.9361572  11.1865683  60.5661850  56.9962082
  12.2682161  59.5708237  56.6352730  69.4224091  14.7252960  60.3718033
  68.9344330  15.4514952  60.7600632  69.7261200  15.0639572  59.5296021
  60.1185646  51.1191597  11.9105625  59.6556091  50.4184189  12.3697615
  59.9592743  50.9438210  10.9831390   0.8632216   6.4088159  65.2399750
   1.2134302   6.3881483  66.1305695   0.0158344   5.9685130  65.3055496
  22.1606789   5.1989541  73.7561264  21.2295170   5.1496725  73.5399323
  22.4856243   5.9419737  73.2476349  43.7739830  17.3167171   3.5073102
  42.8864517  16.9680595   3.4239132  43.6490517  18.2440624   3.7089415
  20.5414238  71.4475861  28.7456150  21.2734966  71.3024673  29.3449841
  20.0920258  70.6032944  28.7075939  56.5075378  53.9579849  70.5976639
  57.2232018  53.3575783  70.3889313  56.8713188  54.8288841  70.4381943
  67.7194290  22.7539120  41.6669540  67.9762955  22.4821987  42.5481033
  67.3735962  21.9583836  41.2622719  28.6000786  69.9301453  12.1709414
  28.3836784  70.5889053  12.8308201  28.6827068  70.4255219  11.3560753
  65.5555344  66.5654831   3.7220173  66.4246826  66.8803101   3.9703987
  65.0952530  67.3477859   3.4180775  19.6156349  43.2484894  35.9673996
  19.1914463  43.6710320  36.7142296  20.5525131  43.3367882  36.1426010
  48.1615028  56.7235222  65.9885406  48.1929474  57.3387680  65.2559280
  49.0680733  56.6632233  66.2897491  23.4013157  47.2463951  75.6940536
  24.0727444  46.5709381  75.7898254  23.1810284  47.2347755  74.7626190
   8.6430588  58.1842155   3.3430142   9.3105793  58.7714272   2.9882860
   9.1391163  57.5129509   3.8115876  28.2370548  69.2619781  85.2438583
  27.5928326  68.8954620  84.6381531  28.1222763  68.7579193  86.0494461
  83.4580765  16.6126213  24.6347446  84.2522659  16.0847664  24.5518646
  82.9260330  16.1453323  25.2787991  65.4711609   5.1371803  31.0352478
  66.4136887   5.0010657  30.9385147  65.3281784   5.1589565  31.9814587
  44.7564316  39.1086121   5.5709600  45.2607117  39.7990112   5.1405177
  45.0783195  38.2969284   5.1788030  15.4900856  53.9513321  41.1162186
  14.9340506  54.2708855  40.4056244  14.9026947  53.4312592  41.6646042
  54.6919899  63.3875389  28.8357258  55.1291618  62.7169533  29.3605404
  53.7833366  63.0921059  28.7783031  15.3232985  20.7736607  68.8719788
  15.3388071  20.9617233  69.8103943  14.5492935  20.2237206  68.7506714
  77.5419159   6.7977376  32.0423813  77.6335373   6.9565682  32.9818535
  78.0609055   7.4887981  31.6309032  26.3769722   0.6589150  82.7787399
  26.6843472   1.5241495  82.5083237  27.0221519   0.0515787  82.4166336
  23.6390896   5.5547395  62.2895050  23.0341988   5.2247772  61.6250763
  23.9734039   6.3736024  61.9235382  48.7073631  50.9511070  51.3319931
  48.6137581  50.6831322  50.4178505  47.9720039  50.5335732  51.7804832
  16.8231697  21.0738735   7.2936802  16.0807915  21.6597519   7.4415045
  16.5747967  20.2581253   7.7285333   9.4591656  22.8199062  65.8835068
  10.2406588  22.6220245  66.3995895   9.6356945  22.4358292  65.0246964
  27.5025482  32.7864494  84.4472275  27.8099442  33.4795799  85.0314407
  27.1571426  32.1139946  85.0343704  73.9402695  55.8392181  21.7354031
  73.9744797  56.6026230  21.1589718  73.5142746  55.1615982  21.2104301
  60.7623177  47.4708900  76.4003830  61.7019424  47.5897064  76.2617416
  60.5902214  46.5726700  76.1178665  38.8528633  13.9772673  77.8853455
  39.3302422  13.3077097  77.3954163  38.4306641  14.5111294  77.2123184
  27.1204739  32.5330276  15.4663544  26.2458115  32.1811218  15.3009558
  27.4213028  32.0694618  16.2479172  40.3615074  53.3466530  76.5678787
  41.2680817  53.0735741  76.7085266  40.4303665  54.1456070  76.0452271
  31.3008804  49.0808907  69.3530426  30.8932247  49.1463280  70.2166214
  31.4675903  49.9881630  69.0975113  17.4553490  35.2335663  64.4276276
  17.4397964  36.1545296  64.1672134  18.2533035  35.1455078  64.9489136
  53.9191132  34.6696739  80.6099701  54.3099861  33.8985023  80.1991806
  53.5092964  34.3344574  81.4074097   5.3600979  39.2366524  28.0256405
   5.4855461  39.6957588  28.8561325   4.5641699  38.7208900  28.1549339
  12.4934950   4.9447060  15.3165379  13.2424059   5.1809506  15.8638535
  12.8808708   4.6768255  14.4832239   3.1762660  64.2299881  54.9759750
   2.5792637  64.6459198  55.5979233   2.6119518  63.6773529  54.4352570
  32.2146301   6.6286907  13.6730518  32.3740807   5.7501101  14.0178757
  31.5981464   7.0205312  14.2916327  69.9675674  12.4554577  78.1882553
  69.9474564  13.0907726  77.4725723  69.0738602  12.4524593  78.5310440
  25.5539150  44.8225288   5.1464953  26.0536423  45.5614662   5.4935923
  24.9209957  45.2209282   4.5490651  51.6363869  44.7380028  67.5135651
  51.3286972  45.6419716  67.5799179  51.0115891  44.2334824  68.0344467
  62.3513908  66.6342926  25.5937424  61.8493919  66.7124939  24.7825012
  63.2533531  66.8255997  25.3366489  18.3283443  49.2594147   0.1382319
  17.3861485  49.1435356   0.0154816  18.4202442  49.5197906   1.0547419
   5.4342456  62.9668007  69.4978256   4.8294702  62.7296257  70.2008438
   5.7748070  63.8239441  69.7538605  59.9340096  33.8392143  85.6462708
  59.9599609  34.7900658  85.7532349  59.6974792  33.5071335  86.5122986
  78.5759277  38.5694199  13.0378618  78.6156082  38.0714531  12.2213535
  78.1733246  39.4020844  12.7912560  67.4663544  68.3049393  18.7509785
  67.4278107  68.2156601  17.7987309  67.4361649  67.4055786  19.0772781
  65.2527466  32.9522400  74.5430374  64.7857208  32.5667114  75.2843094
  66.1338730  32.5821037  74.5963898  30.2220707  23.2055359  86.5741806
  29.7469044  23.5920658  85.8386230  30.9829750  22.7852173  86.1734467
  11.9741364  37.0845032  70.8533859  11.3473949  36.3637886  70.7901459
  11.4308577  37.8663940  70.9520111  10.1305504   6.8092856  23.9938869
  10.8784904   7.3937984  24.1170216   9.7398577   6.7335982  24.8644409
   7.7299018   9.2331038  73.7170486   7.6463332  10.1782770  73.5909729
   8.5726109   9.0121574  73.3204956  79.4794922  61.9553871  32.0866241
  80.4110260  62.1247482  32.2272911  79.1968079  61.4985466  32.8788490
  58.9312401  44.7239647  88.2439651  58.6191902  44.8861160  89.1342239
  58.1631546  44.3947372  87.7771835  84.0657349  30.5671062  24.1727314
  83.6585770  29.9505825  23.5641670  84.9384003  30.2068558  24.3305626
  37.5368690   8.0702486  70.9682159  37.3000259   8.2467241  70.0577240
  37.1661682   8.8039284  71.4586487  39.0210762  68.0849991  43.6261139
  38.4247971  67.4934387  44.0851746  39.0726395  68.8574371  44.1890678
  54.8775406  59.7425690  32.2187233  55.2923317  59.7917023  33.0799789
  55.1123695  60.5667953  31.7924137  70.6586685  64.9838409  51.9438972
  71.1657410  64.4092178  52.5174065  71.1024094  64.9296341  51.0974998
  39.5068245  59.3019829  22.4050980  40.2128944  58.8740845  21.9207497
  39.9469032  59.9723930  22.9277000   8.2265463  56.8197327  56.3760567
   7.5834875  56.3783112  55.8212090   8.0362988  57.7516327  56.2683563
   0.9684680  49.7342758  48.4082832   0.8049417  49.6874886  49.3502502
   1.7963789  50.2086220  48.3321838   2.3002875  43.0797729  14.0139675
   1.4438390  43.5063667  13.9866819   2.5566230  43.1159248  14.9354973
  43.1609077  40.0298080  28.8231258  43.7419128  40.7904358  28.8125076
  42.6585350  40.1234322  29.6325016  49.5788803  -0.2109344  19.8438396
  49.1562881   0.3820520  19.2225399  50.1224861   0.3593747  20.3874130
  67.1743317  61.2128220  82.4348068  67.6041031  60.6591454  81.7829056
  67.7857895  61.2348099  83.1709213  42.1381493  69.0297623  49.0385704
  43.0015984  68.7732162  48.7147293  41.7021980  69.4153900  48.2786560
  64.0518723   5.8557596  40.3690910  63.1427345   5.7230244  40.1006126
  63.9893875   6.2795782  41.2250748  79.3761749  40.2023582  16.8236961
  79.9795914  39.5327110  17.1457062  79.7062836  41.0206223  17.1947765
  46.9819603  44.9426727  27.0894070  47.7884903  45.4320908  27.2513256
  46.6284027  44.7683029  27.9616585  52.2742615  46.5356407  16.4096928
  53.1985321  46.2969742  16.4803944  51.8023834  45.7237358  16.5950775
  53.0732880  18.6626205  61.3094978  53.2912064  19.1373367  60.5073814
  52.1899605  18.3270245  61.1567230  77.6353607  55.1335869  19.1301785
  77.4102173  54.2100410  19.2424545  76.7991180  55.5640831  18.9524364
  73.8056335  59.0958939  55.5393715  73.6962280  59.7919807  54.8915100
  74.1900330  59.5337715  56.2988052  44.6807327  17.8306198  42.9868622
  44.0688057  18.2460899  42.3792725  45.2574654  17.3102779  42.4275284
  68.2569275  19.9282913  36.6993713  68.6985855  19.5545902  35.9367981
  68.5452499  19.3853474  37.4330673   6.2093968  35.0278549  62.8147011
   6.1538572  34.4590416  62.0468483   7.1326756  35.0016556  63.0659027
  63.7094574  18.5373478  24.0915375  63.2549820  17.8953457  23.5460854
  63.3645058  19.3827438  23.8042316  68.0207367  70.8766098  41.5805626
  67.7349091  71.7900238  41.5947647  68.3727341  70.7494659  40.6995621
  86.8820496  53.0645981  61.2109222  86.7779236  52.1752472  61.5492134
  86.4727859  53.0412827  60.3459396  39.9272079  46.6624069  43.6918716
  39.7135429  45.8035583  43.3272362  40.8486710  46.5939941  43.9417915
  69.9027328  63.2536774  15.9402084  70.7120743  63.2264442  16.4505653
  70.0270615  63.9828987  15.3327456  17.7571278  51.5641823  80.4703827
  16.9815807  51.0772743  80.7490921  18.1202469  51.0456619  79.7523880
  50.5492821  21.2154102  19.6174774  50.1325569  20.4284401  19.2664013
  51.4784279  21.1046715  19.4158459  32.3076324   1.5728736  65.5188217
  31.6803436   2.0265932  66.0817490  32.0622025   0.6498349  65.5820389
  46.3085136   6.4078226  68.6537476  45.4883537   6.2659988  68.1810379
  46.0715179   6.3182502  69.5768051  74.3095627  66.4420090   8.5548649
  73.6483688  66.6554489   9.2132673  74.3984299  65.4902344   8.6044502
  57.9213181  32.3479576   3.9923801  58.1346169  31.4306049   3.8215017
  58.3519707  32.8295670   3.2861059  16.1952496  23.0479679  26.5811577
  15.7787666  23.3638878  25.7793064  16.0279770  23.7361526  27.2250919
  66.3367004  23.5887718  61.0692787  66.1006165  22.8040733  61.5639992
  66.4488220  24.2670841  61.7352753  46.4633446  58.1865997  74.3284607
  46.4505119  58.8852272  73.6742477  47.2931252  57.7335129  74.1787720
   9.5859470  66.7763290  27.0791035  10.3054171  67.1887589  27.5571213
   9.7428026  67.0078430  26.1636639  84.8539047  38.4998093  58.1585045
  84.6719742  39.3602524  57.7806511  85.4392929  38.0802612  57.5279999
  23.6686382  59.1123199  33.0484581  24.6062069  59.2859383  32.9644661
  23.5160618  58.3473816  32.4936371  47.7719002  48.1021500  14.6742630
  47.6900330  47.8467598  15.5931234  47.4250603  48.9937057  14.6416569
  13.7568531  67.4322357  18.8679008  13.3237743  67.3034897  18.0240402
  14.6831360  67.5333252  18.6487789  57.6541862  64.7774582  84.1359177
  57.6997833  64.3958435  85.0125732  56.8105087  64.4850922  83.7910156
  86.5506592  26.2276039  10.5889158  86.2223511  27.1257286  10.5462608
  87.3252563  26.2820759  11.1486130  55.6697617  11.2561169  74.8323059
  56.4476166  10.7699814  74.5587234  56.0152054  12.0358810  75.2668915
   2.5460126  31.9051590  10.0988417   2.8921280  32.5286140  10.7373877
   1.6590352  32.2158432   9.9172401  29.4695110  54.3571129  86.5337219
  29.9980984  55.1374741  86.7006531  28.5682888  54.6787987  86.5102692
   3.1664762   2.1561854  24.2194710   2.9991217   1.2163075  24.1497993
   3.3751600   2.2944670  25.1433544  76.6792984  37.7176208  44.5723152
  77.1639252  37.7095757  43.7469025  77.2124634  37.1914520  45.1682320
  50.3347015  48.8755226  82.1939163  49.6416092  48.4500923  81.6890793
  50.6244049  48.2064629  82.8141327  68.9754944  63.2816658  66.2328720
  69.3451462  62.5689430  65.7117081  68.7549744  63.9575920  65.5919952
   5.8111305  37.1611214  65.2685699   6.0929027  36.4701309  65.8680420
   5.2689881  37.7383308  65.8062897  70.4994125  29.2720890  83.3543472
  70.2725677  30.0669117  82.8716125  70.2184906  29.4487591  84.2521744
  23.5093861  51.2819061  48.7814827  22.8493252  51.4295044  49.4588051
  23.9187355  50.4510345  49.0229797  80.0279465  33.9338646  66.3149872
  80.6091385  34.6305161  66.6201401  79.2191925  34.3853073  66.0734177
  12.1228914  47.9567413  69.7554932  11.2764635  47.5173035  69.8372574
  12.4845619  47.9467087  70.6416779  58.3860321  31.8119907  79.0680618
  58.0004501  32.6649780  78.8681412  59.1095581  31.7248230  78.4474640
  84.0857925  26.0607605  59.2818184  84.0984268  25.2550735  58.7651520
  83.3334961  25.9595776  59.8649445  53.3237343  42.3609962   2.2790461
  53.5004349  42.1882744   1.3542887  52.7396126  43.1192894   2.2737184
  45.5235214  64.3242798  27.6224689  45.9614029  63.8283768  28.3142548
  44.9640503  64.9445801  28.0898552  74.7516785  70.6216583  17.5983047
  74.0005035  70.2049484  18.0206013  75.4437866  70.5936966  18.2589340
  83.6355057  27.3881435  85.0186691  83.9765930  27.7524185  84.2018509
  83.4727097  26.4660187  84.8201294   2.3524265  52.6083336  10.8144827
   2.1611252  51.7070427  10.5550442   1.5354221  53.0814934  10.6568298
  70.1335907   4.4107552  69.1989441  70.3116531   5.2669148  68.8096924
  69.7159271   4.6107178  70.0366821  11.9127684   7.5397820  30.1655540
  11.0266619   7.7878270  30.4292221  11.8239470   7.2698216  29.2515163
  57.4145050  28.5925274  32.3421631  57.1291351  29.4087029  32.7528381
  57.1617432  27.9102821  32.9641647  45.5850716  32.2885666  85.6614456
  45.2487183  33.1029167  85.2873688  45.0245781  32.1238480  86.4196930
  65.5636826  18.6710224  81.1765747  65.9930801  19.0145435  81.9600525
  65.8488464  17.7585907  81.1277313   0.6918274  20.3205643  17.7129345
   0.5607546  19.5556011  18.2731876   0.0486573  20.9578705  18.0234261
  74.2849884  52.0936928  33.4853439  75.1166687  52.5504494  33.6114769
  74.1332703  52.1288147  32.5408974  71.9966660  47.2882423  33.6541862
  71.3265457  46.6306992  33.4676170  72.7581253  47.0044022  33.1483688
  52.4783020  -0.1003606  14.9667044  53.3890800  -0.3810621  15.0557137
  52.5301247   0.8487579  14.8539190  38.7969627  70.9010773  69.3090057
  38.9834404  70.0460968  69.6968994  39.4424133  71.4884186  69.7022781
  31.2330036  16.0154381  79.4475098  30.6100903  15.3433847  79.7241974
  30.6914368  16.6895161  79.0369568  15.9051256  59.1766052   8.3777809
  16.5633221  59.6712875   8.8659401  15.7345600  59.7077065   7.5999179
  44.3062019  68.0178375  26.1631889  44.2167892  67.6618805  27.0472317
  44.7837563  68.8387527  26.2826958  67.8959122  65.0010223  78.4000244
  68.8179932  64.7442093  78.4067078  67.5186310  64.5589066  79.1605682
  26.3260822  38.7269287  24.5916653  26.9642677  38.8325233  25.2972164
  26.7453289  39.1237450  23.8281212  76.6269379   8.5553322  56.1181717
  75.8958435   8.9887514  56.5584946  76.2124939   7.9854383  55.4703407
  81.9617462  57.1568794   2.9962428  81.5339508  57.7143631   3.6461940
  82.8866348  57.3986244   3.0449190  56.7647552  50.9387474  88.7531738
  56.5921364  51.7454262  88.2676773  56.2479858  50.2718468  88.3010406
  58.3933716  66.1820755  45.6661415  57.5128555  66.5560684  45.6986504
  58.2566147  65.2391281  45.7576866  40.8956528  39.2762299  23.5027828
  41.6536636  38.7141495  23.6631603  41.1531906  39.8187447  22.7574081
  58.4086380  45.6986084  46.1896515  59.1789742  45.5437088  45.6430054
  58.3174934  44.8986282  46.7072906  45.2817268  32.1326714  41.2131653
  45.5985985  31.2704868  40.9439812  45.1370811  32.0510979  42.1558533
   8.9010010  66.2805939  38.8100929   8.3932819  66.8104935  39.4246368
   9.5709352  65.8624954  39.3510284  70.0430527  63.0939140  86.9652176
  69.2464371  63.6118469  86.8495483  70.7557449  63.7248535  86.8640976
  21.1233158  47.1017380  39.8345108  21.4463921  46.7396698  39.0094261
  21.7890835  46.8609619  40.4787254  50.7191467  71.1436386  31.7773018
  49.9407692  71.6737366  31.6059704  51.4532928  71.7279358  31.5879364
   1.0758367  53.6871300  47.4946442   1.9121376  53.2232857  47.5356407
   1.0963929  54.2845306  48.2422562  31.9116478  45.2169113  88.7847214
  32.2275276  46.1150093  88.6853409  31.0611420  45.2121849  88.3455811
  71.6797791  44.5616798   1.3543093  71.5377045  43.8926544   0.6846443
  71.1961288  44.2438965   2.1167545  75.3221207  10.7127228  88.1959915
  75.8944931  11.4748116  88.1074066  74.5530014  10.9282227  87.6685104
   4.8310843  63.7204056  26.6984463   5.1755672  63.7141037  25.8054047
   4.8105240  62.7981110  26.9537430  17.0120621  53.1556435  65.4536819
  16.2527084  53.2396507  66.0303574  17.0093098  52.2365227  65.1863937
  64.0264587   5.5743465  48.2677689  63.0836983   5.5280547  48.1087456
  64.2923050   6.4124556  47.8894424  85.9375534  11.4646091  35.8132706
  85.6536484  11.4955635  34.8996696  85.7288742  10.5751791  36.0989265
  28.4995232  48.5633163  30.7514019  27.8577633  47.9368744  31.0859871
  29.1913471  48.5738220  31.4128399  83.8000336  30.6189842  46.3698845
  84.1226120  30.9835796  45.5457230  83.0719147  31.1897106  46.6155510
  36.4659157  59.0730667   5.8351779  37.4121361  59.0162315   5.9681177
  36.0892601  58.7575989   6.6566658  45.0515671  59.0579147   7.9445586
  44.2810593  58.4970741   8.0340490  45.4133644  58.8328705   7.0874176
  22.5798531  13.4274101  48.9071655  22.4922867  13.0953817  49.8006516
  22.7739182  12.6515226  48.3812675  32.2549362   0.4227178  78.6345596
  32.4860115  -0.3008860  79.2170029  31.4897079   0.8255083  79.0449524
  86.3155594  64.0729675  66.9636841  85.8572235  63.9050255  66.1403046
  85.6609879  64.4945450  67.5205002  54.7641716  16.0127583  78.0111160
  55.1287231  16.4987335  78.7508240  54.6673317  16.6669559  77.3191071
   3.3331027  27.4842701  25.7535877   3.2131767  28.0261345  26.5334816
   3.4214623  28.1124363  25.0367680  38.1412315  35.7823067  67.6487503
  39.0922508  35.8663788  67.5800095  37.8400688  35.7208023  66.7422485
   5.8847485  18.5413151  72.0748215   5.9008217  18.6192150  71.1209259
   5.6062932  17.6399612  72.2368622  73.3149033  49.9380646  24.0836029
  73.4117737  50.3634148  24.9356155  74.2123566  49.7685280  23.7971210
   4.4199719  47.8482895   3.7839780   5.3117862  48.1597252   3.6293585
   4.4899592  47.2995682   4.5651560  53.5512428  60.0413475   9.8696060
  53.6167984  59.1541367  10.2228680  52.7449989  60.0347633   9.3536997
  78.5607605  36.6348839  33.3698540  79.4621658  36.6478920  33.6916161
  78.0738907  36.1560974  34.0406380  28.5469303  55.1402206  44.8958168
  29.2030678  55.5034752  44.3010406  28.5698490  55.7174072  45.6590729
  24.8477383  35.7884712  17.6626511  24.9892960  34.8957672  17.9777279
  25.4678345  36.3198586  18.1619930  12.0259762  29.5002308  66.6290512
  12.0899544  30.4516430  66.5456619  12.1876583  29.3297157  67.5569611
  15.0223770  55.9255981  45.3009529  15.6914301  55.8081818  45.9753494
  14.1990118  55.7144356  45.7410812  78.5154572  51.0056076  54.5295677
  79.3296432  50.5431442  54.3309288  77.9527206  50.8350334  53.7742805
  15.6010265  30.2540550  14.4715443  16.1462040  29.6938820  15.0240088
  14.7703218  29.7839565  14.3996534  84.0018005  27.8574810  39.3422012
  84.1993256  27.2150230  40.0237160  83.9553375  27.3443184  38.5355186
  71.2085114  22.4740162  41.8960342  72.0851746  22.8507271  41.8199348
  71.3485718  21.5286446  41.8422890  70.7813873  47.5578194  55.0740013
  71.2643661  48.1317558  55.6686134  70.0341873  48.0833549  54.7880936
  36.9742241  37.0233727  16.7416134  37.7842484  36.5222588  16.8363762
  37.2503242  37.8538666  16.3539543  12.9856520  52.4930115  51.4346809
  13.6432314  53.1823196  51.5278053  13.4106455  51.7082367  51.7807236
  73.9833984  55.9121056  24.5660191  74.4518051  56.7458153  24.5241547
  73.7581940  55.7179565  23.6561718  44.8013458  36.2626686  29.5772514
  45.3575897  36.7306786  30.1999798  44.6490479  35.4104500  29.9856205
  77.8221130  59.6990585   6.4030943  77.3458557  59.0159531   6.8750811
  77.5383987  59.6042404   5.4938388  45.7168159   9.6443224  54.4528084
  46.5849152   9.9466171  54.1858749  45.4142151  10.3050251  55.0758133
  21.4172630  18.7846546  73.5088501  20.8682041  18.3671665  72.8451691
  21.1629772  18.3631878  74.3297806  71.3860550  18.7692223  36.2298431
  71.1662369  18.8230839  35.2997856  71.5077286  19.6793232  36.5002937
  14.6820383   5.3954687  17.3198090  15.2454605   5.5720029  16.5664005
  14.8348780   6.1325159  17.9111061  25.7153206  56.5199127  60.0636024
  26.4620152  56.6053314  60.6563759  25.1693401  55.8422546  60.4622421
  49.3503227  13.8589888  37.3176270  48.8860664  13.0219383  37.3110504
  48.6565819  14.5178776  37.2889709  48.6076584   5.9900584  85.3830490
  49.2680359   6.5911269  85.0382996  47.8407669   6.1330714  84.8283844
  49.4763489  70.9907684  66.4276505  49.3058128  71.9190598  66.5870667
  48.7416573  70.5377579  66.8414688  64.8759079  18.9119473  30.2781792
  65.2548752  19.1512051  29.4323807  63.9451141  19.1171818  30.1902447
  53.0796585  65.8383026  24.5203686  52.9267616  64.9482346  24.8376083
  52.8147469  66.4007874  25.2481499  60.3961487  36.5008736   7.6922345
  59.5864182  36.2602501   8.1424189  60.7996063  35.6641083   7.4614091
  23.1690044  54.2775764  20.0065746  23.1041946  53.6521988  19.2848167
  22.8931808  53.7824860  20.7779617  22.0031967  30.5435047  23.1172791
  22.0567055  30.6912212  24.0614986  22.9074745  30.3812294  22.8486156
  51.9301720  17.5881176  77.9250793  51.2003021  18.2035751  77.9939041
  51.9537315  17.3471088  76.9990158  65.2434235  32.5186920  68.2815475
  65.6834946  31.9669781  68.9282150  64.3125687  32.4331818  68.4875259
  52.3982773  60.5882225   2.7777414  52.0062141  60.6032944   1.9046491
  52.1943703  61.4475861   3.1467259  64.5006714  28.3274860  61.1920280
  63.9808121  27.5736103  61.4706917  64.9837875  28.0155926  60.4268112
  72.7927551  37.9146423  55.7485466  72.3475037  37.0674171  55.7623634
  72.2173157  38.4957771  56.2459145  75.2361069  45.8640442  42.2830391
  74.3956070  46.0657387  41.8718071  75.0229721  45.2242661  42.9623680
  14.6106558  65.3776855  11.8699083  13.8715496  65.9804993  11.7888336
  15.3659801  65.9444962  12.0262499  32.7170639  56.2661324  82.7463303
  33.4216499  56.1165695  83.3767471  32.4050446  57.1498528  82.9410477
  64.3099518  63.3662872  84.7737045  63.9638939  62.7638092  84.1153030
  64.5473022  64.1507950  84.2792892  17.6518421   9.8216171  10.9230270
  18.2055187  10.5952253  11.0288839  16.9691086   9.9231548  11.5861988
  79.7581635  17.1895256  49.7051048  80.4186554  17.4202805  50.3583527
  79.2896729  18.0075226  49.5388832  60.5760498  24.4379597  51.5407219
  59.7536049  24.4424286  51.0510368  60.4132195  25.0140171  52.2876358
   5.3304372  61.6512489  75.8715057   4.9916115  62.0875473  76.6532135
   5.9038382  60.9638138  76.2104416  28.8767643  15.0636950   3.4649818
  29.6955814  14.7485800   3.8476980  29.0115910  16.0046177   3.3522077
  41.6379929  64.2431183  76.1645966  42.1755066  64.0804367  76.9397354
  41.9482536  65.0846710  75.8302994  36.8175697  25.4370480  11.8737478
  37.0399704  26.3546371  11.7162600  37.6162148  25.0563221  12.2390480
  19.2196465  68.2269440  82.5791626  19.9903603  68.0476913  82.0405579
  19.3083267  69.1477051  82.8252716  77.5578232  17.7390385  67.1006470
  76.6664429  17.3914795  67.1303864  77.8044357  17.6871719  66.1772156
  27.7763710   0.4297420  13.7626228  27.2061329  -0.0137271  14.3906298
  27.1802273   0.7648261  13.0928745  25.6049995   7.7302594  14.1058235
  25.5064125   8.4076548  13.4367590  25.5264587   6.9060078  13.6255398
  60.8716431  41.7311707  60.8140411  60.5217934  40.9213905  60.4424324
  60.1479073  42.3546982  60.7535973  54.0362244  70.8651657  64.3040695
  54.9040718  70.7862930  64.7001038  53.4855537  70.2705994  64.8134613
  42.5613174  37.2681427  64.0305481  43.1328735  37.9692688  63.7175255
  43.0387459  36.4628639  63.8310013  36.6991043   3.1776206  74.0865784
  37.1612358   2.4295778  73.7082901  36.4372025   3.7042105  73.3313675
  72.4323883  15.6761770  25.6477776  73.1775513  15.9636440  26.1753426
  71.7047272  16.2237091  25.9426556  38.5892563  41.3011703  29.5950184
  38.1435738  40.9030685  28.8472767  39.2730675  40.6733131  29.8283176
  52.3643875  40.2362785   5.8741307  51.8449593  39.6248970   5.3519816
  51.7546005  40.9400215   6.0958056  25.3675690   2.4827244  40.6341209
  24.8022461   2.4839656  41.4065475  24.7884083   2.2337389  39.9138374
  75.0550156  40.8267441  76.7767792  74.8382797  41.3876572  77.5215225
  74.4481277  41.0979729  76.0880432  37.0954971  18.7658558  84.3806381
  37.2861748  19.5196171  83.8223190  36.9797897  18.0382919  83.7695007
  85.9204330  67.1892624  14.4062185  86.1800003  66.6034393  13.6951170
  85.3605499  66.6520996  14.9667759   4.7871966  18.3583431  37.7818985
   5.1676488  17.5030384  37.5820465   4.2130532  18.1961040  38.5304108
  24.6733990  19.3546505  12.2095013  24.4448929  18.4821320  11.8889904
  23.8549614  19.7012024  12.5648842  77.0909195  29.7542763  80.9054642
  77.5597610  30.4525242  80.4484482  77.0441360  30.0519962  81.8139877
   1.8395730  31.8416157  53.3662949   1.3352643  31.0454750  53.5338249
   1.6753953  32.0395584  52.4442863   1.1159518  16.3884811  66.4594727
   0.9573047  15.4756346  66.2191086   2.0518498  16.5174980  66.3055878
  52.8112335  27.6993656   0.6972384  52.0760498  27.2666264   1.1313702
  52.8754616  28.5518913   1.1277101  46.0918999  45.1705971  65.5262222
  46.8604088  45.4982414  65.9934235  45.3724289  45.2692375  66.1498184
  40.5542145   4.4921298  70.6135178  41.0096893   4.2945423  71.4318924
  39.7292328   4.8917999  70.8890228  33.9779892   6.8251071  50.5475693
  34.7278671   7.3844919  50.7500610  33.8488274   6.3020172  51.3387260
  38.7818756  45.1469688  66.1071472  38.3977966  45.3324738  66.9640579
  38.7502594  45.9841690  65.6441956  28.6037140  50.2947502   5.9568143
  28.3463230  49.8336906   6.7551932  28.5536804  49.6301765   5.2697406
  42.0012283  42.3824844  73.6326370  41.0982590  42.1335678  73.8299026
  42.5320015  41.8412933  74.2171249  22.7778645  41.9182663  11.4102859
  23.0589542  42.1018753  10.5139008  22.3803997  42.7362213  11.7089539
  19.7642994   6.1637745  72.1057205  19.1927490   5.8075271  71.4255371
  20.5656624   6.4068580  71.6420822  68.0482101  56.3889313  38.9476395
  67.3854980  55.9415016  39.4738045  68.8814621  56.0421867  39.2665482
  31.8192196  40.4899788  74.2935638  32.3001633  39.6629448  74.3241577
  32.4405823  41.1406174  74.6203842  16.2158222  64.4230347  78.1138763
  16.2616463  64.9451065  78.9148636  17.0735359  64.0025482  78.0526505
  48.4967232   8.8766537   2.7677462  48.7541504   8.2863035   3.4758770
  49.2472305   9.4605274   2.6579175   9.7309160  18.2289715  64.1887360
   8.8294706  18.5500450  64.1654968   9.6448050  17.2782993  64.2597351
  75.2173462  22.1920338  46.7415466  75.9925156  22.7484226  46.6655655
  74.5979462  22.5566158  46.1093674  16.2695408  58.5980949  81.4674835
  15.4686422  58.5417633  80.9463043  16.9514713  58.8242645  80.8349838
  20.7998962  39.6855927   5.0882902  21.5265427  39.8797798   5.6803274
  20.2089386  39.1385994   5.6057849  36.9586906  13.3447952  14.6452045
  36.4567413  13.5993376  13.8709393  36.5737457  12.5116062  14.9169493
   4.9120960  64.7409210  34.3585320   4.4108424  64.0678940  33.8980827
   4.9291692  65.4826355  33.7537155  21.7704735  36.7020073   6.5396938
  22.0901833  37.5866966   6.7167401  22.5249901  36.1369362   6.7059093
  42.8439331   3.8690095  26.7890778  42.8038139   3.2755189  27.5390053
  42.9503555   3.2922423  26.0326080   8.0722904   5.9210835  88.5255127
   7.5586448   5.1147943  88.4775772   7.6957021   6.4014945  89.2628174
  59.5227394  36.9310532  85.6664047  59.8215179  36.9193344  86.5757065
  59.0439606  37.7556229  85.5822220  63.8692856  46.9530487  53.3997955
  63.1635551  47.2358055  53.9813690  63.7202721  46.0150337  53.2808189
  10.0325193  43.3144989  44.8019257   9.3361082  42.7597847  45.1533966
   9.5975046  43.8573036  44.1443825  45.2308044   0.3749830  65.3566742
  44.6533623  -0.0144576  66.0132751  44.8237991   0.1545400  64.5188293
  66.7816086  45.3929710  52.3736229  67.7134018  45.2048340  52.2613487
  66.6544952  45.4159927  53.3220673  35.1292992  33.5876579  88.6375275
  35.0591698  32.8009872  88.0967331  34.3321533  34.0817604  88.4460907
  17.3932114  61.4468079  38.2738991  18.0298347  61.8780746  37.7038536
  16.9547424  60.8126411  37.7066154  49.6218567  44.6185608   9.5120687
  48.9670601  44.4225922  10.1821938  49.3087425  44.1628265   8.7307262
  24.9557590  43.7717819  41.3250771  24.6946831  42.8989716  41.0313530
  25.5470276  43.6101799  42.0602760  56.9935989  47.1870766  71.1761169
  56.1509247  46.8802185  70.8415070  57.6279182  46.5494194  70.8485947
  38.4717407  20.3693027  59.2855225  37.6789131  20.1894512  59.7908020
  39.1286850  20.5966663  59.9435196  75.1738815  57.4886055  39.1640701
  74.8926773  56.6757698  38.7440071  75.1027298  58.1506462  38.4764099
  46.9193344  25.7696896  70.6250687  46.7156868  25.8934593  71.5521240
  46.9690552  26.6572838  70.2701874  62.6310043  35.8298950  27.1968365
  63.1129990  36.5327415  27.6326370  62.2517624  35.3199501  27.9126320
  45.8893661  71.1410828  19.9646168  46.0381660  72.0663681  20.1593590
  45.8187714  71.1054306  19.0106907  62.8350029  36.6293488  69.9226227
  63.1480141  36.0921936  69.1948090  63.6076088  37.1150551  70.2114258
  51.8132477  65.1172867  57.3961525  51.3339996  65.3903275  58.1784554
  51.1858330  64.5884247  56.9033203  20.4325829  40.5731316  37.9361343
  20.9546185  40.1870766  37.2328033  20.9698772  41.2936287  38.2654190
  77.8638992  54.6222305  29.4181499  77.7006073  54.5896187  30.3607559
  77.3868866  55.3963394  29.1190796   9.3061466  18.3451710   6.9064612
   8.4789104  17.9008579   6.7207246   9.4031525  18.9780121   6.1948895
  29.6281052  53.7670021  74.0688553  30.0845566  54.4375763  73.5607071
  29.7904949  54.0060768  74.9813843  45.8185158  66.6602859  42.4850044
  45.0377655  66.7342300  41.9361954  46.5296745  66.9895630  41.9354019
   3.0093913  22.9005547  84.6051025   2.5406728  22.0662098  84.6251450
   2.5343993  23.4267178  83.9618530  70.8811111   7.2675247  24.2554073
  70.6893234   7.5744963  25.1415310  70.6617050   6.3359556  24.2719116
  42.0116119  70.5074005  43.2908516  42.2323837  70.5352020  44.2218285
  41.4364967  71.2610245  43.1584702  36.6984215  67.2183533  32.0694046
  36.0208969  66.5423660  32.0846901  37.4436455  66.8207626  32.5197334
  65.7960663  34.0430222  88.5652771  66.4671021  33.4766731  88.9463196
  66.1864319  34.3632240  87.7520676  79.0783310  19.3114586  41.6656876
  79.8957291  18.8192329  41.7418976  79.1348343  19.9771709  42.3511543
  20.2614670  49.9421959  37.9142113  21.1274319  49.5346222  37.8992958
  20.4249077  50.8415718  38.1981735  12.2375069  24.8509235  88.8607941
  12.4621077  25.3263016  89.6606750  12.1390018  25.5329838  88.1964798
  50.7076492  59.8329735  20.0609226  51.6544876  59.9571228  19.9952316
  50.3589897  60.2206383  19.2581844  67.8489685  67.9257202   3.8918009
  67.4699173  68.7686005   3.6426048  68.5430984  67.7761002   3.2499030
  54.6148987   9.7349787  20.8545322  54.8693771  10.0887756  20.0023003
  55.3256187   9.9913759  21.4422092  59.0132751  35.8715019  76.3132324
  58.6965942  36.1152916  77.1830139  58.7525063  34.9561729  76.2112579
  36.3496666  52.6725235  51.1203423  36.2400284  51.7791901  50.7945061
  35.4710503  53.0505295  51.0832176  17.6610699   6.6744642  26.7491112
  18.0154743   5.9700680  26.2064724  17.7607574   7.4620609  26.2143345
  48.2274704  65.6876450  54.6524696  48.7809105  66.4121246  54.3608055
  48.7347450  65.2619324  55.3436050  51.8245049  57.7872276  77.1186905
  51.4400177  58.6637955  77.1239090  51.6116257  57.4374619  76.2534943
  73.4122772  58.1122437  19.7537193  73.0224152  58.4517555  20.5593071
  72.6838455  57.6977959  19.2912750   8.0862560  44.4221344  17.3654366
   7.8849063  45.3310509  17.5880623   9.0374641  44.4065323  17.2596455
  70.1239090  31.1821003   1.7315959  70.6723938  30.7688866   1.0647707
  69.2821732  31.3204288   1.2973391  42.9024658  66.6332169  60.5730438
  43.3758240  66.3648911  59.7855415  43.1103439  67.5622559  60.6725731
  15.4407692  61.1199875  47.3269119  14.9254398  61.5117569  48.0320244
  16.2780838  60.9006386  47.7355957  16.3466816  70.1063614   8.0783329
  15.4515333  70.3651581   8.2973499  16.8414936  70.9257126   8.0857677
  20.6126747  26.8265762  81.4391174  19.6803589  26.6136093  81.3983231
  20.8662796  26.9675732  80.5269547   5.7148151  64.3692322  54.6056328
   5.9566135  65.2789307  54.7794609   4.7634511  64.3502502  54.7094498
  42.0961723  60.0568504  48.2140617  42.7482147  59.7022514  47.6096344
  41.3117180  59.5318832  48.0550957  60.2173424  26.2830448  19.9150562
  60.0815125  26.1036224  20.8454266  60.9215469  25.6883888  19.6567669
  61.4091225  33.9233971  12.8410587  61.6408691  33.4277992  12.0556250
  62.2502747  34.1744308  13.2227364  74.6895752  51.9705849  49.4110641
  74.9728851  52.8779526  49.2985840  74.3887253  51.7041626  48.5423050
  33.7303314  55.2416725  62.2131691  33.6847343  55.2945747  63.1678162
  33.6439743  54.3080215  62.0206337  31.2685947   4.1952248   4.6548891
  31.9174156   3.8740535   5.2810764  30.5399914   4.4959693   5.1979580
  51.1800003  24.8916588   1.1947701  50.6805038  25.4553814   1.7854935
  51.7713470  24.4061890   1.7699721   0.9140471  26.0985165  21.2018795
   1.2874643  26.9422226  21.4567375   0.6396468  25.6989117  22.0272598
  65.6718979  71.2225189  68.9446487  65.3449402  72.1094513  68.7940216
  64.9661026  70.7846451  69.4204025  81.3496857  19.6303158  45.4683418
  80.9366531  19.5310478  46.3261185  80.7213364  20.1407280  44.9575729
  64.5570068  53.3387260  36.2522469  64.4129181  53.0579872  37.1559372
  64.1550446  54.2060890  36.2039146  33.4063110  66.8610382  89.2619171
  33.2765312  67.4518738  88.5200882  32.5242233  66.5708237  89.4941406
  71.4303055   7.6532383  19.0189857  71.5078735   6.7111568  18.8683262
  70.9877396   7.9850807  18.2378044  51.0488091  44.5665245  38.6680412
  50.2534943  44.8823853  39.0969200  50.7667847  44.3305550  37.7842903
  53.7626534  13.2497463  14.4102640  52.9893494  12.8862743  14.8416872
  54.2867355  12.4845390  14.1735649  23.9759331  54.1239929  16.0635166
  23.8866005  53.4173355  16.7029591  23.5900612  54.8868332  16.4941044
  21.3601418  26.5631981  15.6167679  20.6768208  26.1481857  16.1431408
  20.9095631  27.2686539  15.1525002  23.9976177  38.6495056  70.2010727
  23.3752251  38.7956352  69.4886780  23.5772266  39.0357437  70.9693985
  20.9650478  67.2416382  42.1867104  21.4559288  67.7137222  41.5140991
  21.6370888  66.8181076  42.7207603  72.4704437  51.8541298  66.3726883
  72.4178619  52.3601837  65.5618973  72.0373001  52.4031982  67.0262451
   0.2553620  64.1092834  16.3960705  -0.3952436  64.0372543  15.6976748
   1.0034745  63.6028862  16.0796432  34.4011803  56.7286339  80.3116837
  33.4726334  56.7078514  80.5431976  34.4846802  56.0946350  79.5994263
  65.1207657  43.7628822  76.1382370  65.0755768  42.8654976  75.8082504
  66.0517044  43.9832573  76.1062012  35.1224327  61.3253288  25.4099236
  34.7258453  60.5585480  24.9964008  35.3226051  61.0400085  26.3014145
  75.8439713  55.8900986  27.5365028  75.3485794  56.4874611  28.0968437
  75.8441544  56.3122864  26.6774406  23.0968208  37.1220131  83.3473358
  22.8694057  37.2887878  82.4326248  23.5609970  37.9112282  83.6264648
  43.0341568  32.9064522  44.5258675  42.1190910  32.6256561  44.5198593
  43.0951157  33.5084000  45.2676086  29.5200748  54.2768135   0.2484041
  29.8753185  53.4634132  -0.1099420  30.2862053  54.8354034   0.3797478
  76.7077179  33.2136040  75.8596268  76.7506638  32.4300079  76.4076767
  75.7715912  33.3918800  75.7695541  45.1198387  27.0885201  25.9254131
  45.9488106  26.6116314  25.9655838  45.1144638  27.6266022  26.7170391
  44.1219940   2.6046333  77.3353119  44.0660248   2.9020991  76.4272308
  43.6181717   3.2505856  77.8304291  44.2294884  19.7581387  15.2931080
  44.7259216  20.3016033  15.9050179  44.2623444  20.2380486  14.4655590
  39.6348190  59.9310532  30.1163464  39.1744080  59.7537651  29.2960911
  38.9756050  59.7911034  30.7961140  85.2625809  33.1051674  48.2029114
  85.9011230  32.5259171  47.7870216  84.5296936  33.1346092  47.5879059
  14.4898310  59.9512100  77.7023392  13.6767807  60.1646118  78.1602097
  14.8783789  59.2461624  78.2201920  80.9556885  50.0187874  51.5533485
  81.7528763  49.7455788  52.0073051  80.8801651  50.9538269  51.7436905
  55.2638626  39.3274841  22.9373741  54.7170982  40.1002617  23.0791359
  55.1843414  38.8257294  23.7486382  44.6673203   8.4185257  86.1767197
  45.2955856   8.5541258  85.4674072  43.8109665   8.4895029  85.7549973
  71.9782639  27.7743874  40.6132469  71.9499207  27.2134266  39.8381653
  72.9060593  27.8160248  40.8449707  85.3002472   8.9292965  36.8094940
  84.6709061   8.4761457  37.3705826  85.8516235   8.2314081  36.4557076
  42.2102165  63.8480721  29.0447350  42.2892532  62.8952980  28.9977245
  41.3645897  63.9976883  29.4675350  34.6141014  26.6661816  88.3430939
  34.4742928  27.1776104  89.1400452  34.2160835  25.8161926  88.5310669
   2.9590950  64.8981552  76.6741791   3.6346574  65.2143402  77.2740707
   2.1830690  64.7884979  77.2237167  33.8370819   2.0834112   2.6363831
  33.8769035   1.3030164   2.0835445  32.9395218   2.4011111   2.5379596
  29.8070259  38.8319206  63.1861076  30.5589886  38.4426956  62.7396927
  29.5284958  38.1641121  63.8127518  30.6263123  69.4238281  68.4835815
  31.3652058  68.9865723  68.9067535  30.2986794  70.0339737  69.1443481
  53.7962875  67.7855606  12.4196930  52.9302711  67.6459885  12.8027954
  53.9486618  68.7263718  12.5084581  35.3278503   5.0801005  42.6813431
  35.1890221   5.4118524  41.7942696  34.9661484   5.7594457  43.2504578
  75.2602921  27.0611229  45.3971176  75.4200287  27.8353767  45.9367867
  74.5296936  26.6162853  45.8267517  38.5549469  14.9912453  66.0694275
  38.6023636  15.7579546  66.6405106  38.0544662  14.3486528  66.5722427
   0.3517618  61.9159164  64.2802429  -0.1245159  61.7194939  65.0869675
  -0.0447256  61.3442650  63.6227875  76.8996277  45.2544479  60.6032562
  77.1430969  44.9401817  59.7325172  77.7342606  45.4479866  61.0300674
  53.6781120  27.0374527  14.6477308  53.0827370  27.5090656  15.2302637
  54.1655464  26.4514771  15.2267551  53.3246307  34.5528603  20.7370968
  52.6438599  35.1385727  20.4058399  53.1561317  33.7182503  20.2997570
  53.9115067   9.5729046  58.5522881  54.5355835   8.8473082  58.5686646
  54.3839149  10.2854643  58.1217995  72.4777832  40.5967598  42.8770294
  72.7312012  41.1639252  43.6052704  73.3038406  40.2338104  42.5574379
  58.4077148  38.8189735   5.0654116  59.0099564  38.5164108   4.3857107
  57.7959328  38.0924187   5.1840649  13.5600529  64.0014191  54.1785126
  12.8685455  64.3151779  53.5957565  13.8227654  64.7752991  54.6768341
  23.8661785   2.5945804  10.8095407  23.9682178   2.9181049   9.9144707
  22.9406624   2.3593173  10.8751326  41.2220726  25.6360588  78.4964905
  41.2083588  24.8681412  77.9252243  40.4756775  26.1618404  78.2089462
  43.5684357  45.4092751   7.8568845  42.8471298  45.2797356   7.2411160
  43.4722748  46.3149757   8.1513128  14.5024548  39.0009575  37.0390320
  13.6063318  39.2412415  36.8035316  14.6704350  38.1948929  36.5508957
  51.7769890  33.1350365  11.0923443  52.5843086  32.7055664  10.8094654
  52.0696907  33.8334427  11.6778250  73.6525574  49.8391685  51.0127296
  72.7102661  49.8798180  50.8494492  74.0110245  50.5866394  50.5341721
  76.4335785  31.7821884  59.9548416  75.5262527  31.6720181  60.2391891
  76.4497757  31.4314442  59.0643654   8.6492519  33.3648529  41.2548141
   9.1062908  33.2840385  40.4176674   8.5412760  32.4629745  41.5567894
  74.7131424  48.7529793  53.2034721  74.0755157  48.0983849  53.4883690
  74.2880096  49.1983528  52.4705734  29.7901344  52.2115364  16.2693558
  30.3112488  52.9757538  16.0230923  29.0775166  52.5683250  16.7995529
  66.5974274   9.7797737  23.3166809  67.4675903  10.1646738  23.4211159
  66.7324371   8.8419733  23.4528255  15.9505529   7.3537068  80.7727432
  15.3860769   7.3052964  80.0012207  16.0725479   8.2913256  80.9218063
  57.5436325  30.5541954  18.9946651  58.1410141  31.2176456  19.3399239
  57.7670212  29.7572613  19.4755268  62.5252838  30.6191616  75.1806641
  62.4100113  31.5514870  74.9970474  61.6453819  30.3056355  75.3897095
  41.3924789  62.3678474  32.6429329  41.4373322  63.2700005  32.3261757
  40.5835152  62.0216522  32.2661552  36.8402596  70.2809448  35.8283806
  36.4523354  70.6253433  35.0239296  36.5398331  70.8777924  36.5137634
  47.3443794  55.3977242  24.8830032  47.8406219  54.5792923  24.8950977
  48.0017662  56.0785599  25.0262985  18.3086090   2.0268438  24.4168758
  17.3734875   2.2022831  24.3119907  18.7373486   2.8321481  24.1272221
  17.3165970  63.2528496  40.3219109  17.1306992  62.4328537  40.7793808
  17.2068443  63.0402527  39.3950920  60.6521721  25.7108212  33.7541733
  61.0924225  25.7430992  34.6035080  60.1051369  24.9265385  33.7976036
  41.0106735  26.5466576   6.9897647  41.6806068  25.8826027   6.8271213
  40.4197197  26.1404247   7.6237822  23.6170006   5.1658974  76.1524048
  22.9882603   5.0361457  76.8623886  23.0856953   5.1513634  75.3563309
  30.5878868  14.8253269  76.3034439  29.8486176  14.2379417  76.4605713
  30.4941349  15.5106306  76.9651108  84.7830963  58.5845222  72.4472504
  84.5609741  57.6589966  72.5487213  85.6694794  58.5798874  72.0859451
  47.0821686  64.8783951  23.9729156  47.6967430  65.2706604  24.5931244
  46.9782829  63.9766006  24.2765732   0.8250736  22.4780102  32.7130051
  -0.0883240  22.2593384  32.5282898   0.9467207  22.2415695  33.6325302
  39.9504738  31.7931023  16.0837383  39.1805992  32.3287239  15.8923388
  40.6477890  32.4271393  16.2510204  81.8218231   7.6006813  76.8637238
  81.5284882   8.4254694  76.4765396  82.6169968   7.8310666  77.3441925
  58.8028755  57.5530548  36.0638733  58.7716751  57.3871994  35.1216698
  58.6782913  58.4986496  36.1448669  59.3073540  32.1931229  19.9597626
  59.2077293  33.1253624  19.7668037  59.9260941  32.1643715  20.6895332
  51.6946983  15.1620798  54.1677704  51.7640648  15.7278547  54.9367409
  51.8611259  15.7441664  53.4263458  76.1348572  61.3955345  81.3746948
  75.2187500  61.5885353  81.1753616  76.5850525  62.2333641  81.2670212
  61.1566391   7.4653211  37.8998184  61.4236031   6.7054462  37.3825645
  60.2124405   7.5321698  37.7575264  24.1071129  62.2586899   2.8410516
  23.5347786  61.6455956   2.3797696  24.3219643  62.9239769   2.1872447
   3.3487880  29.7626228  56.4797478   3.9802794  29.6561413  57.1911659
   3.3756468  28.9296303  56.0089684  42.5524139  51.3588600  83.6261215
  42.9315376  52.0983963  84.1010666  41.7204666  51.1910667  84.0687790
  58.7795029  46.0737114  67.1803436  58.1162720  45.4159813  66.9711914
  58.8679733  46.5881958  66.3780289  77.4469833  27.3318901   2.2638650
  77.6502533  27.7879677   3.0805087  77.8336639  27.8798218   1.5808734
   7.3099022  58.8036232  70.4751740   6.6901636  58.9299240  69.7566986
   6.7678895  58.8163261  71.2640305  65.3122253  31.4431248  26.6819401
  64.4955368  31.3483772  26.1917686  65.1445465  32.1632500  27.2898350
  19.0884647  -0.0767353  19.7673836  18.1428528   0.0667329  19.8056793
  19.4522152   0.5580319  20.3846264  67.6001968  11.6720877  60.6021576
  68.0823975  12.0694942  61.3272667  66.6799393  11.8366013  60.8078003
  40.1057739  18.8624401  12.1197195  40.0921097  19.3314056  12.9540558
  39.3590813  18.2655067  12.1682339  46.2338104  58.2020874  29.2388973
  46.4138756  57.8554573  30.1127701  47.0190201  58.7004852  29.0124454
   0.9265079  52.7956772  21.9740410   0.4827461  52.1297417  21.4488411
   0.7243777  52.5604553  22.8796062  63.1725044  10.1295652  32.2695961
  62.7734222  10.5391970  31.5020256  63.9437790  10.6658173  32.4534569
  30.9900818   6.3639669  22.5981522  30.7212677   5.5965672  23.1031952
  31.8583813   6.5816441  22.9371223  50.4368782  62.3404388  13.9581232
  50.4368858  61.3902435  14.0737209  50.7138710  62.4713936  13.0512838
   1.6882913  25.3402481  88.5968628   1.2695726  24.6779900  89.1466980
   1.5571277  26.1620350  89.0698318  20.7390347  20.1550064  15.9882174
  20.5253620  20.8720474  16.5852356  19.9531498  20.0471230  15.4525137
   2.8658440  48.7192383   1.5537027   3.5160768  48.6719627   2.2545550
   2.0230563  48.6828156   2.0060458  56.9694862  48.7922668  67.6239777
  56.2600288  48.1843414  67.8321228  57.7686234  48.2828331  67.7584686
  64.9363556  35.9029846  44.6188812  63.9928169  35.7470093  44.5784569
  65.1053009  36.5325165  43.9178963  66.3720703  70.3710251  83.8675232
  66.0156479  69.7326660  83.2497101  65.6015625  70.7584686  84.2827835
  60.7695885  59.5704231  55.6694069  59.8725281  59.2570572  55.7847862
  61.2992897  58.7737999  55.6371307  59.3783188  66.5433960  88.6972580
  59.2193718  66.5993958  89.6395035  58.6203499  66.0700760  88.3542099
  75.9429321  27.0356712  54.7750854  76.3672409  27.8768253  54.6057968
  76.6639328  26.4072914  54.8141899   8.2883797   8.5776100  22.4499969
   8.4462290   9.5083952  22.6079655   8.5702105   8.1465702  23.2568474
   4.9681301  48.2013626  50.5085411   5.5120568  48.0650978  51.2843056
   4.3800082  48.9165955  50.7510071  43.3226929  27.7291527  41.0451431
  43.4998703  27.7484512  41.9856033  44.0394592  28.2302361  40.6560516
  76.2597122  59.3718224  73.5715485  76.1224518  59.3997536  72.6246567
  77.0626068  59.8736687  73.7120819  11.4397449   2.5062697  81.3283997
  10.5790253   2.6121187  81.7336044  11.2738810   1.9763583  80.5487061
  75.5805130  15.3779917  64.4694214  75.6163712  14.6121159  63.8963814
  75.1860962  15.0532293  65.2788620  42.0921974  61.4759712   2.9419982
  42.4321823  62.2007141   3.4667747  42.6139336  60.7199593   3.2112005
  27.8474579  40.2888145  13.8819666  27.8891354  39.3345528  13.9442596
  27.1231899  40.4581032  13.2794628   5.6265082  58.9712257  67.3092880
   5.3778548  59.8611412  67.0593796   4.8130727  58.4700356  67.2513046
  27.7021751  56.6989784  54.7584496  27.4681416  56.8205261  53.8382950
  28.1087551  57.5271263  55.0135880  11.4255381  48.3877831   5.3379374
  11.6883783  48.5423203   6.2452774  11.3035831  49.2635841   4.9714274
  84.9897461  28.3370667  74.7416458  84.1149216  28.7124901  74.6418457
  85.2605438  28.5918903  75.6236725   1.0894221  49.2770119  56.2662659
   1.6053256  49.5938606  57.0076714   0.2688791  49.7671204  56.3185616
  68.3797379  13.9700146  88.6321869  67.9717712  13.5483227  89.3884735
  68.7941360  13.2527056  88.1526337  63.5724792  58.3325462  29.4998932
  62.9478378  58.4258957  28.7806263  63.0710526  57.9143257  30.1998177
  58.5285568  66.4362717  80.6372452  57.6059799  66.6801376  80.7121811
  58.7452621  66.0546188  81.4878998  59.0116501   5.4428487  65.7681427
  58.5072708   4.7621241  65.3226700  59.9254112   5.1966777  65.6243668
  71.8351517  52.4487953  58.2327118  72.5517502  52.0085220  57.7756844
  71.3195343  51.7369156  58.6116562  11.4775944  48.6751747  76.1182632
  11.1564255  49.3938980  76.6627960  11.9166126  49.1073990  75.3856812
  37.8924370  54.3273773   2.2605104  37.3718071  53.8814697   2.9285994
  38.4887505  53.6541786   1.9327302  52.3026619  20.4430580  40.6509781
  51.6339912  20.4534378  39.9661407  52.9545975  19.8151188  40.3396797
  71.9284744  28.2620850  53.7126198  72.2516403  28.8519173  54.3937187
  72.4284439  27.4554253  53.8373642  56.3641472  24.5107803   3.9126358
  56.0980835  24.9429512   3.1010504  56.7090874  25.2174873   4.4583602
   8.6282701  59.9162788  44.0972748   7.9731841  60.6094093  44.0156479
   9.3800631  60.2374077  43.5993614  70.0449448  33.0535927  76.5118561
  70.0159607  32.8640633  75.5740509  70.5832443  32.3535423  76.8811646
  16.8616199  47.6533508  13.0410357  17.2877331  48.3547821  12.5484381
  16.2932281  47.2231636  12.4022064  71.7110291  63.4874420  54.1644211
  72.3674622  63.1776619  54.7884140  71.3206863  62.6881638  53.8108406
  60.6708412  57.0094604  82.3661346  60.2188301  56.9882164  81.5226440
  60.0464134  56.6263428  82.9822006  84.3875885  71.5054016  48.2116089
  85.1307373  70.9612427  47.9511223  84.2717972  72.1167679  47.4842453
  64.8604965  13.1864023  16.8554401  65.7812042  12.9978466  17.0370483
  64.4947281  12.3471336  16.5760250  68.5767670   5.5133185  77.6424179
  68.4146271   6.2648287  78.2126617  68.7539368   5.8978739  76.7839584
  35.2885323  50.7010574  48.9255180  35.0923500  50.0549850  49.6039963
  35.6726723  50.1906586  48.2126656  11.6420946   7.3231077  70.0235748
  11.1801424   6.5336990  69.7413177  12.4138432   6.9965181  70.4861450
  57.9366302  18.0676117  25.3948879  58.6633949  17.6642666  24.9201736
  57.8498802  17.5429688  26.1907883  17.2430992  55.9240913  80.7027893
  17.0167942  56.6709862  81.2570114  18.1894283  55.8258820  80.8078918
  47.5970039  63.0229378  10.1061430  47.0506134  62.2455902  10.2220001
  47.2972107  63.6294975  10.7832279  39.8536186   0.4931792  72.6998825
  40.3899078   0.5089323  71.9071808  40.4787521   0.6150239  73.4144440
  22.2023544  55.3376465  79.0742722  22.9168129  55.6383286  78.5126953
  21.7236004  54.7073669  78.5359573  28.2519035  45.1598663  34.7781410
  28.0172443  45.1349258  33.8504868  28.4357071  44.2478638  35.0033073
  35.8787422  70.7083435  82.9284821  36.7493019  70.8133926  83.3123093
  36.0306015  70.2168274  82.1212692  82.3015213  41.4485397   2.7725289
  81.8525085  40.6483116   3.0450323  82.9930954  41.5686073   3.4233260
  54.6220322  70.7661896  68.1167908  55.0122414  70.9301071  68.9753418
  53.9287949  70.1283722  68.2866058  17.1350021  61.2138901  42.1353951
  16.7430019  61.4972267  42.9614029  18.0294399  60.9645386  42.3678513
  12.5994864  42.9160805  82.5452499  12.5124168  43.3798904  83.3780289
  11.7080650  42.6423645  82.3291931  19.8177052  71.0983429  61.7680397
  19.1692009  70.6779099  61.2033157  20.5954685  71.1844330  61.2167625
  43.2718735   3.1332688  70.1518250  43.6571274   3.0415015  69.2803955
  43.1429176   4.0757070  70.2586517  22.8199329  12.1924438  82.5451813
  22.2602348  11.4167728  82.5812912  23.3746510  12.0520163  81.7778473
  43.9929008  24.6392937   9.4335794  43.4991837  24.4209785  10.2240305
  44.8279953  24.9761677   9.7581835  30.2821712  50.3001480  25.0217266
  29.3802891  50.5611191  24.8353577  30.2189846  49.7712402  25.8170223
   7.9579668  29.6220245   8.0665627   7.0301914  29.3866215   8.0594931
   8.1795101  29.6949005   8.9949160  32.9504471  25.2832489   6.7568460
  33.6561432  25.9033928   6.5734248  32.9264832  25.2232933   7.7118659
  61.5855408  67.9468460   9.8788214  61.0884552  68.7510986  10.0282097
  62.3493843  68.0278091  10.4499760  48.2606926  65.1913681  80.8100281
  48.1108475  65.3670120  81.7389679  48.9094887  64.4876556  80.8009491
  80.9616241  51.2323074   8.1767159  80.5007629  50.3933830   8.1830521
  81.1296463  51.4062920   7.2505789  10.2930346  23.9975681   6.7522993
   9.7153254  24.0961304   7.5091147  10.6136894  24.8826313   6.5788770
  71.1480026  46.0756493  77.5760040  71.8472672  46.6803589  77.3278427
  71.5804596  45.4218979  78.1253815  85.5369186  70.8490372  81.1450500
  84.9606247  70.2281723  80.6993561  85.4972000  70.5935593  82.0666733
  60.6792183   4.6258759   1.8450378  59.7776451   4.4552045   2.1175678
  60.8794899   3.9234192   1.2264289  77.8847504  55.8176804  37.0805893
  78.7948837  55.5227432  37.0505714  77.3760986  55.0142479  37.1901474
  35.3714600  20.4981823  80.2929306  35.7112198  21.1066456  79.6367569
  35.7146721  20.8261261  81.1241302  23.7772503  52.6348114  41.4916840
  23.3133183  53.4216881  41.7777290  24.7001114  52.8272476  41.6575928
  28.6844425  52.1364708  13.1910362  27.9038773  51.5876007  13.1155834
  28.8932285  52.1288300  14.1251574  77.8027725  38.8535805  62.4220657
  77.8512039  39.4319954  63.1831970  78.1733170  38.0252686  62.7267418
  80.2709503  27.3162117  37.8581085  80.8291550  26.5464878  37.7478561
  80.8795547  28.0261211  38.0627022  53.4130821  49.5849457  30.6217632
  54.1254311  50.1221809  30.9684219  52.6812592  49.7438889  31.2179203
  63.7637558  30.8390331  72.3289108  63.8816986  31.7760830  72.1731644
  63.9020004  30.7334213  73.2701721  65.1394653  71.2067337  54.9526176
  64.6667023  71.2631226  54.1222305  65.9695129  70.7864685  54.7276001
  77.3646240  47.6132774  49.4360352  76.6240540  47.0244789  49.2907600
  77.7275925  47.3383827  50.2780113   0.9590840  54.3094940  55.5734444
   0.7362485  53.5630531  55.0172081   1.9160293  54.3315582  55.5726395
   1.3095615  14.2600183   8.7080727   1.6686490  14.0770578   7.8398485
   0.4212777  13.9045238   8.6796589  62.9647179   3.4937084  30.3837090
  62.5215073   3.2028723  31.1807098  63.8339920   3.7651625  30.6785107
  51.4998512  31.6063061   6.0215249  51.5159340  30.7265549   6.3983703
  52.1915054  31.5961361   5.3599033  19.9064999  56.4626465  68.9475403
  20.3879776  56.3903999  68.1234055  18.9869614  56.3763657  68.6960678
  31.9623585  42.6861992  62.4651413  32.6916122  42.3609886  62.9930229
  31.2657795  42.0430489  62.5969200   5.1772251  57.4384117  13.8710432
   5.4802213  56.5411797  13.7317762   5.9128585  57.9851799  13.5951424
  38.2775536  33.2225647  74.3684158  38.2457275  33.6206474  73.4985046
  37.3897438  33.3249092  74.7112732  62.9675331   4.7783356  62.4154587
  62.3286934   5.4679823  62.2351799  62.5237007   3.9687400  62.1628685
  59.9789543  58.3759727  38.7974777  59.2344666  58.3420410  39.3981590
  59.9660645  57.5288620  38.3519783  40.2396469  56.1335220  37.6796417
  40.0506363  55.6450615  36.8784485  40.5202827  56.9960213  37.3737488
  59.1776237  61.2403603   3.2741828  59.3571815  61.3651733   4.2060690
  59.7057838  61.9082642   2.8369412   2.8102803  51.0277824  18.8646564
   3.0895138  51.5501137  18.1127052   2.0440085  51.4891815  19.2054958
  47.1391487  56.4183311  53.3856049  47.2118950  56.2694244  52.4428596
  48.0026016  56.7402191  53.6445732  49.8959770  57.6197929   8.9158745
  50.0897293  58.5413513   9.0874090  50.7242126  57.2548866   8.6042662
  33.0632286  24.1525879   4.3724766  33.1292038  24.1779747   5.3270626
  32.7312584  23.2759895   4.1785645  72.2619171  69.0796127   3.2892954
  71.6773834  68.3294601   3.3980522  72.0677719  69.4093094   2.4118922
  72.9609909   0.4039107  86.1656647  73.1340408  -0.4895158  85.8688889
  73.8070221   0.8466132  86.0987549  78.1815796  25.0798473  64.4987640
  78.4251785  25.9764099  64.7291260  77.2592316  25.0113773  64.7453613
   2.5327964  60.7120667  67.8515091   2.3245518  61.6218987  68.0637970
   1.8326726  60.4380722  67.2590714  58.3792229  26.2673588   0.0365677
  58.4006233  26.4037495   0.9837589  58.2052040  25.3318062  -0.0668278
  15.8307352  11.8345308   5.2921829  14.9481621  11.4688473   5.2324181
  16.3226833  11.3866301   4.6039939  41.3627892   7.8840561   7.8541608
  40.4325180   8.0266247   8.0288105  41.7991867   8.6383247   8.2502260
  36.4422760  52.1229782  71.8548203  36.8861389  51.2899857  72.0140076
  37.0746918  52.7874451  72.1282501  65.0305557  63.9364738  15.3783884
  64.1766968  64.1858444  15.7318878  65.2113724  63.0817528  15.7695312
   2.6879053  16.9289074  22.3294525   3.6378682  16.9726162  22.4385014
   2.3981175  16.3099346  22.9996223  30.6929188  71.2561798   5.7977505
  31.3434296  71.6455536   6.3820944  30.8596954  71.6640167   4.9479933
   5.8051052  24.7597103  50.8220291   5.3182969  24.0048199  51.1527710
   5.3297744  25.0249748  50.0346756   2.8332181   6.4521685  53.6347847
   2.1790340   6.0105038  54.1762695   3.6511552   6.3583727  54.1230583
  42.1144981  53.6257095   3.1819358  42.7959785  52.9977608   2.9421570
  42.1126289  53.6232796   4.1391311  17.8673325  48.9401779  75.1952057
  18.2074642  48.1686478  74.7421265  17.8114300  48.6737747  76.1128845
  27.4592247  37.8803062  70.8792648  28.3133087  37.4525528  70.8176346
  27.5935917  38.5948677  71.5018234   0.7244529  20.8279915  41.4096031
   0.7321351  21.7582588  41.6349335   0.5847214  20.3805504  42.2441711
  71.7021027  18.5253944  85.8590088  71.2712097  18.5161762  86.7136917
  71.4411392  17.7001171  85.4503021  33.3864174  52.5165939  33.3250275
  33.1844444  51.8846245  32.6350632  32.6474037  53.1248817  33.3164787
  75.5858154  45.5543861  49.8331680  75.1359329  45.9633331  50.5724907
  75.6667862  44.6335640  50.0816879  56.3577995  39.2598000  55.2771721
  55.9107780  38.5027008  54.8987541  57.1260376  38.8910904  55.7131729
  74.8164749  51.6366577  12.2722769  74.3829498  50.8751640  12.6575298
  74.9223251  52.2467537  13.0022163  55.8939056  26.6828747  62.7134552
  56.2033539  25.8851376  62.2844009  55.6203346  26.3956127  63.5845871
  41.6792564  48.1599960  41.9607887  42.1233978  47.4998055  41.4286995
  40.8027229  47.8027534  42.1032524  14.5074987   1.7321868  22.3403721
  14.8774080   1.7735707  23.2222385  13.6532536   1.3167249  22.4582195
  73.0323029  15.0787745  57.7400665  72.8573074  14.1717062  57.9907379
  73.9419174  15.2274256  57.9983788   6.0663939  59.1263618  63.5615463
   5.1791782  59.4609680  63.6923866   6.5769439  59.5177841  64.2703171
  23.4291000  63.9152336  34.3490753  23.8453255  64.4777985  33.6959991
  22.6908207  63.5178413  33.8872795  53.0453873  37.8766251  29.6127453
  52.3933983  37.3839226  29.1143627  53.8285675  37.3266983  29.5918484
  61.0631485  -0.1258050  19.8107300  60.1260719  -0.0526802  19.9917488
  61.3433914   0.7718940  19.6323109  59.7852135  37.3777313  16.1391926
  60.0624313  38.2924042  16.1916676  60.5895500  36.8757591  16.2707176
  62.5783768  51.3315697  28.0526466  61.8429527  51.0229149  27.5233822
  62.2966957  51.1945152  28.9571381  33.0793571   0.8704908   9.9622011
  33.9485855   1.2707324   9.9402876  32.6555023   1.2600641  10.7269316
   6.3048496  69.7073975  18.7215500   6.2452965  69.3292694  17.8442211
   5.9528513  70.5923080  18.6253662  34.5307121  49.2101021  27.6776733
  34.3372231  48.7705307  26.8496799  35.3971977  48.8863907  27.9239330
  78.0569382  65.6916809  33.3458366  78.2917175  66.0564575  32.4925766
  77.0998306  65.7012711  33.3552704  36.1386452  48.5415535  71.2067184
  36.1136971  48.6031837  72.1616058  35.3527412  48.0452347  70.9781342
  67.4891434  32.4440041   1.4309015  66.6498108  32.1633453   1.7955676
  67.8537445  33.0310631   2.0932148  33.2248650   2.8247175  87.8516846
  33.7107811   3.6436338  87.7542496  33.8682747   2.1408565  87.6656952
  21.9972019  16.6582966  70.8186646  21.3935318  16.4910278  70.0949020
  21.4540634  16.5910873  71.6039810  23.7463665  65.0040970  64.9313812
  23.2641544  65.7322922  64.5396805  24.0012341  65.3236160  65.7969284
  77.5788879   8.6466627   0.5979095  76.9983749   7.8874078   0.5453006
  77.8778229   8.7823572  -0.3012322  52.5612602  14.1759195   9.7775440
  52.0087090  14.5680027   9.1013861  51.9500580  13.7010489  10.3407154
  71.5979996   7.2977982  35.0147705  70.9108353   7.9437118  34.8509598
  71.7363663   6.8751059  34.1671753  27.5796432   4.4760580  20.8986492
  26.6438751   4.6773796  20.9049778  28.0080013   5.3248501  21.0095253
  51.8120384   0.9680497  76.9237137  51.2760010   0.9289442  77.7157822
  51.8884430   1.9027621  76.7321243  73.6919556  23.4662342  52.0517159
  73.4514160  22.7253551  52.6080170  72.8630829  23.7622757  51.6754684
  60.2684822  -0.0364424  27.1186504  61.0086250   0.2996830  27.6240597
  60.0696487   0.6601247  26.4929581  42.1062241   6.5052538  86.3369598
  42.6559715   5.7592082  86.5765991  41.6223564   6.7127767  87.1363602
  56.2561836  52.5850906  18.2714672  56.7954292  52.9836540  18.9545460
  56.8570213  52.0109329  17.7965260  30.1517124  48.1352768  52.5683594
  30.6656017  48.7123451  53.1332855  30.8045063  47.6127052  52.1025162
  39.7936211  15.2629080  73.5740891  39.8888931  14.4000263  73.1708679
  38.9830894  15.6122265  73.2036133  39.9019661  51.6466866  36.9603767
  39.2350273  52.3331871  36.9724426  39.5295792  50.9606934  36.4063225
  71.2803574  24.7508659  46.3954887  71.1000595  23.8578415  46.6891441
  70.9294815  24.7858067  45.5056038  43.6426239  37.9531288  18.7857475
  42.7131424  37.9134369  18.5605431  43.9950142  37.1110382  18.4977665
  68.3889542  25.3713322  74.2362595  68.0085373  26.2126350  74.4886932
  67.9136276  25.1216602  73.4438248  84.9803848  13.3634987  46.4972496
  85.4152908  13.4999104  45.6555367  84.0528641  13.2783422  46.2765846
   9.4929924  26.4973259  84.5373535   9.0478363  25.6499481  84.5330353
   9.2627716  26.8931026  83.6967621  75.7372971  16.5513363  40.8940620
  75.6914902  15.9970856  41.6731262  76.5220566  16.2534657  40.4340096
  74.0008392  66.0245361  49.7419357  74.7445450  66.1501846  49.1525803
  73.3188629  66.5982590  49.3926735  78.4570007  64.6826782  47.3177109
  78.1030655  63.8156586  47.1196175  79.3323517  64.6782379  46.9304619
  85.2248688  20.0945206  29.1877556  85.3470764  19.1451588  29.1852131
  84.3224640  20.2206287  28.8944950   3.6574616  15.1879435  64.3114090
   3.4102485  15.7737141  63.5958748   4.1977930  14.5162916  63.8952866
  31.9096909  61.8454132  73.8925095  31.2656937  62.3471146  73.3927078
  32.5552254  61.5690536  73.2420120  56.7687798  43.5654030  62.6506042
  56.0327339  43.6408539  62.0433350  57.5132675  43.3307495  62.0966110
  33.9904671  42.7179337  29.7960072  33.6661263  43.0842934  28.9733181
  34.8352661  43.1467590  29.9325867  81.7590485  31.4482918   4.2660146
  81.3406601  30.6210003   4.5042892  82.3180237  31.6581993   5.0141549
  85.0899048  50.8145180  39.8571053  85.7171631  51.2725868  40.4165306
  84.3202515  50.6898384  40.4123650  76.2374802   7.5405526  19.2378540
  76.5357437   7.4897494  20.1459770  75.6278305   6.8085165  19.1446800
  44.3294792  66.1498413  19.2299843  44.9737930  66.7937088  19.5241280
  43.4830322  66.5483551  19.4323349   2.2423134  70.1881866   6.6612015
   1.7402415  70.9694290   6.8931894   1.8005017  69.4742737   7.1209450
  40.9426498  27.0115108  40.4270477  40.4814873  27.8282642  40.6180229
  41.8458176  27.1776276  40.6970863  41.1742516  22.7970772  16.0539494
  41.8556900  23.1013317  16.6533699  41.3864365  23.2137871  15.2187471
  62.8178177  28.0087852  64.5960541  63.2219772  27.2545090  65.0249481
  62.9847717  28.7402115  65.1905060  77.3344040  71.3993683  78.8155975
  77.5597610  70.4717178  78.7455444  77.9053268  71.8330994  78.1814423
  62.7781258  30.1807404  86.0833435  62.5812645  29.2857113  85.8069382
  62.1732712  30.7254620  85.5796967  61.5372543  28.7583523  38.1821022
  62.3138008  28.2839355  37.8852234  61.7609901  29.6815491  38.0642738
  17.7680531  22.2533722   2.1204817  18.5343246  22.1092453   1.5652457
  17.2118568  22.8439770   1.6124827  62.3103027  35.5448647  38.1060410
  63.1984291  35.2034073  38.2103004  61.7456932  34.8529167  38.4505043
  85.4949722  39.4538383  72.5645065  85.6605759  40.3960266  72.5975418
  85.8191605  39.1836548  71.7053528  42.9797745   0.3904121  59.7750702
  43.0316124   1.2011341  60.2813072  43.5878830   0.5228587  59.0478172
  75.8612289  55.9110336  41.9396935  75.5265503  56.5237389  41.2848511
  75.3699036  56.1181107  42.7346497  76.3547134  19.0028801  74.9312973
  76.7994919  19.8482418  74.9926529  75.4253769  19.2248249  74.8737411
  30.8799152  62.9391251   3.1342576  31.5573578  62.5152473   2.6073499
  31.1224823  62.7428055   4.0391617  25.8423195  33.6596565  19.1610241
  26.7334213  33.3594666  18.9819832  25.6044159  33.2278252  19.9814854
  79.2276230   7.0479817  64.3455276  78.8365479   6.2171803  64.0752335
  79.9514008   6.7965727  64.9192657  47.7527962  53.4016800  50.3262482
  47.6660271  53.8536148  51.1655693  48.2156258  52.5908890  50.5375175
  36.4720802  57.9738846  39.1433678  36.8574486  58.3138351  38.3358078
  36.3592224  58.7456207  39.6982727  67.8192825  18.7308826  68.9755859
  67.6262131  18.0898628  69.6597290  68.7557220  18.9059200  69.0687561
  16.6426563  40.8083839  46.9522476  15.6904984  40.8876610  46.8944244
  16.9620361  41.7087440  46.8923759  21.9853535  11.6595488  11.6700535
  21.0889816  11.3257856  11.7068233  22.4120617  11.1265459  10.9991884
  71.5939331  34.1787415  41.6812630  71.7345963  34.1880722  40.7345009
  71.9095688  33.3197403  41.9618454  39.5614510   2.7844312  38.5724373
  40.2509613   2.6573865  37.9207726  39.0529518   3.5249498  38.2418442
  84.5435410  17.4889965  72.2768478  84.0489273  16.7033844  72.0436020
  84.1285858  18.1909237  71.7755127  64.4875793   9.6238575  80.8007126
  63.8060570   9.3560219  81.4171753  64.1397629   9.3864384  79.9411316
  77.1175079  37.8642120   5.7366505  77.1420898  38.1354713   6.6542811
  76.6397552  37.0348053   5.7447877  74.5954208  59.2899017  26.3177013
  74.4695129  58.9133530  27.1886730  74.6464081  60.2335625  26.4698219
  63.1879807  44.9298744  74.1910629  62.7024803  44.1164970  74.3286819
  63.9615135  44.8443069  74.7483444  77.5599442   3.3633933  39.3607559
  77.9776001   4.2137909  39.4972076  77.6675644   3.1910300  38.4253769
  79.5212173  55.3110352  86.8910446  79.8858185  55.8757782  87.5724792
  80.2642059  55.1134758  86.3208008  86.4252243  20.3228531  43.9824791
  86.2301865  19.4068699  44.1803894  85.6576843  20.6327057  43.5017509
  28.3185844   9.0400648  82.7474365  27.9027882   8.3568802  83.2733688
  27.8187428   9.8320789  82.9451752   7.9745078  30.9352398  41.6916656
   7.9497848  30.4675140  40.8568916   8.3409395  30.3028603  42.3097725
  52.2045784  60.0089645  89.0034866  51.7460365  59.2372513  89.3357925
  52.8555717  59.6576500  88.3960190  43.3317909  10.5154676  20.3523426
  44.0470200  11.0443583  19.9988575  42.5833473  11.1116037  20.3784866
   9.8701124  63.5382919  82.1196899   9.2779684  63.5070000  82.8711014
   9.7656059  64.4228134  81.7690659  28.2397614  39.7550163  77.7796783
  27.7259865  38.9500771  77.7137833  29.1206112  39.5000763  77.5051956
  39.3778496  29.7953606  43.2766647  38.8901558  28.9729118  43.3209686
  39.3774261  30.0243015  42.3472443  66.4541702  12.3058443  53.8101578
  66.5334320  13.2362785  53.5998192  66.8899307  12.2138615  54.6574364
  28.6522408   0.6412464  79.8090668  27.7020016   0.5672677  79.8974228
  28.7795238   1.3433840  79.1710739   8.8207998   2.9058697  22.8064175
   9.5090122   3.5356901  23.0207100   8.6049175   2.4932196  23.6426868
  29.0078831  15.6861877  13.7772017  28.3274460  16.3500423  13.6652441
  29.7966042  16.0877895  13.4126959  10.3771286  67.4032669  24.6448097
   9.9266796  67.7826080  23.8902035  11.3052454  67.5659332  24.4763737
  35.8090553  69.5613174  39.5642662  35.2255058  69.4529190  40.3152313
  36.6866608  69.4249115  39.9212494  70.2554092  71.1966171  48.8960419
  69.4700851  71.2979736  49.4338379  69.9505692  71.3327103  47.9989471
  81.2834702  44.7042847  26.9479885  80.7731705  44.1080780  27.4960480
  81.5371933  45.4140282  27.5380077  71.0973434  20.8194714  67.0322266
  70.4653473  21.5380440  67.0535812  70.8283234  20.2425594  67.7470856
  62.7881088  33.7814674  60.1751862  63.2467918  32.9593391  60.3482399
  63.1589661  34.3997650  60.8047943  39.2596207  62.7121925  56.0149307
  39.3879623  62.3212776  56.8791885  39.9372139  63.3854980  55.9535866
  17.2464256  28.5277729  84.3375244  18.1461658  28.7321835  84.5923080
  16.9567051  27.8803215  84.9802551  67.4696350  19.5787487  53.0249443
  67.6563187  19.5125065  52.0884666  67.6356430  20.4970760  53.2378922
  55.9985542  36.6833687   1.0761480  56.2602730  37.3924179   0.4887982
  55.2841606  36.2426453   0.6161057  75.0245285  40.2031860  73.3204041
  74.4058380  39.9608192  74.0093994  74.4721985  40.4675865  72.5847015
   7.1608415  31.8966866  81.6409836   7.5305772  31.3794174  80.9254684
   7.1298585  32.7903099  81.2993546  62.5574226  23.2161350  13.3164473
  62.3973312  23.5880642  14.1837835  62.7459679  22.2925797  13.4829588
  51.4882545  19.9173069   1.8423543  50.7893333  20.2251110   1.2652965
  51.2351112  20.2275963   2.7117617  14.1230869  36.6338806  26.3187523
  13.4220324  37.2551498  26.1218224  14.7397194  37.1310425  26.8561783
  56.6713867  28.8176003  48.7237320  56.3692436  28.3930264  49.5266495
  55.8684311  29.0251961  48.2458153  57.4324837  27.6092567  35.0386276
  57.9392815  27.3113976  35.7940521  58.0076370  28.2327423  34.5951233
  75.8162537  17.0839806  11.9683132  75.4293976  16.2267647  12.1465120
  76.7442017  16.9018383  11.8201027  70.1524658  53.6694908  83.6053696
  71.0557327  53.9101601  83.3994293  69.8507538  54.3571701  84.1989212
  63.5374832  -0.1214011  14.7707586  63.0178528   0.0208644  13.9795723
  63.1573524   0.4734969  15.4171562  60.7189941   9.0024443  74.8145828
  60.5447845   9.3152142  73.9268570  61.5687714   9.3812628  75.0395508
  16.4682884  38.2820473  16.5221672  17.1941433  37.9652367  15.9845829
  15.7641878  37.6518784  16.3693180  74.0821152  71.0333252  47.0460968
  73.5811844  71.1758270  47.8492088  73.4213791  71.0007172  46.3542900
  52.5813293   7.6760101  40.0312271  52.2397652   8.5357122  40.2771530
  53.5297775   7.7981486  39.9893074   0.9637399  35.5148201  42.3145180
   1.7526935  35.0846558  41.9847565   1.2575269  35.9914513  43.0908852
  59.1902313  19.0179138  62.2592049  59.5720100  18.6198044  63.0415001
  59.2918625  19.9598370  62.3958893  76.7204742  33.2589417  34.3105507
  76.7863388  32.3721657  34.6648445  76.0117798  33.2085609  33.6691132
   2.5888023   3.1777971  44.8994408   3.3405421   3.2753100  44.3149681
   2.7018833   3.8685355  45.5523758  64.0243301  43.7855797  65.9290390
  63.6544075  42.9140587  66.0698776  64.8624954  43.6229401  65.4962997
  32.2702866  55.9311485  27.0581093  31.6555309  55.4913406  26.4708462
  31.7343178  56.5648537  27.5349655  12.4921293  28.7816944  69.1355362
  12.9799147  27.9605751  69.0718231  11.6113195  28.5170708  69.4008255
  78.8870850  26.0967808  14.8034000  78.9091110  25.6126003  13.9779825
  78.4638748  25.4995441  15.4201908  69.2420273   3.5735941  35.5213852
  69.6790237   3.0019481  34.8901291  69.9332733   3.8280728  36.1326485
   1.2024994  45.5017471  66.8381653   2.0516725  45.0754318  66.9538956
   0.9659542  45.8061790  67.7142944  52.4873772  27.1375217  46.3458138
  51.9983444  26.3197536  46.2545204  53.2056541  27.0584126  45.7180786
  53.8023415  33.5512047  61.5944481  54.1875153  34.0869408  60.9010086
  54.0207825  32.6515312  61.3513260  67.2712555  60.1292877  12.6121626
  66.5474396  60.6136780  13.0092564  67.9910431  60.2196083  13.2366524
  53.5822601  43.7534103  72.2579193  54.4320488  43.5714340  71.8566971
  53.2799988  44.5526886  71.8266068  68.6789703   2.0308285  55.0867271
  68.0061951   1.5529541  55.5717392  68.3006897   2.1604900  54.2170601
  15.4765434  54.6173897  54.2692604  15.9182196  53.8723412  53.8617630
  15.9406796  55.3840904  53.9331322  65.2482681  18.8417034   4.5073233
  65.4574051  19.3056049   3.6965892  65.4255600  17.9220772   4.3096309
   6.4321165  68.7647552  31.5031891   7.1455727  69.4022598  31.4749031
   6.1447906  68.7672043  32.4162445  84.5324478  61.7463531  82.9494934
  84.1180801  62.2764168  82.2686310  85.2550735  61.3051643  82.5029602
   7.7471056  37.4532661  10.3311300   8.1159315  38.2969208  10.0695210
   8.3908806  37.0883446  10.9382696  33.8816185  52.1129799  23.8109379
  34.0026093  53.0539398  23.9381618  34.4451218  51.7077560  24.4700985
  14.9707260  66.2669525  54.7577209  15.4724512  66.5492020  53.9929733
  15.6279354  65.9182663  55.3599892  86.0198822  39.0379448  17.4160137
  85.4800262  38.2554207  17.5275650  85.4130173  39.7674713  17.5414677
  51.7983284  60.5163841  25.0155067  51.3185081  60.1040001  25.7338009
  51.2545967  60.3600960  24.2433929  65.5903702   3.7727964   5.8200307
  65.3912430   2.9672737   5.3428373  65.1297226   3.6774356   6.6536632
  50.9631157   3.3132918  15.5373859  51.2258415   4.2156525  15.7189112
  51.5934830   3.0068254  14.8855076  51.1075325  56.1050339  51.7161179
  52.0181923  56.3449287  51.8875237  51.1276741  55.6885147  50.8545265
  63.5645218  37.0393906  58.7896156  63.7698402  37.9277077  59.0811119
  62.7201042  36.8432922  59.1954918  18.6411457  47.6441574  28.7387829
  17.8052406  47.3923111  29.1312981  18.9503574  48.3709488  29.2795181
  55.6625481   5.5484533  67.5331726  55.9620323   5.9443402  68.3516006
  56.3429489   5.7694044  66.8971939  29.4375153  54.7406158  41.8834915
  29.9214993  54.5882568  41.0718384  30.0659866  54.5427895  42.5778389
  24.2487793  16.8218899  78.0267105  24.2770596  17.5621281  77.4205093
  23.5787945  17.0619640  78.6668015  38.4369354  57.8137016  57.2794151
  39.3319778  57.5463867  57.4884071  38.3104134  58.6281891  57.7660713
  83.4099579  63.7022514  39.7072182  83.3474884  63.7575111  38.7536583
  83.9343567  64.4629440  39.9573746  46.3244743  47.8382683  42.7631760
  46.7999420  47.0240746  42.5981140  46.4604263  48.0103531  43.6949120
  86.7641220  36.4931984  75.8702621  86.0319519  36.3059120  75.2828217
  86.3994675  36.3869743  76.7488861  75.4433823  37.4281998  80.1964798
  75.5937271  38.3695641  80.2828674  76.2567825  37.0890350  79.8228836
  71.8119125  39.1275520  36.0772247  72.1510315  39.8902321  36.5457802
  70.8832550  39.3197403  35.9472275  33.0709610  66.2031631  19.1031723
  33.3119736  65.4276657  19.6098747  32.1573296  66.0552826  18.8589554
   2.7568507  23.2818279  55.1576996   2.5481424  22.3623829  54.9925003
   2.1712937  23.7683449  54.5774803  22.5767479  55.2185974  69.6047134
  22.6873264  54.2678947  69.5917206  22.1384411  55.3973961  70.4366684
   2.0665898  54.0466805  68.7560959   2.6831930  53.5271454  68.2402344
   1.7416621  53.4409180  69.4222107  78.4264908  13.5587444  67.5702591
  78.5243378  12.9774609  68.3244247  78.8239365  13.0780354  66.8441849
  82.9086456  65.8858490  87.7208786  83.0634613  64.9467087  87.8222656
  82.5318146  65.9733276  86.8453369  62.6535110  58.7843285  37.8623924
  62.1372185  58.8597908  38.6648788  62.0065536  58.6228676  37.1756554
  40.9416046  16.6116791  85.8882370  41.6633263  16.8379421  86.4748840
  41.3300514  16.6272850  85.0135345  47.0377121  24.3227882  23.8074379
  47.5177994  23.4959164  23.8525066  46.6314087  24.4111423  24.6696091
   2.2771423  23.0318203  27.8237801   2.2648218  23.8340168  28.3458519
   1.5021514  22.5481377  28.1095638   3.6154234  58.2589073  74.7847290
   4.3853040  58.2488365  74.2160339   3.9431343  57.9705849  75.6366119
  38.1886482  11.1075754  86.5103378  38.9299736  11.4989948  86.9723511
  37.5123100  11.7847462  86.5256348  26.7467537  66.6803436  16.8976879
  26.6353264  65.7683029  16.6293831  27.1964436  67.0935974  16.1606445
  84.9539413  57.1685867  30.6641426  84.4271851  57.5136604  31.3850307
  85.6240311  57.8359413  30.5163136  29.0384712  62.2806168  62.2958870
  29.9956608  62.2792473  62.2915878  28.8005981  61.5671692  62.8880348
  52.4940681  39.7981377  74.3178101  51.8213844  39.4311409  74.8914337
  52.6431351  39.1198997  73.6590195   9.7888393  14.0311460  85.7882080
   9.2579746  13.3088579  85.4524841   9.1505108  14.6769695  86.0910034
   2.9052055  46.2570686  62.4359398   2.1035872  46.0236816  62.9040947
   3.6025412  45.8141937  62.9194832   8.5870047  54.7580681  86.7425156
   8.9725809  55.0876198  87.5542755   8.4077244  55.5438957  86.2262192
  36.8864708  11.8652058  72.9498367  36.2949181  11.1133280  72.9185715
  36.6597557  12.3146372  73.7639923  17.9616203   9.8330069  78.6086655
  17.3695621  10.4471922  79.0428085  17.5829468   9.7099886  77.7382050
  35.9200745  41.2614784  12.6693993  35.1925240  40.6632576  12.4990158
  35.7027512  41.6704254  13.5071144  35.4961357  36.5955772  68.4179535
  35.9868813  35.7985497  68.6183167  34.7731476  36.2990875  67.8651276
  56.3814430  54.1755219  34.4496117  56.4929123  54.8455467  33.7751694
  57.0057335  53.4900322  34.2117157  24.1466656  63.5865097  78.2635727
  23.9028721  63.8242035  77.3689804  25.0268784  63.2192688  78.1823959
  38.0696831  51.0425148  34.9447975  37.7849693  50.1512909  35.1469955
  37.3918724  51.3839607  34.3615150   5.5009942   5.8267360  28.7197418
   5.0429330   5.0621700  29.0688133   5.7145181   5.5869651  27.8179951
  15.2841759   7.0284271  21.2950745  15.8396397   7.4323826  21.9617920
  15.7555189   7.1682715  20.4737873  35.7672882  60.8050995  18.4133377
  35.5080719  60.7932587  19.3346958  34.9429474  60.8862000  17.9336319
  11.3720798  35.0905075   5.4731627  10.4708853  35.4125328   5.4926639
  11.8650827  35.7268906   5.9910398  25.7490044  64.2005539  24.0915489
  25.2800541  63.6808853  23.4386616  25.8474388  63.6123047  24.8402157
  56.9431114  65.1676941   2.4977515  57.0339928  64.2148590   2.4882588
  57.7428360  65.4803619   2.9207318  11.9251299  33.7096291  13.7823896
  11.6187191  34.0167656  12.9291525  11.3070545  33.0201149  14.0248442
  23.2833576  43.3545914  79.4046860  24.0436554  42.8113823  79.1970749
  22.9400616  42.9851990  80.2182693   9.3813372  41.7946968  41.7511787
   9.1350193  42.6887474  41.9883080   8.6695633  41.4916840  41.1874466
   2.2299130  49.3522491  51.3015862   2.2260909  49.8835220  52.0978088
   1.3704057  48.9311142  51.2905235  50.5675888  52.7566528   9.1546669
  51.2681580  52.2199173   9.5252781  50.6252365  52.6073952   8.2109346
   3.9258509  56.1127205  69.5889282   3.6583762  55.2043457  69.4491348
   3.6256707  56.5740166  68.8057709  30.8766651  47.7788658   9.1502857
  31.7901859  47.5426712   9.3113022  30.5232906  47.0425034   8.6511583
  53.3367081  11.2786713  41.9861412  53.7864532  11.9789791  41.5133514
  54.0290337  10.8412237  42.4816780  55.8624954  39.3106155  25.8732338
  55.3674049  39.9498596  26.3855667  56.6790161  39.1948967  26.3591709
  66.3178177  63.8603859  23.7945461  66.1838074  63.7738533  22.8507309
  67.2689285  63.8619499  23.9022713  22.5788822   8.9610996  61.1746674
  23.1581039   8.6916361  60.4618378  22.1813679   8.1461401  61.4813499
  74.7860107  37.7622681  68.9689178  75.1974564  37.8283424  69.8306427
  73.9466400  37.3337669  69.1364899  22.3994141  14.6575718  54.3501396
  22.8056374  13.8558083  54.0209084  22.2727890  15.1992321  53.5711632
  82.8801193   1.9075230  58.8298607  82.5065384   2.4307296  59.5390282
  82.1532211   1.7751589  58.2213135  27.8789330  31.7847843   6.0289502
  28.0262432  32.3897209   5.3019142  27.6184711  30.9648609   5.6092868
  38.2131920  38.2351265  80.9250259  39.1409569  38.0273056  81.0359039
  38.2046471  38.9783974  80.3219452  20.4918060  63.0822678  21.7758961
  21.0552864  62.9325027  21.0167561  21.0743580  63.4574242  22.4362926
  53.3211555  30.7973385  81.8480301  52.4403877  31.1628036  81.7648468
  53.9042358  31.5302181  81.6502075   7.7027364  40.2599525  40.1290588
   7.9035969  39.3522377  40.3569641   8.1782284  40.4127159  39.3124809
  78.1756668  26.9730434  87.2350922  78.2549362  27.5587215  87.9880371
  78.2961044  27.5423565  86.4750900  28.4991570   1.1221180  74.3592300
  29.1915131   1.4300653  74.9440765  28.7389393   1.4698538  73.5002670
  59.0925903  19.7324429  33.7131004  58.5313377  19.7976570  32.9404602
  59.7472610  20.4202328  33.5923157  38.1036987  46.6615028  71.1426468
  37.7475090  47.5381393  71.2870865  37.3610802  46.0746994  71.2855225
  28.5787125  69.0392761  78.0883560  28.3479958  69.6258850  78.8087006
  28.0060787  69.3062363  77.3692932  12.3558903   8.2172804  75.2561264
  11.9040709   8.5273743  74.4713135  11.7542028   8.4165993  75.9733963
  32.7873459  22.2482643  68.1526413  32.6153145  22.3823986  69.0846558
  33.3817749  22.9595623  67.9140091  58.4416504  69.1774368  21.7199860
  57.9273376  68.4186325  21.9955463  58.6655312  69.6242828  22.5363407
  22.4545040  59.8397751  35.1352997  21.5600777  59.5571785  34.9445801
  22.9620438  59.5584068  34.3740730  16.6290951  67.7263870  87.3893051
  17.5300407  67.4313889  87.2569885  16.1240921  66.9187698  87.4839478
  19.2989826  45.4440651  72.4320145  19.4840851  44.5158806  72.5749817
  19.5987492  45.8742027  73.2328568  24.4995403  34.6048317  13.4875345
  24.7950859  33.9346390  12.8713140  24.0228939  34.1183167  14.1600990
  73.0109329   0.7832419  55.9629288  73.0999908  -0.1355235  55.7096138
  73.0473938   1.2642570  55.1361732  76.6094055  10.1612120  75.8352737
  75.8390350   9.6833363  76.1425171  76.3477936  10.5165787  74.9858627
  60.7219353  21.8532448  33.7448311  60.4093018  22.4750099  33.0876427
  61.4986610  22.2697620  34.1182518  86.5052414  33.6769562  67.3177338
  86.6420975  32.8362923  67.7545242  85.6065750  33.6336174  66.9910202
  59.2074165  65.7441788  73.3524704  58.6652908  64.9619370  73.4545975
  60.0893745  65.4568710  73.5887680  68.9117737   7.9366989  88.0536270
  69.7980347   8.1249914  87.7448883  69.0365753   7.3347993  88.7873688
  12.6553383  59.3637276  31.2610741  13.4794779  58.9653053  30.9812756
  12.1275234  58.6285172  31.5726967  11.7614555  45.2055016  43.5072594
  11.4539356  45.8648872  44.1292496  11.2220898  44.4356880  43.6880951
  14.6655598  53.8688240  27.2675114  14.6049328  53.9433212  26.3151417
  14.5031404  52.9425697  27.4461250  22.2364845  41.6414299  42.8461838
  22.7823563  41.8089867  43.6144180  22.1618137  42.4928093  42.4151230
  39.5940018  26.4993706  71.1716843  40.4994392  26.2169895  71.3008041
  39.5165253  27.3000488  71.6904755  28.4637146  57.6315269  11.8629532
  28.2556229  56.7753143  12.2368956  29.4090023  57.7220726  11.9832249
  35.9440575   5.9061232  73.2425156  35.0853767   5.5583773  73.4832993
  35.7713966   6.4693422  72.4880600  61.7292061   7.2084551  14.0277119
  61.8477249   6.5557275  14.7177353  60.7828865   7.3470926  13.9891434
   1.8119771   9.5902300  82.3787842   2.6507628   9.4255886  82.8095551
   1.2250888   8.9228258  82.7342682  33.5865135  57.8837662  56.0205956
  33.2732048  58.5525169  55.4116287  34.5398407  57.9666138  55.9975739
  54.9679527  21.6242695  87.4471664  54.1638565  21.1049995  87.4426651
  54.8487320  22.2441559  88.1667252  27.8581848  63.4236641  13.0096073
  27.3444462  62.8994942  12.3951530  27.2742214  64.1394424  13.2603569
  67.8904953  41.1495972  29.0199013  67.1461029  41.5914993  28.6114388
  68.6413116  41.7072754  28.8162060  77.2268753  16.8967419  84.8956451
  76.4743423  17.3530140  85.2721252  77.9873352  17.3701229  85.2330475
   7.2777424  21.9153214  67.4307251   7.8308673  22.1280880  66.6790466
   6.6730337  22.6540909  67.4998627   3.5295630  21.9613094  39.0530586
   3.3357513  22.5219994  38.3018646   4.3932757  22.2482224  39.3495636
  20.2862720   9.4132004  63.6458855  20.5840473   9.7479229  64.4917755
  21.0876999   9.1338387  63.2032776  64.7608490  66.0693283   6.5805130
  64.9178848  66.0401688   5.6367326  64.7990570  65.1540451   6.8580632
  65.6043854  52.7947960  87.0121536  65.3661041  53.0854988  87.8924637
  65.6925430  53.6039238  86.5083923  81.9863205   5.9551182  88.2473145
  81.8900833   5.6360297  87.3500137  82.5195312   6.7457247  88.1644821
  67.6697998  62.8895264  27.3269348  67.3458099  62.7589722  26.4357491
  67.2233429  62.2195435  27.8446503  43.2768555  71.0135345  15.5516548
  42.8511009  71.7315292  15.0832024  42.6136131  70.7031326  16.1680889
  38.5609856  20.7626152  78.2632980  39.0689697  20.8349857  79.0713501
  38.5904045  19.8312206  78.0445023  50.5315285  11.0203447  56.9668388
  51.1825562  11.5978460  56.5682297  51.0480118  10.3588982  57.4272346
  79.1098404   8.6941195  68.0388565  79.8476105   8.6490831  68.6470566
  79.5156479   8.7457724  67.1734772   8.7810459  43.7964516   4.9555879
   8.2951403  43.3151207   5.6252508   8.1076775  44.1197624   4.3570261
  67.5360336  65.0187683  89.3522415  67.9840164  64.8333588  88.5269089
  66.6688919  64.6272659  89.2472992  17.9077549  60.0376396   4.3840590
  18.0251980  59.9132042   3.4422762  17.8712578  60.9874001   4.4974504
   0.3572237  26.3466530  29.6609459   1.2933532  26.3232517  29.8593044
   0.0139601  25.5324879  30.0291004  59.6828384   3.0676270   7.1936493
  59.3157692   3.8935716   7.5087810  59.9630165   3.2562869   6.2980261
  18.2899399  56.9007263  24.9552822  17.4886265  56.4416695  25.2070618
  18.0467148  57.8265038  24.9585609   9.7910175  69.0667877  61.0392494
  10.2514009  69.7023392  61.5872879   9.2813530  68.5425415  61.6570244
  61.2689819  40.5075264  54.8573036  60.3168602  40.5730515  54.7838058
  61.4406700  39.5675812  54.9144287  45.8624725  13.9336319  20.4432716
  45.6162453  13.5396185  21.2801456  46.8153610  14.0130806  20.4870930
  50.0293617  54.4831657  48.7870407  49.3179626  53.9784470  49.1812515
  49.5924988  55.0741615  48.1737671  54.1456909   4.5198998  11.1470881
  53.3658829   3.9649012  11.1574011  54.0203857   5.0950198  10.3922586
  19.2481956  40.8580132  60.5491905  19.2435131  41.7647552  60.2425537
  18.3310032  40.6666908  60.7451096  45.5605431  29.3735943  39.7730980
  44.8076477  29.6731548  39.2635422  46.0452957  28.8065052  39.1733856
  65.0687790  46.0340424  87.0451660  65.9472656  45.9250832  87.4093323
  65.1000290  45.5784378  86.2039261  74.3447571  40.0889587  61.6896324
  73.7663574  40.8164635  61.9185982  74.1502609  39.9086533  60.7699089
  82.6789246  46.5407104  28.8232708  82.8282471  47.4322205  29.1381359
  81.9637985  46.2111168  29.3675060  85.0383530  55.5331726  68.1910019
  84.2580719  56.0778770  68.0876007  84.8156586  54.7105484  67.7551880
  59.2282257  23.4843616  31.9844780  59.1935234  23.3197880  31.0421696
  58.3798409  23.8768425  32.1904716  70.5072479  17.3562298   8.8900251
  69.6082077  17.2844925   9.2106571  71.0158005  17.6144733   9.6587372
   8.5985260  61.4390373  24.4010372   9.3714046  60.8745117  24.4151821
   8.7960949  62.1314392  25.0317364  13.2203112  33.8297691  52.9063072
  12.4795551  34.3104820  53.2756653  13.8395205  33.7495613  53.6318245
  67.5487823  37.9694901  27.8755932  68.0699921  37.5710068  27.1786156
  67.7834320  38.8971214  27.8496456  10.5678053  50.3085213  19.7951565
  10.9977083  50.1309624  18.9585629   9.6402559  50.3934326  19.5745316
  52.2747841  55.9990959  54.8641052  51.6380043  56.0332222  55.5779572
  51.9921875  55.2594681  54.3262177  22.8907471  55.8753433  49.7393188
  23.0798950  56.1568146  48.8442039  23.3933735  55.0679817  49.8477783
  57.7146378  38.3715248  88.8003159  58.0052261  39.2176285  89.1407471
  58.5187531  37.9415016  88.5092697  71.2563629   1.3287275  87.8828888
  71.8901215   1.8547585  88.3706131  71.7864075   0.8328924  87.2588501
  11.9130392  13.0919104  13.4307756  12.5248270  13.6910009  13.0029469
  11.7886524  12.3844500  12.7981157  54.2769699  43.8313103  34.8137398
  54.7199440  42.9887428  34.7133026  54.9852829  44.4584198  34.9595299
   5.1800094   6.6523943  17.8385410   4.4584031   6.8139486  18.4463367
   5.5652604   7.5158286  17.6892262  57.8555183  18.1256447   0.6157922
  58.7389755  18.0854454   0.9820142  57.5547752  19.0127926   0.8126527
  28.3830910  28.9600830  85.0349045  28.4358578  29.4128590  85.8765945
  27.5193787  28.5475082  85.0386047   5.0094738   5.5489688  48.5697441
   5.6088009   5.2164607  49.2379341   4.4430165   6.1611853  49.0393715
   5.3185124  49.7085304  30.7528419   6.2220063  49.6739273  31.0670605
   5.0815525  50.6343803  30.8065205  41.5518875   9.2063971   2.3352234
  42.3547859   9.4562998   1.8779125  41.4385490   9.8800783   3.0057011
  18.9414310  64.3149414  31.1101208  19.0340233  64.4157257  30.1627560
  18.6859512  65.1839523  31.4196014   5.3071647  13.2173338  62.9640732
   4.9807611  12.3262901  62.8386421   5.6923704  13.2101736  63.8403168
   0.9685730  26.5674076  17.6961613   0.9311384  27.2386875  18.3774929
   0.5961056  26.9903812  16.9224739   0.9858923  29.3108082  87.3806076
   0.0686722  29.0456371  87.3126144   0.9735075  30.2563248  87.2320251
  28.4157715  48.2740326  83.6419220  28.8685284  48.8663139  84.2422943
  28.2289600  48.8106155  82.8715897  83.8614502  60.9861832  58.3040848
  84.0272293  61.4227028  57.4685020  83.7698364  61.7012138  58.9338226
  29.3026905  13.6484632  82.1259079  29.9008770  12.9661255  82.4305801
  28.4789867  13.4638386  82.5771942  26.4588566  64.0935440   8.9966869
  26.6549187  64.6493073   9.7509508  27.2822399  63.6419106   8.8114843
  68.8571930  59.3025436  63.7145882  68.0038605  59.6572037  63.9641304
  68.7438812  59.0225677  62.8062935  62.9294891   2.4078448  55.1003151
  62.2408600   2.6370873  54.4762421  63.4769897   1.7776172  54.6320381
  77.8766632  23.0731621  36.1007080  77.8831558  22.6207695  35.2571869
  77.0053101  23.4655781  36.1553383  70.1140976   5.0416689  44.7772560
  69.9457169   5.4094510  43.9097214  70.6184158   4.2462344  44.6064224
  48.8892632  66.7339096  25.0391769  48.2391434  66.6302490  25.7340355
  49.7288361  66.5772247  25.4713821  82.9564438  61.0395088  40.4420624
  83.2768402  61.8339691  40.0149765  82.0524750  60.9528313  40.1394691
  36.4691658  37.8100243  87.2590790  35.9963608  37.4879456  88.0265121
  36.0834694  38.6681747  87.0828705  13.2746277  69.1398849  24.5770493
  13.8626270  69.3504028  23.8516731  12.7382936  69.9251556  24.6862526
  39.7456703   8.2732372  85.8143845  40.2386322   7.4599338  85.7059555
  40.3631058   8.8736801  86.2320862  53.8589630   1.4173243  23.6608124
  53.8205643   0.5101767  23.9638634  54.2551346   1.3627541  22.7911549
  19.8479652  37.9921684  70.5996017  20.4451599  38.4471130  71.1934128
  20.1041622  37.0719299  70.6608963  25.2197037  10.7615261  45.1790810
  24.4530487  10.2002630  45.2950859  25.8995895  10.1733713  44.8503571
  35.7585068   0.1859515  33.9157333  35.8764496  -0.4307663  33.1932487
  35.5732880   1.0224109  33.4888115  15.5058308  60.1186676  67.4824753
  14.6550665  59.8904915  67.1078186  16.1310043  59.9498711  66.7775726
   7.8551664  12.6266880  84.5193634   7.1086793  12.4567795  83.9448013
   8.3919573  11.8368235  84.4545441  57.2933960  60.7352142  76.2494125
  57.0451965  61.1722069  75.4347534  57.7988205  61.3915977  76.7289352
  28.5497627  21.4045677  15.1073208  29.0758095  20.9486427  14.4503279
  27.6526566  21.1172695  14.9373465  49.0447006  57.2200356  79.9597397
  48.9246254  56.6236267  79.2207489  49.6022911  56.7367210  80.5694351
  13.6111393  49.5934219  78.2171631  13.7314701  48.6438179  78.2152786
  14.1402836  49.9033661  77.4822006  25.3261185  13.7211895  64.9042587
  25.8021507  14.3204203  65.4791946  25.0112915  14.2745171  64.1894531
  81.6778717  13.1332092  55.1406708  81.5964355  13.6759548  54.3564339
  81.5826035  12.2357321  54.8217850  20.2269306  52.8158112  74.4494858
  20.0906239  51.9252434  74.1261520  20.8987789  53.1797371  73.8729324
  64.1117783  60.6539116  86.3019409  64.0710907  61.4271164  85.7391510
  63.2350044  60.2733955  86.2499084  15.0490189  54.4231033  34.9687309
  14.5801125  55.2497101  35.0831223  14.6521320  54.0280380  34.1924362
  52.9091415  44.9743500   4.8049221  52.1454811  45.0183334   5.3803525
  52.5415077  44.8969917   3.9245284  66.9089813   7.1457009  42.4359856
  67.4814224   7.5224390  43.1042747  66.3281250   6.5594888  42.9209442
  10.2573071  18.7218533   3.5772438  11.1474047  18.4470863   3.7973814
  10.3487711  19.6352692   3.3060656   3.1462309  26.6592045  15.3249664
   3.6372888  25.9127254  14.9816551   2.4892564  26.2690067  15.9014759
  39.9604874   8.4052343  79.0743179  40.4796028   8.4291630  79.8781738
  39.2307014   9.0013113  79.2426605  38.8244514   4.7890878  80.8972626
  38.3278618   4.5200667  80.1244354  38.8297501   4.0148201  81.4600296
  78.5221939  57.7190018  28.1553345  78.4714355  58.2388802  27.3532238
  77.8840179  58.1229668  28.7433643  53.2071266  12.3783274  78.2633057
  53.0851517  12.5299244  77.3260880  54.1365623  12.5499353  78.4147186
   4.9228497  12.1464138  57.1559486   4.8432384  12.1381750  58.1097946
   4.3224015  11.4624147  56.8595695  10.5777273  52.2912750  75.7105408
  10.5501938  52.9059448  74.9772873  11.0639315  51.5385742  75.3739700
  77.8755188  14.2240419  83.9462891  77.4699097  15.0171080  84.2966537
  77.1759796  13.5708427  83.9606400  31.9115696  16.1034584  68.0069122
  31.1386337  16.6549892  68.1278000  32.6321411  16.7228947  67.8915558
   1.5830861  48.5544510  75.0842133   2.1689343  48.4450836  75.8332443
   1.9818074  48.0301056  74.3897247  18.6237316  26.0696125  19.8844509
  17.7094822  26.3505802  19.9223518  18.9287014  26.1238232  20.7901459
  18.7094574  24.4815884  67.2024994  17.8932629  23.9969273  67.0793762
  19.3238144  23.8327980  67.5458221  45.2551918  55.0205536  62.7868958
  45.1779213  54.4643898  62.0116920  44.4027214  54.9519806  63.2168083
  56.6552849  62.9189186   6.1245675  56.4462700  62.8866081   7.0581088
  57.4026031  63.5142517   6.0669107  46.3329506  15.0087204  16.1057262
  45.8205261  15.8170719  16.1205502  46.0592957  14.5663681  15.3021908
  13.7105045   5.5327129  70.7971649  13.5417089   4.6173320  70.5739670
  14.6581602   5.6309409  70.7048035  18.9847717  52.5182991  56.3210945
  18.8940449  53.2760582  56.8988457  18.2508717  51.9498672  56.5545654
  82.2024307  35.8666687  38.3111076  81.3642197  36.0130501  38.7495155
  82.6477814  35.2180214  38.8562279  52.8424988  30.8696251  38.6525917
  52.4027443  30.4887981  37.8924484  52.8039284  31.8143120  38.5032272
  41.2193871  59.5180054  73.8624878  41.7340889  58.8161125  74.2608109
  41.5035248  60.3109894  74.3171005  73.2488022   1.4327515  53.3882065
  73.4751282   0.7151419  52.7965660  72.3539200   1.6702689  53.1452866
  13.6226072  16.5935898  10.7715025  14.5033884  16.4540997  10.4236536
  13.2820005  17.3349247  10.2708626  28.4997482  38.8924980  81.9248810
  29.1915874  39.1664619  81.3227768  28.6041794  37.9435120  81.9938431
  67.1820297  60.1402512  16.3760452  68.0365448  60.3820534  16.0188789
  66.5659103  60.3207626  15.6660862  81.1469498   5.5100107  19.0789261
  81.2346573   4.6010470  18.7920036  80.4664917   5.8751135  18.5133228
  73.7443314  66.9046707  16.0229225  74.5071487  66.4228745  16.3426285
  73.2741089  67.1622162  16.8158894  76.5281754  46.3289299  78.1068878
  77.0886612  45.8266983  78.6983643  76.9902039  47.1584511  77.9858170
  50.2143402  16.7215309  84.2133713  49.4279175  17.0004730  84.6823730
  50.1496162  17.1511898  83.3604736  19.9354630  62.4825020  40.1228752
  20.4175339  63.2222023  39.7531662  19.0427570  62.8096848  40.2335892
  17.4428215  47.6678085  18.1874390  17.4063492  46.7816734  18.5475311
  18.3545933  47.9356384  18.3022156  18.8696327  51.4081039  40.4126434
  19.6897697  50.9638519  40.1975899  19.1399651  52.2702370  40.7286758
  41.3835869  19.3700848  16.9330597  41.4716530  19.9850140  17.6613026
  42.2422905  19.3750935  16.5101719  69.4352188  32.6899033  42.8635368
  69.2878647  32.6895561  43.8093262  70.2777023  33.1305122  42.7525558
  13.8939886  10.6227684  18.1044750  12.9700089  10.8465042  18.2159882
  14.0193596  10.5885010  17.1561394  44.6401787  70.3031998  24.0916538
  44.6464920  70.7237244  24.9515095  44.0081062  69.5896454  24.1786385
  12.0192890  14.6887980   1.4886999  12.1237173  15.0561752   0.6109980
  11.0735283  14.5856667   1.5942119  11.0699902  42.6280937  29.5148754
  10.2868471  43.1461029  29.7008533  11.7546158  43.2777901  29.3554554
  36.0815849  22.5418682  16.8575535  35.2818756  22.5798492  16.3329048
  36.3349419  21.6189461  16.8415337  25.2611313  70.8941345  52.8197289
  25.7351627  70.9172516  53.6509895  24.3813343  71.2022858  53.0370750
  65.4246292  51.3219833  24.5514984  66.2240372  50.9250069  24.8973141
  65.0238266  50.6319199  24.0229149   4.1015816  37.6762123  88.4775009
   3.3609316  37.2740936  88.0236588   4.3888025  38.3774071  87.8926392
   2.3102584  62.9267998  14.5842419   1.7775762  62.5424080  13.8880205
   3.0654650  63.2999878  14.1296816  84.8516769  35.2383537   5.4900246
  85.3300552  35.1107712   6.3092408  84.0151443  35.6187248   5.7578959
  52.1299667  65.9154282  35.6952286  51.4910927  65.2046051  35.6423569
  52.5428848  65.8031540  36.5514565   7.5974803  50.5029984  77.2613678
   8.4789267  50.2415504  77.5276871   7.3176947  51.1228142  77.9349976
  52.6880722   8.7893324   4.4981074  53.2163277   8.4829845   5.2352161
  51.7888680   8.7759914   4.8259578   9.5960102  23.5240440  31.4802990
  10.4795313  23.8484592  31.6545887   9.7022648  22.5771770  31.3887291
  45.3762474  13.8078632  84.5036926  44.7343597  13.2191811  84.1066132
  46.0543098  13.9085884  83.8356171  46.0975456  42.1677017  44.4312859
  46.6999626  41.5982170  43.9527359  46.1765366  41.8875694  45.3431625
  55.2035332  11.2964401  31.7295647  55.8399773  11.0000963  32.3802185
  54.6029396  11.8574944  32.2202187  17.1567326  56.4272041  65.5499649
  17.1401672  56.5584908  66.4979706  16.6388149  55.6346893  65.4088287
  31.1970444  29.7200432  62.9673500  30.7840233  28.9028854  63.2464523
  31.9981556  29.4436798  62.5222931   8.5935602   9.1444721  18.3303280
   8.9753408   9.5642996  19.1011868   8.4119701   9.8670158  17.7293396
  12.3226261  69.0563965  71.9959717  11.9729891  68.3692932  71.4286423
  13.2149220  69.1973419  71.6794739  30.8372841  68.2350998   3.2855778
  30.6531677  68.1443253   4.2205076  31.7547760  68.5052338   3.2472701
  48.9954987  39.3969116  28.0894051  48.7528038  39.6407356  27.1961632
  48.7439384  38.4763069  28.1631222  34.8820953   1.2364784  77.6096878
  35.4081154   1.7002778  78.2611694  34.0515594   1.0621622  78.0524750
  79.1972351  44.8241882  16.6943836  79.2868576  43.8737907  16.7646923
  79.6354370  45.0459595  15.8727837  47.3150711  25.3729038   0.4140535
  47.6870193  25.8049374   1.1829702  47.9048347  25.6088924  -0.3019904
   0.5154288  37.6541901  28.4368286   1.0578128  37.9500198  27.7057095
   0.5851357  36.6997604  28.4159279  23.7526188  63.3322258  47.7767220
  24.0586529  62.6619339  47.1657562  24.2367954  64.1202164  47.5299873
  48.3637695  54.6537971  35.2814484  49.1875420  54.2394485  35.5382423
  47.6856918  54.0833473  35.6434288  80.1685867  36.1184540   0.1781336
  79.3507462  36.5996971   0.3037027  80.8545685  36.7571831   0.3722721
  32.8971519  21.0642357   4.8568091  32.5567436  20.2303238   4.5328536
  33.2570648  21.4937134   4.0807672   6.2253485  10.3806314  82.7790527
   6.2871037  10.4223633  83.7333450   5.9517937  11.2599955  82.5180588
  45.3006897  54.2550812  52.9147263  45.7618446  53.6891289  53.5338135
  45.4468460  55.1412773  53.2456741  25.5326023  48.6112442   3.7447879
  25.2914696  49.2974319   4.3670678  26.3276386  48.9382706   3.3238320
  31.2278805  63.4382935  48.7369347  31.9876862  63.7219887  48.2285576
  31.5726318  63.2824478  49.6161880   5.6688204  21.5657673  11.8410950
   6.0087137  20.6710777  11.8564854   5.8528380  21.9069767  12.7162781
  64.1516724  12.7362051  27.2246227  64.0803757  12.5264816  28.1558399
  65.0539017  13.0365887  27.1151581  10.2279749  27.2371960  65.9842529
  11.0911131  27.4911709  66.3109360  10.4067717  26.7928886  65.1554871
  68.2060165  11.5830154  25.0806694  67.4491501  12.0906153  24.7878723
  68.1519775  11.6019287  26.0361557  65.9008026  68.0670395  67.5068893
  66.1895599  68.3898315  66.6532745  64.9705811  67.8751144  67.3882217
  48.2624550   0.7210189  63.3088493  47.3550835   0.4234933  63.2425842
  48.7182541   0.0035047  63.7489090  31.5613174  62.7204933  76.4304733
  31.7462540  62.3824501  75.5542603  32.4240685  62.8902626  76.8087234
  39.4069710  53.7996826  87.7310104  38.5142250  53.4625206  87.8055573
  39.8820076  53.3804855  88.4485397  68.3998642  59.4444084  78.7301941
  68.0031662  58.7174988  79.2102585  69.3328552  59.3866768  78.9361877
  12.2186146   8.2729397  81.6969528  11.7651472   7.4509382  81.8838043
  12.9879160   8.2568674  82.2662964  65.5583954  51.2034569   8.8495083
  65.8411331  51.4203606   9.7379026  65.2762146  52.0389442   8.4772673
   3.2356663  24.9399643  30.0078449   2.6949606  24.7843761  30.7822247
   3.9573503  25.4830418  30.3248158  73.3996277   8.1375666  20.6936798
  73.9163208   8.9328270  20.5639992  72.7728043   8.1385736  19.9702644
  21.7453327  70.2962570  84.8172989  21.6154041  70.6494980  85.6973953
  22.3936749  70.8772202  84.4193420  15.3560362   2.3247387  24.8967896
  15.1534662   3.1923239  25.2467804  15.0153618   1.7163872  25.5525951
  76.2524338  48.6392326  55.4424973  75.8368683  48.4224739  54.6078987
  76.0584793  49.5674896  55.5726852  28.2836380  48.6828117   3.4547117
  28.1905594  47.8106537   3.8379982  28.3820629  48.5227051   2.5161438
  55.7338715  36.3368187  54.6302261  56.0461769  35.7224388  53.9659691
  55.0006599  35.8852921  55.0482635  75.5833130  70.4900360  26.6093445
  75.1436920  70.0279694  27.3231068  76.5004501  70.2257919  26.6819592
   6.7685156  42.2825356  18.2242260   7.2590709  41.5519409  17.8476372
   7.1711044  43.0629730  17.8433514  44.8896255  15.1997137   8.5383778
  45.6475296  15.6713409   8.8838987  44.6641197  15.6658030   7.7333064
  50.5986176  52.7640457  29.0225906  49.9630127  53.3202438  29.4730129
  50.7944260  53.2326622  28.2112408  59.5026894  61.9367638  65.4376068
  59.4989166  61.4817696  66.2797470  60.4301491  62.0668831  65.2398300
  72.5337219  27.1169796  35.4591217  73.4566345  26.8663902  35.5000305
  72.0795364  26.3162823  35.1967659   3.7836690  63.9753532  83.0445175
   4.5165205  63.4028740  83.2712936   3.0679164  63.3759079  82.8333359
  30.4871120  10.2005758  72.6222534  31.4404011  10.1526508  72.6942062
  30.2026730   9.2869921  72.5959702  76.2555084  32.6251907   8.5764198
  75.4430389  32.8992310   8.1509447  76.0179214  32.5133095   9.4968891
  63.2908249  50.9612732  67.6435318  62.4573975  50.9563789  67.1727829
  63.3003349  50.1324730  68.1223221  13.4228191  35.7472153  28.9854107
  14.3253527  35.5721741  29.2519150  13.4937706  36.0390320  28.0765438
   0.5466135  18.0417767  75.9951172   0.6368192  17.7236958  75.0968323
  -0.3882148  17.9619389  76.1847305  55.6894073  17.9142056  33.5719452
  55.8199158  16.9659462  33.5704880  55.6582947  18.1531162  32.6455612
  57.0753403   7.7798400  46.6807785  57.6966171   8.4327402  46.3583374
  57.4333153   7.5049348  47.5248833  66.9762802  14.4692392  11.8769312
  66.5891342  14.3830099  11.0057745  66.4029388  13.9554749  12.4457502
  26.9354153  11.3710566  14.4210396  26.1773491  11.3312464  13.8379602
  26.6098232  11.0444822  15.2598314  70.9677811  55.0555420  87.4499512
  70.5889587  55.2883415  88.2976074  70.2239761  55.0541344  86.8474655
  31.5297318  53.1824646  25.7985725  32.3568039  53.5501747  25.4871655
  31.6039391  52.2442474  25.6240177  79.4530716  17.4614143  37.6194344
  80.2971954  17.3013134  38.0414047  78.9843903  18.0307579  38.2296982
  41.9839592  46.8915825  70.7614975  42.9133263  46.9726753  70.5471802
  41.9551888  46.2360954  71.4584503  85.1927490  40.5313454  41.6339989
  85.9920425  40.6519203  41.1213341  85.1578903  39.5902824  41.8055115
  12.0003185  32.5294838  87.6424561  11.0612020  32.3597336  87.7164536
  12.0657272  33.4805260  87.5560303  66.2111816  39.0180740  55.3035469
  65.6276779  38.4853706  55.8438950  65.6247711  39.5981903  54.8179283
  75.0167313  43.3460274  78.5489960  75.9683228  43.2452698  78.5726395
  74.7189789  43.0074158  79.3933411   9.9592466  41.7365952   2.2316582
  10.2942896  42.6284714   2.1392605   9.5632515  41.5403404   1.3825983
  52.3963890  22.5501633  86.1648254  51.7551575  21.8905392  85.9003525
  52.2704048  22.6415119  87.1092911  54.6659775   6.3910384  61.8924370
  53.7745857   6.1066508  62.0943832  54.6153450   6.7180982  60.9942741
  42.2232590  52.3054657  38.4013023  41.4616776  52.1370468  37.8464470
  42.3695068  53.2485428  38.3274956   8.0028849  63.4784164  84.1345444
   8.1565619  63.6533775  85.0629883   7.3826509  62.7493820  84.1276550
  43.1453056   1.7112917  28.6961613  43.2350235   1.7443819  29.6485729
  42.9523277   0.7933339  28.5055180  26.3351612   5.6347990  76.6403046
  26.4472046   6.4779305  77.0793991  25.3868790   5.5273290  76.5665131
  83.9898682  68.0342255  38.7379227  84.5959778  68.7061920  38.4259605
  83.8790283  68.2254028  39.6692657  45.4467545  53.8243866  60.4226456
  46.0938263  54.3757439  59.9827194  44.7972755  53.6313248  59.7465286
  71.0894928  41.4521370  40.7554131  71.6190948  41.4067230  41.5514641
  70.2418671  41.0879021  41.0105476  28.5710983  42.3920517  35.4409447
  28.4140453  41.6964607  36.0794716  29.0293827  41.9577484  34.7215080
  53.0665092  23.5604630  15.6978216  53.4861145  22.7603073  16.0139122
  53.7734489  24.0529556  15.2807827  69.3958664  44.8138199  29.0573711
  69.8618698  45.6289139  28.8710918  69.3179016  44.3826370  28.2063522
  72.9989777  46.5557060  54.2665138  72.1800308  47.0484428  54.3190460
  73.0708923  46.1194382  55.1154709  65.9256210   8.2612467  61.5513573
  65.0156555   8.2034016  61.2600594  66.0120010   9.1517029  61.8917351
  19.8480396  11.3175678   5.8546557  19.7202587  10.5000944   5.3733644
  19.1366768  11.3322353   6.4949522  44.0391312  60.8274689  36.2193565
  43.7924423  60.8537865  35.2948647  44.9953461  60.8704185  36.2134094
   7.8729148  68.8818359  39.8297691   7.8442845  69.5610123  39.1558762
   8.4099264  69.2585754  40.5268478  11.7597942  60.5854797  45.1929321
  11.9629164  61.0950203  45.9773712  12.0907736  59.7080765  45.3848915
  62.1169701  59.4071236   2.6627092  61.9522095  60.0843849   3.3187618
  61.8222160  58.5959396   3.0766346  15.2386503  50.0855064  49.7910995
  15.8242254  49.3527985  49.9820747  15.7706242  50.8651237  49.9505920
  50.4164162  40.9522934  41.9178123  50.1749420  40.9938698  40.9925041
  50.8950996  41.7657356  42.0772057  80.2325668  40.3774490  84.0880890
  80.2090378  40.1066284  83.1703033  80.5390549  39.6023483  84.5587463
  62.3366890  25.1518078  71.5296249  61.3894157  25.1134987  71.3975677
  62.5582771  24.3069782  71.9212799  38.1175156   2.2877083  61.0627174
  37.6761932   1.4713019  61.2971306  37.4708977   2.9699528  61.2434349
  26.1335812  46.7725449  41.1819763  25.9467678  45.9332275  41.6025467
  27.0330315  46.6871033  40.8658714  39.9654503  14.1720161  11.0056601
  40.6716728  14.7829075  11.2161179  39.9055939  13.6018476  11.7721825
   4.2065783  50.9391365  55.5265083   4.6698637  50.1441917  55.7904396
   4.3960485  51.5688782  56.2220383  76.2183380  67.3672638  74.6425781
  76.6305923  66.9335632  75.3896942  75.7063751  68.0770721  75.0302582
  85.4862213  18.9776287  39.3304405  85.4833145  18.8511429  40.2792397
  85.5983353  18.0972691  38.9717903  63.5806503  26.1066666  29.5741119
  63.5258064  26.9151745  30.0835590  62.6718063  25.8969803  29.3590240
  11.4301090  39.8821373  39.0212479  11.0075626  39.1735992  39.5066948
  10.7995090  40.6016731  39.0502930  56.5355492  25.4399548  12.3079624
  57.0770950  25.5046177  11.5213385  57.1639938  25.4029427  13.0290165
  72.8131256  38.8368835  79.2944641  73.5850906  39.0484085  79.8193970
  72.4710159  39.6871109  79.0182266  69.5448074  19.3971176  49.3232651
  68.7470322  19.8961296  49.4986954  69.2883682  18.4835186  49.4489975
  67.7223434  57.6923218  11.5373478  67.4545059  58.5390129  11.8945665
  67.5386429  57.0674858  12.2388229  64.0282440  22.3404121  44.3154335
  63.8540459  21.4537525  43.9996452  63.3685188  22.8826084  43.8829765
  22.4923267  46.2631874  20.1171780  21.8920498  46.9862137  19.9351521
  23.3171825  46.5285225  19.7104282  48.4260406  68.9333572  51.7117119
  47.5586853  69.1172485  52.0724220  48.2611237  68.3299332  50.9872017
   1.4999189  63.0789261   3.8314791   2.0100775  63.1077271   3.0220716
   1.7391098  62.2449379   4.2358088  86.5932922  66.1661072  85.2754822
  87.2031860  65.7435303  85.8802109  86.2810898  65.4558258  84.7148895
  65.0898590  69.1736221  47.0689888  65.2208405  69.4906006  47.9626312
  64.3945770  69.7295227  46.7171707  73.1391678  16.7147236  17.1748810
  73.9225616  16.5330601  17.6940422  72.6516190  15.8910179  17.1807499
  83.6742020   2.4097450  22.5891171  83.3705444   3.2315669  22.9746437
  84.5947037   2.5688529  22.3803120  71.5912628  52.7330742  38.8430405
  71.2566833  52.2029190  38.1197014  72.5017090  52.4548950  38.9427452
  79.5272675  43.2319107   6.8090963  78.8416367  43.5007553   6.1976542
  79.1975632  42.4215317   7.1974440  14.2820549  38.5791817  84.4868774
  14.5968094  38.3150864  85.3514099  14.6378183  37.9200935  83.8908310
  67.1872940  36.3385315  30.0646744  67.2244339  37.0212326  29.3947716
  67.8214035  35.6830406  29.7740345  65.1999664  58.4882469  84.6900482
  64.8399277  58.7009544  85.5510712  64.4459839  58.1875267  84.1827927
  53.1295433  45.4170990  65.1651382  52.4632454  45.0304375  65.7332764
  53.9380608  44.9616432  65.3998489  75.1866989  45.9435539  20.6353893
  75.9351578  46.2706223  21.1344528  74.6905746  45.4190063  21.2638321
  34.1741638  11.5769644   8.4270506  33.4745026  11.1851301   7.9043956
  34.3658905  10.9230585   9.0992699  37.2603226  32.7287140  44.3615303
  36.3864441  33.1127167  44.2900543  37.4489098  32.3974266  43.4835129
  29.0525322  42.2111664   1.2831609  28.1698074  42.3342934   1.6322607
  29.0793037  41.2916946   1.0184265  36.5704842  63.9727592  81.1988068
  36.4947205  63.2267876  80.6038132  37.2590179  64.5160065  80.8153534
  19.5814743  63.1426163  72.7923584  19.2824440  63.8857193  72.2683182
  19.7707443  62.4578705  72.1508484  40.4451408  10.5277128  35.1911736
  40.2034416  11.2650995  35.7515984  39.9597626   9.7848911  35.5501366
  82.3012314  27.5561638  61.6702003  82.4786835  28.0091400  60.8458481
  81.3560028  27.6438637  61.7930298  85.7627945  13.2294540  69.7173920
  85.8983536  12.9583292  70.6253204  85.6809769  12.4085426  69.2319565
  81.6571045  52.0726242  77.4552689  82.5258789  51.8927460  77.8145676
  81.1023788  52.2038879  78.2242126  66.3249435  33.7641449  51.7647667
  66.7427139  33.6212730  52.6140518  66.8345871  33.2311974  51.1544647
  71.7881927  52.6958084   5.7066860  70.9311676  52.2722015   5.7545919
  71.9667892  52.7696724   4.7692003  63.1342773  41.0180397  11.5919428
  62.3033676  41.4327354  11.3598852  63.0953255  40.1557007  11.1783152
  54.2361488  35.4911842  41.9850883  54.7383881  34.7719383  42.3680649
  53.3484650  35.1437836  41.8981438  27.0932198  59.0542336  63.9724579
  27.2375774  58.3050690  64.5505142  27.7683945  59.6844101  64.2239609
  30.6286774  24.3421478   1.3321463  30.6958714  23.7738895   2.0994778
  30.4757633  25.2152824   1.6933739  68.7535172  37.3922119  63.1502190
  69.1922302  36.7032967  63.6493759  69.4618454  37.8430748  62.6906281
  11.1068192  52.5482750  39.7237091  11.2023602  53.4470062  40.0389633
  10.7809916  52.6418190  38.8285484  43.5709801  63.3216629  78.1212082
  44.3230438  62.7865944  78.3748398  43.1819000  63.5967751  78.9513626
   1.0040957  31.9178467  50.7530479   0.6927027  31.6020966  49.9047737
   0.6698117  32.8127785  50.8129082  85.8889847  57.9200478  53.3417168
  84.9566422  57.7839127  53.1730690  86.2185822  58.3345718  52.5443649
  44.5768852   2.9426858  67.4603119  45.3586922   3.3002231  67.0393906
  43.9961586   3.6961708  67.5663681  86.7102814  48.3856239   2.4304614
  85.8418884  48.7319984   2.2251515  86.5956345  47.4353142   2.4288042
  51.8084068  17.7879696  20.2724228  51.1164436  17.3133545  19.8118153
  52.4582825  17.9796925  19.5963058   4.4307866  61.3898544  24.6628246
   3.5236804  61.2076912  24.4174538   4.6214390  62.2381859  24.2625580
   8.8620300  60.7262802  32.7943649   9.7350740  60.8364105  32.4176750
   8.7204771  59.7796135  32.7981491  23.2461624  62.1623459  50.2481575
  24.0266743  62.1510925  50.8021507  23.5572605  62.4855385  49.4025841
  63.5667686  16.6132965  19.6999989  62.7577057  17.1225338  19.6517868
  63.5563011  16.0717430  18.9107952   6.9641590  56.3153152  32.0824165
   6.6563826  56.5158043  31.1984978   7.0743341  55.3644943  32.0877571
  56.7295532  15.4595156  32.7209282  56.8416252  15.1730871  33.6273651
  57.6217003  15.5816536  32.3962936  70.9120483  49.9095917   2.5636923
  70.4388809  49.0787582   2.6090498  71.6580048  49.7294617   1.9915605
  21.9660206  40.5562668  35.6534538  21.9240456  41.5122681  35.6304092
  22.5893860  40.3272095  34.9641190   9.4256973  25.7854919  77.5558853
  10.1454992  25.5658817  78.1473999   8.7970963  25.0724659  77.6685104
  81.5634155  46.7243462  82.7723923  81.5940552  45.8895874  83.2397995
  81.7923126  46.5020790  81.8699341  44.1977959  48.4675751  13.3292246
  43.5800781  47.7520752  13.1785069  44.4627724  48.7440262  12.4519587
  27.3976822  38.3658180  44.5330772  26.9014683  38.0625496  45.2933617
  28.2745762  38.5418892  44.8740883  36.5405045   7.4544029   6.8317757
  37.0590782   6.8789611   6.2694774  35.6375504   7.1632810   6.7046809
  40.3248787  44.0939293  22.5823193  39.9309959  43.2476463  22.7942009
  40.0642548  44.6667175  23.3035812  50.1136398  34.6628342  18.0535412
  49.9907951  35.3923416  18.6609650  49.5888748  33.9526253  18.4229374
  82.6558609  12.4396172   1.9636991  81.9448547  11.8079386   2.0718062
  82.3793106  13.2010860   2.4735193  15.0939007  34.7897377  24.6905613
  14.6442871  35.2135315  25.4216404  16.0105667  35.0458984  24.7922268
  58.5541649   4.6112652  39.2585411  59.3439789   4.2374253  38.8678169
  57.8725319   3.9607737  39.0898132  19.4515667  52.0623474  48.1128235
  19.9034023  51.2218590  48.1880341  19.7300262  52.4089584  47.2651443
  20.6719112   0.9971513   9.0540352  21.2220211   1.0396795   9.8362141
  21.2924423   0.9344728   8.3279181  41.3399239  35.9831772  72.7717209
  42.1621704  35.6158562  72.4473419  41.6004372  36.7750397  73.2421646
  66.2431335  42.5298538  56.7552452  65.4293442  42.1489296  56.4252892
  66.6531372  41.8234558  57.2543755  44.6913757  29.6026955  72.6689911
  43.8192406  29.9904156  72.5962753  44.8990059  29.3118877  71.7809830
  60.3087616  16.6178722  58.6444626  59.6361275  16.4652367  59.3081589
  60.6239052  17.5040531  58.8222198  51.3737068  12.7051039  53.3452873
  51.2952957  13.6426754  53.5214806  50.4957047  12.3576565  53.5022163
  48.6080475  17.2200947  15.3964195  48.9050522  16.3787632  15.7430849
  48.7426872  17.1506863  14.4512815  38.0443268  25.0163975  21.3947887
  37.1871910  24.6537781  21.6185246  37.8467522  25.8361225  20.9417477
  13.6155186  46.4210281  12.5974503  13.1292877  46.1069984  13.3598137
  13.6816444  45.6572571  12.0242910  62.3353920   8.6554556  64.8949661
  62.7118492   9.2369127  65.5555878  61.5071793   8.3641224  65.2763138
  69.6322708  34.7650490  38.2168388  69.2791595  34.4559364  37.3825760
  69.5896378  35.7193680  38.1560936  54.2531242  53.0688286   3.5916154
  54.4954872  52.9547272   2.6726627  53.6340485  53.7988663   3.5871782
  22.0142307   3.3658915  20.1161919  21.9365425   4.2995858  19.9202042
  21.6341934   2.9287686  19.3541374  53.2455101  26.7711182  26.8653908
  52.3327217  26.7886677  26.5777359  53.6233635  26.0144196  26.4172134
  10.2798004  38.0174828  87.4766617  10.7920732  38.8198662  87.5765991
   9.7282209  38.1792412  86.7112656  37.0117378  47.9714394  27.8779907
  36.6162186  47.1088295  27.7526894  37.9363251  47.7889442  28.0455246
  86.6949539  43.7140465  70.1112213  87.4911728  44.2428436  70.0599365
  86.0223389  44.2528610  69.6946945   8.8076744  46.4282227  77.9493332
   8.6876459  45.7658653  77.2688141   8.3042307  47.1818810  77.6414795
  81.9638672   4.6084957  39.6002808  82.6002426   5.3208995  39.5391731
  81.7212906   4.4255056  38.6925888  52.8919106  42.5831604  38.9743576
  52.2254906  43.1479454  39.3656845  52.6870880  42.5834122  38.0393295
  61.4814301   3.9464226  52.7597008  62.0581856   4.7013874  52.8763771
  60.6787682   4.1842151  53.2238388  18.0428467  52.6659241  61.1590919
  18.7966213  52.5736847  61.7417984  18.2143402  52.0504112  60.4463730
  60.8929710  50.8757515  17.0798016  60.3904610  51.0472145  16.2833633
  61.7077484  50.4813385  16.7686672  58.9691772  50.8001709  19.4711475
  58.5187950  50.6805382  20.3072548  59.4471817  49.9817352  19.3373299
   8.8400545  58.0154915  33.3384094   8.8512058  57.3244324  34.0006371
   8.0210323  57.8779488  32.8624725  16.8775997  39.3904114  25.8014240
  16.2786198  39.9069443  26.3405437  16.3120041  38.9596062  25.1605339
  32.9884377  47.1943932  10.7545147  33.5064964  46.6560631  10.1561460
  33.4763031  47.1746445  11.5778170  44.0108185  35.3018150  20.7298527
  43.1787529  35.4405212  20.2774563  44.2745895  36.1752472  21.0192871
  -0.1388099  70.2885056  50.9736862   0.8108976  70.3991547  50.9284744
  -0.3996595  70.0881271  50.0747757   9.1578655  58.6781502  46.5026741
  10.0265646  58.2781944  46.4623337   9.0706367  59.1456871  45.6719933
  66.4892960   0.5345818  28.9840260  65.8551483   0.6449251  29.6924858
  66.6391678   1.4214094  28.6564484  78.4030228  44.4009247  63.7194290
  77.6942368  44.3675385  64.3618774  78.7666245  45.2817841  63.8095055
  26.0317001  38.3801651  85.4166794  25.4453030  38.9058380  84.8725815
  25.8556995  38.6731453  86.3107758  14.0531359  18.7487011  78.7696609
  13.3171272  18.4808750  78.2193985  14.4262733  19.5060272  78.3185959
  46.1860580  52.3239250  22.6842136  46.2882767  51.4312630  22.3541660
  46.9149551  52.4387856  23.2939301   3.7639921  17.7035713  79.8366623
   4.0836992  16.9622383  79.3224182   3.1840348  18.1766453  79.2399368
   4.4326181  71.3268509  14.0178900   4.6114759  72.0793915  13.4540434
   3.6332846  70.9424896  13.6579418  63.6170692  41.1080513  66.5102615
  63.9685669  40.5660248  65.8039398  64.0323029  40.7676697  67.3026962
  45.1442947  67.8311005  71.9385529  44.8117332  68.7274323  71.8913803
  45.2866020  67.6772766  72.8725357  78.9089966   5.9447880  39.3329544
  78.2623978   6.3198795  38.7350807  79.1008759   6.6498647  39.9512444
  70.6176529   9.5218029  46.6220779  71.2982864   9.8972292  46.0634880
  70.7659225   8.5771704  46.5782928  58.4708252  58.8312225  85.4464417
  58.2720795  58.3146896  84.6654587  58.8503838  59.6418533  85.1072617
  17.4282837  39.2493095  80.0334473  18.0561962  39.9152298  80.3136444
  16.6372337  39.7424431  79.8159714   4.4578605  62.3887405  38.4832726
   4.6628690  62.3873558  39.4182625   5.3007498  62.5337868  38.0534706
  59.5090408  45.7447166  27.2240276  59.8530235  45.4328423  26.3869858
  58.6166306  46.0283241  27.0255127  70.6649551  34.9063034  78.6929779
  70.4783630  34.2223663  78.0498276  70.7852936  35.6995583  78.1709671
  40.0570869  25.6127377  88.8144455  39.8776245  24.7805424  89.2520218
  39.2446556  25.8208237  88.3530502  64.7061691  45.9109573  15.7194414
  64.6634979  46.8209801  15.4257326  65.6257553  45.7760048  15.9482889
  60.6380997   8.9203281  71.9033737  60.0455360   8.2591124  71.5457458
  61.5141716   8.5844460  71.7138519  50.4818230   2.8940213  37.8355904
  49.8939743   3.0967884  37.1078835  50.1531715   3.4219937  38.5632324
  49.5595551  31.1390419  39.8045616  50.2497635  30.7146454  40.3142052
  49.2306900  30.4504585  39.2266922  58.6169739  60.5621033  43.4284019
  59.2994957  61.2332077  43.4249420  57.9544716  60.8911247  42.8208885
  59.3831558  43.5266838  63.7332649  58.6254578  42.9765892  63.9320641
  60.0585327  43.2343941  64.3453674   5.4476628  50.9393272  66.5241394
   6.0886612  50.9254417  67.2348862   5.1718087  50.0273247  66.4325409
  43.5213890  33.1901016  28.5781403  43.4303894  32.6043320  29.3296890
  44.3025169  32.8759079  28.1227798  15.2511711  49.6682396   9.5030899
  14.7572832  50.3337173   9.0240879  14.8209257  48.8430862   9.2789392
  69.7843704  25.8838062  36.2250366  69.6689377  25.1193542  35.6606598
  69.1426239  25.7638283  36.9250336  60.1752052  63.8885155  69.9494095
  60.5740242  63.2927666  69.3151703  60.3295593  64.7613525  69.5880737
  58.2773094  48.6955566  26.6470680  57.5331306  49.2591095  26.4353294
  57.8848114  47.9237404  27.0550823   6.0206723   0.1308172  88.5645370
   5.7007346  -0.5975094  88.0321655   5.7401466   0.9144041  88.0917435
  70.7994461  32.5731316  23.5124569  71.2904587  33.3947983  23.5116558
  71.3676605  31.9550056  23.9721146  17.6996956  35.9857025  24.6638737
  18.5095081  36.0126381  24.1542568  17.9230080  36.4123001  25.4911461
  32.4901810  69.2908020  44.2309723  32.8470840  68.4248428  44.0335579
  32.0312729  69.1766815  45.0632057  73.3614502  22.2519932  26.7933960
  73.3708878  21.3978004  26.3615437  73.8387222  22.1121750  27.6112556
  69.5893478  66.9077682   5.9409075  68.8162766  67.2713699   5.5091910
  70.2261276  66.7935104   5.2354374  44.4691734  58.1382751  86.7738342
  44.2466927  57.2530518  87.0621262  43.6313629  58.6006889  86.7519302
  65.8388443  58.0124435  81.4927750  65.4398041  57.5406456  80.7617416
  65.1186752  58.5126724  81.8766556  46.0997391  54.9790268  43.4875412
  45.6463127  54.8530312  42.6540184  45.4484329  54.7519379  44.1512184
  37.9072037  50.7647629  14.7478123  38.7260857  50.3288994  14.5118237
  38.1694183  51.6535759  14.9875736  34.1429977  63.2406235  77.4267426
  34.5037766  63.6602554  76.6457291  33.9296227  63.9672661  78.0121384
  33.9849510  19.9733715   7.0578918  33.2568817  20.3376141   6.5544319
  34.6918030  20.6100082   6.9516549  12.5893011  71.4486237  82.2807770
  12.3972063  71.3354187  81.3499069  13.3736067  71.9970551  82.2985153
   5.2886305  66.1681671   8.9976444   5.5167527  66.8617172   8.3786278
   4.6836061  65.6053772   8.5144873  45.3007812  33.3380165  81.2367401
  44.6404610  32.8443336  81.7230377  45.1229935  34.2533340  81.4531021
  15.0097914  19.6527233  18.7719402  14.4606304  20.4365101  18.7537575
  14.4970160  18.9902020  18.3089504  83.7896271  34.6179543  30.8462372
  83.1477661  34.7485504  30.1482449  84.5180740  35.1932259  30.6124630
  45.7352333  16.7354584  88.5372391  45.7375450  16.4556675  89.4526291
  46.4714432  16.2683945  88.1421661  28.3718586  51.5374031  21.9026070
  28.7110481  51.2123604  22.7365894  29.1108208  51.4641647  21.2986183
  27.1191711  26.8702507   9.7535334  26.9719086  27.3637238  10.5603971
  26.2941170  26.4097157   9.6004744  65.7238083  38.2440910  43.1439705
  65.9859467  38.3316460  44.0604019  65.4043579  39.1133957  42.9021225
  59.1721268  66.9400406  84.8110809  58.6753387  66.1357727  84.9613953
  58.5053825  67.6224213  84.7334213  11.6405611   0.7831411  22.0705795
  11.2927465   1.6424016  21.8319817  11.4083052   0.2177676  21.3339367
  37.7838745  53.1492996  36.6733322  37.4713860  52.5143089  36.0288353
  36.9877510  53.5607758  37.0096512   2.4937253  14.1873074  79.4733887
   2.5042295  13.2927113  79.1330643   1.6711050  14.2492323  79.9588699
  48.6911736  54.9216728  78.0537415  49.5123558  54.6560707  77.6398010
  48.3805923  54.1326103  78.4977493  60.6455994  56.3553658  75.4523926
  60.7569504  56.1129913  76.3716812  59.8141136  56.8289642  75.4285812
  12.5719271  49.9896889  49.8257408  13.5197086  49.9028702  49.9277458
  12.3441048  50.7581177  50.3490486  25.9291725   7.3187747  71.9321518
  26.4647789   7.6682253  71.2199478  26.4310951   7.5087829  72.7247467
  56.4152107  53.5001183  37.7869186  56.9092293  52.7142410  37.5533104
  55.5767365  53.3986549  37.3364754  47.9064751  55.2935448   1.2462847
  48.5608406  55.9840355   1.3524102  47.4067879  55.5539894   0.4725200
  22.8750439  55.4043884  25.0619507  22.2048016  55.7671280  24.4827881
  22.7702637  55.8874855  25.8816280  86.7713699  42.0735435  45.8553009
  86.5911560  43.0115585  45.7929764  86.3280106  41.7972488  46.6573792
  32.0683517  62.9229469  45.9420357  31.2493935  62.9209633  45.4465218
  32.5084038  63.7296944  45.6741829  59.0263710  64.4337158  61.9476967
  58.5383759  65.2175980  61.6954803  59.0214691  63.8856888  61.1629219
  82.5687103  32.5796051  63.9700165  82.3645401  32.1298637  64.7899399
  83.5168686  32.7080498  63.9969597  81.5739594  46.5480804  49.8235397
  82.3969116  46.6350555  50.3045959  81.4691391  45.6051254  49.6967545
  65.2045593   7.5531163  64.8130875  64.7324677   8.1977348  65.3401794
  65.2042313   7.9201002  63.9290314  50.8885460  20.6478786  82.2082672
  50.9721146  20.7953033  81.2661896  50.4249649  21.4204750  82.5314102
  79.6885452   4.9484096  53.7452354  79.5714493   4.9438114  52.7952347
  80.0893097   5.7971401  53.9330559  27.4189911  63.5973091  28.9756813
  27.6637363  64.0600586  28.1743088  26.5145397  63.8643150  29.1397190
  48.2320633  37.4479408  40.0021820  47.5666656  38.1347885  39.9607735
  47.7369347  36.6439667  40.1593513  48.7927704  47.1653976   4.4869056
  49.4075699  46.6113625   4.9678378  49.3297386  47.5997810   3.8241792
   0.3476378  35.4665756  57.6153107   0.0361844  36.3372002  57.3678436
   0.1388545  34.9143906  56.8618317  53.1104393  47.7580376  41.6415215
  52.7859192  48.3567581  42.3141670  52.5471535  46.9875908  41.7147026
  55.8688240  58.0341034  80.1235046  55.9201164  58.5976143  80.8955536
  54.9306183  57.9300766  79.9648132   2.6912282  48.2687531  37.9450989
   3.4935837  48.6176872  38.3333054   2.8836715  48.2103729  37.0092621
   3.5976174  62.4948044  33.2150116   4.3563986  62.0187874  32.8775330
   2.8942959  61.8456612  33.2286301  47.8861618  25.8405094  67.6954498
  47.7741318  26.2006969  68.5751877  47.9662018  26.6089859  67.1304092
  37.4188843  62.1213455  68.4839783  37.1432915  61.2090149  68.3949280
  37.3497543  62.3020210  69.4214249   6.8582888  27.4190922  40.9543953
   6.7309895  27.7985649  41.8238907   7.2578483  28.1222286  40.4423561
  60.7837524  45.5261040  44.6520996  60.4193039  46.2304153  44.1160431
  61.6503448  45.3649673  44.2788925  68.2054825  22.7546215   8.8569574
  68.0264664  21.9484100   9.3409081  69.1394424  22.9136295   8.9935970
  27.2108269   5.2283092  10.3488054  26.6719532   5.4089117  11.1190195
  26.7023487   4.5933843   9.8442745  18.6512299  56.0162621   1.6278265
  18.2176857  56.0046654   0.7745177  19.2688885  55.2858582   1.5926075
  74.6017456  31.2812138  75.1810532  73.8631363  30.6878853  75.3175964
  74.2006226  32.1451073  75.0861053  43.9480057  49.6004105   5.7831182
  43.6923981  48.7637291   5.3947101  43.6179085  49.5586205   6.6806269
  72.3311386  25.0978374  71.2561874  71.9765015  25.8626919  70.8029099
  73.2539368  25.3095074  71.3971710   8.0864820  57.9719238  67.4853821
   7.1663928  58.2283516  67.4228363   8.1136360  57.3533401  68.2153473
  75.4551010   9.4802017  28.2201862  75.0385742  10.1055193  28.8132381
  75.1995544   9.7729750  27.3454227  46.9603386  10.9718704  -0.1059189
  47.7439423  11.1425018   0.4166529  46.6001091  11.8398333  -0.2878768
  13.1519136  22.3781929  81.3167343  13.3746529  22.8438740  82.1228104
  13.3188190  21.4574261  81.5181351  69.7628403  61.8150520  23.1442318
  70.1375504  61.3306694  23.8798943  69.6129761  61.1507721  22.4715481
  61.6444817  70.0725632  35.4348946  62.2317200  69.3188782  35.3770676
  60.9723320  69.8049469  36.0616570  55.9210892  10.5298796  34.0904427
  56.3766441   9.6980877  34.2201500  55.1031761  10.4336214  34.5782814
   9.9594202  71.1081848  51.0096817   9.1323881  71.3075485  51.4484367
   9.8855553  71.5327682  50.1549911  69.8539886  68.2345123  87.8084946
  69.9619064  69.1569214  87.5766754  69.2296066  68.2413406  88.5339813
  60.4979820  25.5478039  13.2777100  60.9575653  25.3353367  14.0900354
  59.5805588  25.6335793  13.5369606  36.0562515  52.8552513   7.5243816
  35.8564949  52.5140953   8.3961287  36.2099190  52.0751991   6.9913340
  80.1784592  67.4469452  17.9169292  79.4757156  68.0206909  17.6116409
  80.0667725  67.4161453  18.8670921  25.1932011  40.1610909  74.0850220
  25.7584667  39.6384163  73.5162354  24.3192883  40.0670700  73.7059860
  39.7905846  68.7039032  70.3343353  40.4896393  68.4124756  69.7489853
  39.3849182  67.8943329  70.6445923  30.2340374  40.1527977  55.6153145
  31.0003185  40.2491379  56.1807938  30.4427891  39.4058990  55.0542526
  66.7558823  18.9026585  83.8262558  66.7914047  17.9659691  84.0201263
  67.4003983  19.2939072  84.4159698  34.5215416  50.4024239  14.1990986
  33.8049393  49.7690926  14.2391405  34.4648933  50.8808098  15.0262432
  83.4878082  23.8422050  63.6199532  83.6766891  24.5578747  63.0130157
  82.5425568  23.8919964  63.7622375  21.0864906  57.7288895   4.6641755
  21.9659882  57.5457802   4.9946089  21.1162014  57.4644127   3.7447188
   1.8061318  10.0811062   0.9386501   2.6435447   9.6199188   0.8909176
   1.8854319  10.6423779   1.7099589  46.6219254  28.4284973   2.4861693
  46.7664871  28.7450218   3.3778787  46.6991005  27.4768524   2.5543540
  32.7628822  50.0775490  53.2627029  33.2326546  50.8091354  53.6631165
  32.2125893  49.7326660  53.9658890  39.6576920  27.1305981  24.5208721
  38.8888817  27.3792076  24.0076885  40.0198021  27.9618034  24.8278046
  39.9263306  54.8311043  35.2705231  39.3787956  54.8346405  34.4853935
  40.1722412  53.9133797  35.3868980  65.7873840  49.1514053  53.8092155
  65.1030273  48.4889488  53.7141266  65.9706268  49.1733627  54.7484550
  39.1186562  60.4398727  63.0715675  38.2526131  60.7844200  63.2894897
  39.0620422  59.5055542  63.2717705  39.4178734  25.8769245  18.0504551
  38.4840012  25.9649544  18.2411594  39.5024452  25.0048695  17.6649666
  34.2635307   1.1614271   5.0888643  35.1561356   0.8486360   5.2360077
  34.2203903   1.3283502   4.1473188  61.0610580  62.9884644  72.6640778
  60.8813477  63.5664787  71.9225693  61.4747009  62.2188721  72.2731018
  77.2445068  32.5438690  51.6185074  76.7519226  32.3420563  50.8229828
  77.6437759  31.7112713  51.8706894  40.2948685  49.8561897  14.2741947
  41.2054710  50.1023674  14.4367743  40.2807159  49.5830536  13.3569012
  70.3960495  15.4724436  57.5822678  70.1089630  14.5595980  57.6051559
  71.3443451  15.4223375  57.4619827  28.2354507  68.0642166  15.2257090
  28.6621799  67.7499847  14.4285917  27.7117443  68.8120575  14.9381533
  77.3214493  28.2027149  43.8244858  76.6748886  28.8471832  43.5366554
  76.8122940  27.5520191  44.3077927  51.1647148  47.9675140  87.8274765
  50.6254272  47.6797714  87.0908585  51.2259903  48.9170151  87.7229462
  10.4641781  45.7268639   7.5199714  10.2215986  44.9250488   7.9830856
  10.9004755  46.2631607   8.1819859  53.1266479  62.9920235  39.1630974
  52.1823578  63.0215836  39.0092430  53.2116737  62.8809624  40.1100235
   5.5068374  53.3129311  70.0204315   4.9699397  52.6146011  70.3950043
   5.2872148  53.3103561  69.0887680  60.9965019  46.4568062  69.2299576
  60.1740341  46.0310135  68.9881363  61.5358543  45.7509460  69.5864563
  24.1116199   9.1966696  11.9589376  23.2112522   9.2136478  11.6344681
  24.6380501   8.9684134  11.1927767   7.5002427  68.6114502  69.6356964
   7.3407087  69.0438385  70.4746399   8.1011534  67.8964386  69.8452072
  64.5383835  35.5584526  82.2911148  64.7145081  36.3231392  82.8392639
  63.9442177  35.0204430  82.8143234  63.3949509  24.8049011  22.7130356
  62.9544411  25.4918480  22.2127514  63.0733643  24.9164772  23.6076660
  42.8333435  67.3220596  87.0376053  43.6547012  66.8728333  87.2370987
  43.0511780  67.9092178  86.3137054  68.0461044  32.4315338   8.0283833
  68.1663589  31.7898960   8.7284336  67.6929550  31.9248142   7.2971163
  82.9801331  55.0213623  79.9415741  83.1940231  55.3989296  79.0883942
  82.6644211  54.1402206  79.7411957  68.5284195  32.4427223   5.0675979
  67.6840668  32.8775368   5.1868949  68.3046112  31.5281639   4.8951817
  21.5457191  60.8643494  81.7620087  21.7188301  61.1055603  82.6719971
  22.2878704  61.2214508  81.2742310  60.1296921   5.1869092  25.7934780
  60.7654228   5.3066735  26.4989796  59.3048897   5.5089884  26.1570721
   4.1844473  42.1142426   6.9363494   4.0337119  41.2795677   7.3800068
   3.5052228  42.6944008   7.2803025  37.8273621   9.7961550  11.0650234
  37.3051910  10.5741920  10.8695002  38.4840202  10.0997143  11.6918287
  24.1009235  65.1138153  42.9579811  23.9713001  64.9488373  42.0240593
  24.2784653  64.2504959  43.3313293  43.0001984  26.7272930  63.6641884
  43.7502594  26.5453243  64.2303467  42.7595291  27.6309261  63.8685303
  56.4299545  29.5650806  56.9687729  55.8797607  29.2532845  57.6873169
  57.1841927  29.9656754  57.4010658  24.7506237   4.7056231  20.9946594
  23.9749241   4.1991210  20.7538719  24.4017410   5.5119901  21.3745079
  78.9799194  30.1106567  75.6364746  79.7270432  30.1138535  76.2348328
  78.5438461  29.2748451  75.8022842  80.7694092  25.3398857  70.0603333
  81.5629883  25.5820580  70.5376434  80.3715210  26.1758842  69.8173981
   0.9291254  29.4295845  38.9263153   0.0561143  29.8185501  38.9791374
   0.7675344  28.4937916  38.8062668   9.1409683  66.9369583  16.1041069
   8.6579666  67.6618805  15.7073288   9.5439739  66.4838486  15.3634920
  61.4284248  60.4364471  30.7058582  61.2674446  59.5104256  30.5247364
  62.3468399  60.4720688  30.9732208  39.9382629  50.6886864   6.5594311
  40.3366737  49.9743538   6.0622063  39.2570496  50.2657776   7.0822401
  21.5746307  44.2093735   9.2373857  21.2791424  44.1180191  10.1432409
  21.8189449  45.1313667   9.1569719  10.2827892  37.4361343  40.0079155
  11.1467438  37.5047989  40.4142380  10.3922806  36.7773018  39.3222160
  22.3405876  -0.1731409  60.5965385  22.1925354   0.3909309  59.8375053
  23.2785339  -0.0974200  60.7719040  13.4283667  51.4999008  25.1585217
  13.7967339  51.1376915  25.9643402  12.8966265  52.2405281  25.4499989
  80.3795624  16.8046284   6.2336326  80.0897675  16.9229240   5.3290558
  80.5271378  17.6937237   6.5560713   3.9686370  44.2910004  51.7943954
   3.9600763  43.6527100  51.0811310   4.7772608  44.1057205  52.2719193
  35.8120689  63.1282654   8.1897783  36.0047646  62.7219391   7.3447924
  36.0985870  62.4833984   8.8365297  21.4652920  69.9377747  53.5234871
  21.8910484  70.7950592  53.5178413  22.1874657  69.3120651  53.5798645
  68.1165161  21.4531441  88.3903961  67.4381027  22.1051388  88.2146378
  68.5039902  21.7286453  89.2211685   3.6081188  12.6764669  69.2690353
   4.4174671  12.3349447  68.8888397   3.6633284  13.6232033  69.1391373
  65.9572449  45.3484306  78.8830719  65.8214188  44.6722946  78.2192764
  65.2107468  45.2562675  79.4750824  46.2442436  27.1214523  72.9898758
  47.0550232  27.1072731  73.4984589  45.8448524  27.9657555  73.1993332
  58.2286415  25.8501225  52.2659492  57.5002556  26.4706650  52.2412529
  58.2126579  25.4277287  51.4071350  74.5761185  32.6094208  38.4592628
  75.0261765  33.0327835  37.7282066  73.8529510  33.2001457  38.6697617
  37.1688728  57.4967384  10.3258533  37.1969223  56.6439362  10.7596436
  36.6663704  57.3421631   9.5259590  80.6074448  36.7068634   3.3841844
  80.6539001  37.4795036   2.8210669  80.1896286  37.0199661   4.1864481
  76.5137939  30.9599438  77.2972260  77.0225143  30.1547050  77.2022095
  76.0306244  31.0364876  76.4744644  40.9619598  55.7399330  50.3196907
  41.7240601  55.3405914  49.9002113  40.3657036  55.0083618  50.4794159
  53.1866608  34.0932045  30.9816399  53.0004578  33.1557274  30.9297142
  54.0102272  34.2005348  30.5057716  49.1285706  29.0851040  38.0515938
  48.3111877  28.6021233  37.9297523  49.8136826  28.4223766  37.9641571
  77.2405090  55.3482475  51.8584900  77.0802536  54.8865013  51.0354805
  77.5939865  56.1969528  51.5920601  51.6442413  49.4777565  39.2504501
  51.3593636  49.0669746  40.0667458  51.5784950  50.4175949  39.4196014
  11.3147984  54.8311272  67.4046402  11.6662779  54.6611977  66.5306778
  10.6259680  54.1761055  67.5173035  23.3996906  57.7345352  85.8395920
  23.8684502  57.4027863  86.6053848  23.1115170  56.9482422  85.3759842
  73.4105988  51.6962166  19.5601921  73.7089462  51.9646111  20.4292049
  73.6082687  50.7606239  19.5174694  57.7611122  25.7367287   5.5725832
  57.8723068  26.6287403   5.9014921  58.1872711  25.1847992   6.2283235
  45.6110611  57.4977417   5.5850587  45.3552094  56.6005096   5.3711662
  45.9909477  57.8380318   4.7750468  66.0929260  48.9782524  17.6537132
  66.5804596  49.1991386  18.4472847  66.6956406  48.4352150  17.1456947
  78.2774582  60.2103233  64.4245682  78.5678787  61.1220398  64.4502029
  79.0741730  59.7009010  64.5727692  67.9097977  35.1204224  75.6596832
  68.6818008  34.5846558  75.8418732  67.3892059  35.0708313  76.4614105
  22.8906174  39.5106430   7.2436829  23.8035126  39.7834282   7.1517906
  22.6496620  39.7756119   8.1313562  30.2184677  26.1299267  87.9679337
  30.1183834  25.3779373  88.5516510  30.8304005  26.7075119  88.4241791
  49.6923409  48.0148125  54.8355522  49.6594658  48.9712448  54.8159866
  50.0387611  47.8047562  55.7027893  42.1624298  13.3744459  81.5084534
  42.2364502  12.5589790  82.0042038  42.5492592  14.0379772  82.0797043
  74.9161377  17.0747566  67.1818924  73.9610062  17.1263142  67.1460495
  75.0987701  16.5561295  67.9654160  24.4501209  25.5368710  10.0650845
  23.9069290  25.8965874   9.3638144  24.4808903  24.5970573   9.8860960
  66.4590607  26.4885941  70.9207916  65.5773010  26.5751343  71.2830658
  66.8467255  27.3576813  71.0239105  27.2887268  58.0842552  34.9379616
  27.2653904  58.4514771  34.0543137  26.9623337  58.7881355  35.4985428
  70.6700134  49.7700882  58.7100143  71.4061050  49.4831657  59.2504539
  70.9808807  49.6715431  57.8100815  39.0753632  63.6697044  28.9297142
  38.6510277  64.5236130  28.8460026  38.7003021  63.1454735  28.2220802
  81.2726974  66.9367752  58.6718597  80.7422562  67.3672867  59.3423271
  81.2544632  67.5394974  57.9284744  70.2240524  46.4356422  66.1707993
  69.8764801  45.7094154  66.6885071  71.1647568  46.4270821  66.3475037
  62.7087860  48.0203705   5.8599334  62.6624908  48.5295143   6.6691689
  61.8250618  48.0691185   5.4953971  48.5842400   5.7343955  20.6737461
  48.7526932   5.1796775  21.4354172  47.7256165   5.4530606  20.3577538
  37.1843987  61.7006187   2.8976059  37.6401825  61.8000107   2.0617754
  37.8450623  61.3406334   3.4893544   3.8497660  15.8751268  75.0043716
   3.6721001  15.7421083  75.9354858   4.5438333  16.5340023  74.9847107
  38.7440605  34.5796967   6.9771585  38.2526436  33.7599297   7.0293441
  38.2016907  35.2143059   7.4454942  75.9027405  41.1743889   2.7644506
  76.1601715  41.2026215   1.8429509  75.4291916  40.3475456   2.8556139
   9.8551750  49.8975868  43.0000153  10.5299015  49.2517281  43.2094078
   9.2471170  49.4313278  42.4263420  17.0303555  39.5720482  12.0685101
  17.4260731  38.7350616  11.8254147  17.7092762  40.2208138  11.8830395
  75.4200439  63.2654495  49.8174973  75.9537125  62.7891998  49.1814003
  75.1519852  64.0608978  49.3574562  24.4402714  45.4423485  15.8058872
  24.2262554  46.3742790  15.8499022  25.1285877  45.3235016  16.4603558
  69.5025330  44.4433136  68.1209869  70.0051270  43.6585579  67.9023743
  70.1187134  44.9962425  68.6014328  46.9875603  42.0259361  62.5652542
  46.6999474  42.9341164  62.6586456  46.2837296  41.5101395  62.9587135
  64.7607269   0.2632014  49.9429359  64.2104187   1.0458688  49.9716263
  65.4292831   0.4643542  49.2880974  52.9353752  60.5575447  13.1980791
  52.1868401  60.0299683  13.4766331  52.6689529  60.9251823  12.3554077
  41.6387939  21.6274586  12.4615927  41.2006645  21.1818218  13.1866341
  41.0397720  21.5271530  11.7217636  59.1415672  33.3820419  45.7135544
  59.5868416  33.9390831  45.0750656  59.7636719  32.6765327  45.8909569
  54.3332520  46.4514542  55.4355965  53.4425278  46.4254456  55.0860748
  54.3937035  47.3000374  55.8743248  33.7360497  27.4040356  10.4610996
  33.9725685  28.1052437   9.8539772  34.2614021  27.5764046  11.2424603
  79.1897049  27.8133678  28.6403465  79.6136932  27.7243977  27.7867947
  79.4512634  28.6810684  28.9484253  75.7543259  45.4013672  75.3434525
  75.2719727  46.2261772  75.4004898  76.3246002  45.4037437  76.1122208
  76.2154083  15.8034182  47.7728081  76.9132690  16.0553341  48.3775864
  76.5589294  15.0346708  47.3175545  70.6237106   1.4445251  33.7295418
  70.6689072   0.6723876  33.1656342  70.6645737   2.1854327  33.1248779
  26.7328491  43.0903130  78.0444107  27.2514191  42.9830093  78.8417892
  26.6574612  42.2056046  77.6868668  40.9148407  58.0387001  54.6395073
  40.5185432  58.6344643  55.2753143  40.1861305  57.7621078  54.0838928
  28.7097607  38.8803902  19.7490425  29.5212078  38.3733292  19.7230396
  28.9964943  39.7849426  19.8747482  60.1919441  29.5274811  67.4401855
  60.1936569  28.5880089  67.6235428  61.0210609  29.6848679  66.9884949
  83.7883453  29.0202122  79.7763901  83.8392563  28.0698681  79.8787918
  83.2324905  29.3096371  80.4999161  42.3431015  42.2064209  64.9573975
  42.2183228  43.1362801  64.7676086  43.1404686  41.9701309  64.4834747
  30.5998554  43.7894821  33.5389633  31.1311378  43.3085175  32.9044228
  29.9728508  43.1437492  33.8647385  30.8565426  64.6784286  79.8771057
  30.9668274  65.0009918  78.9826660  31.1674900  65.3950882  80.4302216
  19.3135700  43.8313828  50.6941299  19.6908245  43.4721031  51.4971428
  18.5873699  43.2433090  50.4866867  20.2554436  61.0282288  70.8157272
  20.2276993  60.6652069  69.9304733  20.3799934  60.2672539  71.3828583
   1.6467423  67.2262802  81.6789017   2.0098300  67.9023132  81.1067352
   2.3391061  67.0557785  82.3174896  20.2055721  26.5212345  85.3277969
  20.2760925  25.8381653  84.6609573  20.2587776  26.0504189  86.1595001
  72.3959045  53.6345215  50.9312286  72.5558014  54.5327454  50.6416435
  72.6487198  53.6319160  51.8544350  51.1298332  38.9749146  20.1235561
  50.7097855  39.7645302  19.7825317  51.4635239  39.2331543  20.9827385
   4.7165756  20.8272800  35.4698105   4.2287588  20.0276127  35.6667862
   5.3068848  20.5786648  34.7585068   2.4163418  34.0108490  46.1732979
   2.9340580  33.3300591  45.7434959   2.7284031  34.0136299  47.0781975
   4.5039611  49.2586403  15.0934544   3.9616675  49.1099739  15.8680820
   3.9585738  49.7957802  14.5187693  75.2182236   0.8036730  64.2626724
  74.7169342   0.0127700  64.0641479  74.5762329   1.5121335  64.2161255
  65.4864578  53.7123146  43.2204323  65.8174744  53.9175949  42.3460617
  65.0454407  54.5132446  43.5037117  86.4470901   7.4955444  53.3432312
  86.7493744   6.5881667  53.3822441  85.9522629   7.5482078  52.5255508
  68.3347397  29.2819538  40.3003578  68.4700546  30.2099171  40.1085129
  68.8127594  29.1338768  41.1163216  66.3288498   5.4242806  69.4272614
  65.4679718   5.6650691  69.0849991  66.9253311   5.5576296  68.6906052
  50.8406715  14.9746075  31.5908241  50.2489471  14.2349472  31.7286568
  50.2681465  15.6919098  31.3189316  55.0389977   8.8938560  12.3352957
  55.2148361   8.4152355  11.5252123  54.1191711   8.7108593  12.5267649
  39.5050659   4.3106999  65.1420364  39.5723152   4.0402684  66.0577774
  39.0568428   3.5836668  64.7098923  29.5478115  30.2345238   1.5079134
  30.1782055  30.9395409   1.3603054  28.7138424  30.6838017   1.6453019
  16.3122997  34.3542061  68.7037735  16.0947857  33.4225845  68.7354279
  15.7113256  34.7185249  68.0539017  16.4091034  64.0431137  72.8129959
  16.3044014  63.8767014  71.8762054  16.7782459  64.9250259  72.8598022
  41.0788307  32.3956642   5.0459075  41.8289337  32.0084419   5.4971704
  40.4935455  32.6745949   5.7500887  61.5823708  37.2973709   5.4874773
  61.1648254  37.0742760   6.3194132  62.3621407  36.7431946   5.4546571
  29.3478107  41.4544449  63.6782303  29.1305466  41.6210060  64.5954437
  29.3463879  40.5003510  63.6012001  65.0696869   0.4599141  25.9939137
  65.3940201  -0.2984106  25.5081367  64.1171341   0.4028539  25.9189434
  42.5185165  59.6488075  30.9800510  42.6785889  58.9134331  30.3885860
  41.5961266  59.8670692  30.8466702  76.4662628  20.3613358  84.9027634
  77.2573242  20.8526478  84.6812439  75.8908920  20.4804058  84.1471176
  53.3110886  18.8030968  15.6646576  53.8123627  18.6998463  14.8557730
  52.3978539  18.8279724  15.3789692  49.2068863  65.8350677   9.5381708
  48.6145973  66.3899155  10.0456800  48.6804619  65.5392609   8.7954693
  47.0250359  36.7285423  68.9826813  46.7748451  37.5235214  68.5118866
  47.9053650  36.9115906  69.3109207  86.6316833  23.4261513  15.8557119
  86.1406403  22.6484642  15.5905495  86.1510086  23.7673092  16.6098938
  21.2000618  56.3018608  66.0719681  20.5763035  55.9089546  65.4614105
  22.0402241  55.9027596  65.8459702  14.1263695  48.6302948  24.7658768
  14.4144936  48.4366837  23.8738403  13.2009449  48.8572578  24.6747169
  56.1465416  10.8646507  42.9909286  56.7848816  11.4692984  42.6125679
  55.5925369  11.4160786  43.5434113  30.4575882   1.8992811  43.0067978
  30.4613419   2.7658634  43.4133110  31.3594837   1.7680614  42.7142296
  55.2444229  41.9826431  43.0289001  55.2663078  41.1721230  42.5201645
  56.0203056  42.4653435  42.7438850  70.6526947  59.9254761  17.8704224
  70.3681335  59.8719292  18.7827778  71.2426682  60.6788864  17.8473682
  -0.1296545  58.6725388  69.2203827   0.1233790  58.0855141  68.5079193
   0.3467005  58.3433418  69.9825821  54.9242287  56.7199707  55.5961571
  55.0795326  57.6252022  55.3265839  53.9802551  56.5983582  55.4943962
  15.4495964   0.8232886  16.3952618  16.2433834   0.4783492  16.8041039
  15.7543936   1.2250160  15.5816622   2.8534851  24.5409222  51.4581642
   2.0898769  24.9729786  51.8408661   3.1147530  23.8927097  52.1122246
  45.5809364  33.1756020  18.1927071  45.7603531  32.4092674  17.6479435
  45.2278328  33.8246613  17.5842056  52.9606438  48.5076637  48.0973701
  52.5136795  47.9213676  47.4868698  53.8888359  48.2971802  47.9954834
  54.1239281  13.3069201  87.9182053  54.1223755  13.0670853  88.8448715
  54.9835358  13.0303745  87.6006699  72.0848923  50.1057854  80.7393265
  71.7647247  50.5088425  79.9323120  72.6275330  49.3749962  80.4431458
  37.5687752  16.2360783  72.2159042  36.9590569  15.8138762  71.6107407
  37.0082321  16.6329021  72.8826523  56.1502266  40.6158791  29.0479870
  55.5148849  40.9281654  29.6922321  56.8942642  41.2114296  29.1371994
   0.8502707  23.3626175  82.7043076   1.3000163  23.2373867  81.8686752
   0.1264165  22.7366714  82.6828842  79.9163437  11.6475763   4.9424009
  79.4770889  12.4951057   5.0130010  80.1091690  11.4016418   5.8471475
  46.6446686  68.1735077  83.2784500  46.7943077  68.7925949  82.5639114
  46.0762482  68.6441727  83.8880463  13.8149767  50.7023430  88.3413773
  14.1874332  51.0871048  87.5479889  12.9069757  50.5073738  88.1095276
  63.1367760  41.0052567  62.1150665  62.2699394  41.1581535  61.7389641
  63.4024200  41.8580894  62.4590721  17.3532352  32.6150246  79.5068359
  17.0310287  32.3468475  78.6463089  17.1827488  31.8614769  80.0719299
  51.0917320   5.5393267  80.1222687  51.2671890   4.5987730  80.0938873
  50.4513664   5.6846361  79.4258194  65.3349152  53.9939079  83.3547821
  66.1837769  54.4168549  83.2252426  64.7492752  54.4398270  82.7428818
   5.3834829  10.4575911  52.0577621   4.5062366  10.0746546  52.0522308
   5.2449355  11.3700008  52.3118172  81.8057098   4.1957850  23.4958515
  81.7193909   5.0908709  23.8238773  82.0334854   3.6785121  24.2683678
  52.9565506  66.6604919   1.8372762  52.5447273  66.9267044   1.0152278
  53.2933197  65.7816315   1.6628438  30.3096199  20.1413212  13.1799183
  29.7014523  19.8825989  12.4875107  30.1758785  19.4925671  13.8709049
  21.1348782  57.1714745   2.0467675  21.7392521  57.3444786   1.3249400
  20.3645248  56.7880821   1.6274858  78.3445969  50.2059021  80.6869736
  77.9873199  50.6103249  81.4775620  78.5883942  50.9446526  80.1292572
  57.3038597  66.4263306  54.3045273  56.7680931  66.9075089  53.6739311
  58.2051086  66.5868454  54.0248528  28.0031834  58.6819801  81.1879272
  27.5904522  58.0989685  80.5507584  28.9356327  58.6486244  80.9742584
  51.8125076  14.9830818  78.9086075  51.9894295  14.7361593  78.0008850
  52.0764160  15.9015875  78.9627609  28.6587467  44.0129585  54.5999603
  28.5211983  44.6234093  53.8756256  29.5266914  44.2338142  54.9377861
  85.8739548  12.3753939   7.6202226  85.6269073  11.5298586   7.2456970
  85.5608749  13.0193777   6.9850087  68.0876999  17.2540131  10.2160225
  68.2145844  17.2939014  11.1639366  67.1375046  17.2335339  10.1022167
  17.3395481  40.6686172   2.5049853  17.5396328  41.4786606   2.9740539
  18.1902027  40.2479668   2.3798003  13.3460903  68.6210709  79.8556595
  13.5052900  68.3428650  78.9537201  14.1786280  68.9978027  80.1405945
  50.1710548  63.4148293  80.9966354  51.0042191  63.7870789  81.2856064
  50.3382301  63.1195831  80.1015854  69.6962280   0.1836990  70.1482086
  69.4621658  -0.7422441  70.2120590  68.8605881   0.6340475  70.0252075
  16.9908123  21.6942329  83.0758514  16.9572430  21.1214027  83.8419876
  16.2186489  21.4544563  82.5634995  69.6060638  35.2338448  64.5352173
  70.1753693  34.7547989  65.1374130  69.7801819  34.8429832  63.6789780
  47.3388214  13.8255310  23.4765034  47.1217995  14.7578011  23.4784908
  46.5031166  13.3853989  23.3212337  51.2611046   1.0845391  85.8938141
  50.3229866   1.0240483  85.7135239  51.3125725   1.4716362  86.7677383
  82.2269135  11.7079268  72.3613663  81.4622116  12.2834949  72.3749619
  82.9043655  12.1986828  72.8266068  35.8882027   2.2258949  80.0978165
  35.9528389   3.1660395  79.9299393  36.7964020   1.9329437  80.1725540
  18.5696964  29.6104012   8.8599720  17.8497353  29.0410156   8.5885162
  19.0399532  29.8049374   8.0492649  65.5843964   8.2667780  75.3461151
  65.5889282   9.1012440  74.8772049  65.8191376   8.4960527  76.2453156
  28.7213326  59.3572655  22.3422203  28.0118027  59.9892311  22.4580669
  28.3712292  58.5374908  22.6909714  60.5256042  65.1909332  55.7125130
  60.0121727  65.9913635  55.8217545  60.0381622  64.5255585  56.1982117
   3.0048323  43.4195633  76.6508713   3.7428706  42.8104782  76.6274261
   3.4003232  44.2673988  76.8533325  84.7629013  67.5482178  49.2841072
  84.1215363  67.1656494  48.6853409  85.5472183  67.6699829  48.7490807
  29.7999287  58.7755928  19.4562073  29.3157177  58.6355858  20.2699451
  30.7119942  58.5989799  19.6868038  64.6337967  12.9991446  78.8562851
  65.2027512  12.4761639  79.4210968  64.3106155  13.6988935  79.4238510
  44.2825928  57.7394104  50.5846291  44.1478386  57.0776329  49.9063034
  44.8129463  58.4134598  50.1596451  79.4116516   0.2461704  20.0243149
  79.3558578   1.0408711  20.5549469  79.7349091   0.5473532  19.1751842
  53.9317436  18.3688622  22.1344986  54.4747505  17.6379318  21.8393421
  53.1350899  18.3033218  21.6079273  67.8853378  41.2685280  45.4332352
  68.6624222  41.0518188  45.9484177  67.3401337  40.4831772  45.4802322
  58.0386200  66.7720642  49.8475113  57.9528275  66.6240616  50.7892990
  57.4987564  66.0901794  49.4477425  33.2443657  58.9362183  83.0288849
  32.7485161  59.6394958  83.4481354  33.8817482  59.3888855  82.4765549
  51.6765137  51.4336891  73.6857910  52.0246849  51.3413353  74.5726242
  52.3010635  50.9638481  73.1331482  83.2446365  38.2328758  83.7581787
  82.4027176  37.9217949  83.4255753  83.8940735  37.6897964  83.3114929
  38.0329056  54.4915199  33.3332062  37.4796104  54.6484299  34.0983696
  37.6808128  53.6914978  32.9430428  79.7150726  42.5418510  27.9768639
  79.7661972  42.0171471  28.7758026  79.7232208  41.8993263  27.2674084
  23.5980053   4.0869360  51.0976715  24.4481335   4.2901111  50.7074966
  23.0389729   3.8667188  50.3525429  66.2799377  31.5520763  23.2258968
  66.7650757  32.3401375  22.9812927  66.8035278  31.1548290  23.9217987
  81.0795288  20.1812382  53.4648514  81.9635162  20.5408955  53.5385895
  80.9147873  20.1418419  52.5227585  49.0717010  51.0041656  54.0816269
  49.9722786  51.2240562  54.3200340  49.0718231  50.9988480  53.1244392
   0.9804450  70.5557861  82.8510208   0.8124830  70.3172379  81.9393616
   1.5033227  71.3557205  82.7968445  49.6103516  65.4109802  22.1329021
  50.1086044  66.1674500  21.8235054  49.1847534  65.7159653  22.9342003
  84.4193420  11.5181532  84.4305496  84.4507141  12.3206377  83.9097214
  83.5938339  11.1028042  84.1810455  68.4842682  31.6624222  62.4314690
  68.1169815  31.7516384  61.5520477  68.2042160  32.4548836  62.8895187
  78.6018677  39.1261101  23.1104660  77.8474121  38.6612778  23.4723492
  78.2250137  39.7409668  22.4810505  31.0676422  37.9636459  12.9794950
  30.6600552  37.0995674  13.0384464  30.5318413  38.4383545  12.3440418
   1.9484524  35.1931725  16.3825760   2.5487845  34.4889679  16.1377716
   1.0832433  34.7837982  16.3749390  76.2737579  57.3780746   7.1805434
  75.9561768  57.2667923   6.2844439  75.5912704  56.9879951   7.7266979
  24.2294903   5.2343278  71.2659836  25.0016365   5.6261373  71.6740341
  24.0794296   4.4290962  71.7612762  42.7879295  22.4113560  64.3210754
  43.1985703  22.6696930  65.1462250  41.8755875  22.6866035  64.4110947
  29.7904892  35.0100861  71.8360062  29.2919216  34.2446060  71.5501709
  30.7023964  34.7192879  71.8262558  45.1594849  25.9708195  65.3526917
  44.7577019  25.2488441  65.8359680  45.9347115  26.2000408  65.8652496
  78.2801971  41.1726570  50.7507706  78.9533234  40.8582573  51.3543358
  78.5500183  40.8378296  49.8955994  28.8702145  59.9104118  73.4378052
  29.5657787  59.4934883  72.9292831  28.6542931  59.2715340  74.1171036
  78.4142303  56.2365341  42.9547386  77.5791550  56.1511955  42.4947281
  78.7229996  55.3365860  43.0595436  57.2060394   8.2528696  43.3338356
  57.9847717   8.2443810  43.8903732  56.9788818   9.1792803  43.2538757
   8.5757236   5.5225673  66.2330399   7.9404960   6.0123467  65.7107086
   9.2994061   6.1348171  66.3659515  13.6267586  12.2396107   8.5373487
  13.4833727  12.8861036   7.8461761  14.4201212  12.5370665   8.9826889
  36.8896675  71.0341415  20.8410492  36.6383438  71.9550934  20.9111156
  37.8451881  71.0501022  20.7866287  11.8868008  66.5697937  63.1055298
  11.2786331  65.8444366  62.9633331  12.5655565  66.2053986  63.6736259
  33.1863823  12.1686440  70.3762436  33.6542587  11.4334097  69.9803238
  32.9309731  11.8514595  71.2425003  23.9794350   0.9219824  21.8674831
  24.6502819   1.3184592  22.4233627  23.2460327   1.5361116  21.9021168
  41.4816017  25.2189960  83.0153809  40.9844856  24.7165546  83.6608658
  41.5344048  24.6431198  82.2526093  20.9676857  49.1381111  54.8091431
  20.9468441  50.0243874  54.4481544  20.0464115  48.9010162  54.9153214
  50.0967751  23.1536560  39.9173737  50.9003906  23.4639187  40.3347130
  49.8007278  23.8939686  39.3877258  62.2435303  19.1343155  88.3703156
  61.8190613  19.9827576  88.2430267  61.6369324  18.5026588  87.9839478
  78.8700790  68.2457047  42.3685074  79.2247849  68.0838776  43.2427101
  78.0819168  68.7665939  42.5224762   0.1379510  56.0763016  75.2071609
  -0.5496632  56.6952438  74.9615479   0.4265987  56.3695297  76.0714188
  70.8743591  57.7735901  56.3804665  71.5635605  58.3856316  56.6386070
  70.0673218  58.1686134  56.7104340  38.6129456  66.1920395  57.1622314
  38.4452705  65.2499313  57.1856575  37.7473183  66.5915756  57.2476196
  34.1901855  37.8601761   0.0827167  33.4725571  38.2000313   0.6172641
  33.8410950  37.0573769  -0.3044226  67.6558304  27.3273849  54.0812721
  67.9260406  27.0901127  54.9683533  67.9055252  28.2471981  53.9927979
  60.8396606  48.5387421   0.2577450  60.6097641  48.1977310   1.1220894
  61.7894478  48.4329872   0.2034024  62.7265549  39.2638664  49.4450417
  63.2757416  38.6681290  49.9546700  63.2886162  39.5513420  48.7255440
  21.8562450  18.9096165   7.4083557  21.5043831  19.6905289   7.8356738
  21.0910988  18.3554115   7.2546010  50.3770370  67.8526154  34.6488037
  49.5264549  67.5138168  34.9280128  51.0144958  67.2760010  35.0699806
  61.2731361  28.2438736  10.1390429  60.9117966  27.3707657  10.2918425
  62.0851212  28.2590733  10.6456833  63.2767448  57.1333809  72.7298889
  63.0360489  56.2586174  73.0349960  63.9927254  57.3996391  73.3067017
  52.6429634  57.6144295  79.7283249  52.3964958  57.4819221  78.8129425
  51.8954849  57.2855225  80.2276535  77.2658386  60.9798698  52.4417610
  77.0303726  61.8148117  52.0372086  78.0607910  61.1707001  52.9396210
  20.0232372  67.3678970  15.6426382  20.7513409  66.7939148  15.4046459
  19.2477608  66.8105316  15.5777206  83.8554535  64.7510300  24.7047157
  84.1575165  65.2517471  25.4625206  83.5672073  65.4149780  24.0783672
  20.8134174  51.6750488  83.0275345  20.0291042  51.1279144  82.9859467
  21.0923386  51.7635078  82.1161575  59.9849281  25.6135330  80.2175522
  60.4153328  24.9347591  80.7374115  59.8409004  26.3318100  80.8336411
  40.5016632  59.7052040  56.7698593  39.5527573  59.8267784  56.8018570
  40.8201637  60.0905457  57.5861320  56.7093620   3.6385849  70.9491882
  57.6048279   3.8405166  70.6778946  56.1722488   4.3009148  70.5143814
  81.7923431   6.0038743  10.0518131  81.1572418   5.3250079  10.2798796
  81.4052429   6.8146553  10.3819962  56.9683418   4.2206440  23.3860645
  57.5227165   3.4954336  23.0980167  57.5635147   4.9679055  23.4460793
  72.2183609  49.4374657  56.5804443  73.0411377  49.7476463  56.9586792
  71.9842072  50.1053391  55.9359665   0.3777363  63.1719780  60.3872375
   0.5905715  62.8394241  59.5152626   0.5874419  64.1049957  60.3455124
  23.2897339  39.8300705  58.1800423  24.1237106  39.5309830  58.5423393
  23.2980061  39.5219421  57.2738304  17.7014027  28.2760849  15.2358446
  17.7058392  28.6906300  16.0986099  17.1177311  27.5238762  15.3345423
  36.7594986  30.3033543   2.6726508  37.3853683  31.0216980   2.7648518
  36.5886536  30.2537746   1.7321270  62.6100616   6.3702140   0.8582360
  63.3096733   6.0038218   1.3991020  61.8098869   5.9695635   1.1979800
  79.9541702  12.6413603  41.0358734  80.3238449  13.5118589  41.1835327
  79.0102997  12.7889538  40.9761887  62.4516907  21.9729691  79.1934052
  61.5325165  21.7524529  79.0426636  62.8841171  21.1275959  79.3141556
  45.8932953  35.4062843  26.9403419  46.0088997  35.7722588  27.8172283
  45.3844795  34.6075249  27.0793381   0.9026532  22.6611137  71.2819138
   0.0840526  22.1652985  71.2989731   0.9137681  23.0754681  70.4191132
  16.0550995  49.6909981  28.8374596  16.2346821  48.8134041  29.1748180
  16.0825481  50.2549744  29.6103821  30.4141331  42.7254944  57.4013405
  30.1552296  42.5077286  58.2967606  30.4315968  41.8838921  56.9456711
  83.8468628  52.8530312   6.5187302  82.9776459  52.6443825   6.1764603
  84.0413361  53.7211418   6.1654677  46.1250839  69.0839844   0.6261870
  46.5936432  68.8320770  -0.1695661  46.6640358  68.7425232   1.3397415
  78.8837738  25.6049843  45.5411415  78.5183716  26.3146667  46.0694084
  79.2062607  26.0368118  44.7500916  39.3426781  69.3613586  51.9542923
  39.0393791  68.7996063  52.6675034  39.8631363  68.7819672  51.3978233
  76.0080872  27.5494556  66.2918396  76.1205063  26.6710644  66.6551895
  76.6837921  28.0744114  66.7208862  46.3792648   2.1946948  19.5332603
  46.0505562   2.1151485  18.6377964  46.8333130   3.0372269  19.5477676
  36.8919830  35.2904701  64.9101944  37.2676048  34.4560928  65.1911850
  35.9631958  35.1018944  64.7759247  77.4846649  49.7233658  47.7179375
  78.2852783  50.2471313  47.7484207  77.5676956  49.1159630  48.4530563
   0.8982846  48.7230110  87.0608063   0.0407154  48.2985916  87.0348206
   0.7016957  49.6597443  87.0716553  23.6469593   0.5769919  84.2580490
  23.4791412   1.4764892  84.5390701  24.4824944   0.6231948  83.7933121
  84.0224915  41.1051788  69.6751938  83.1774750  41.5384369  69.5548706
  84.0030899  40.7890396  70.5784683   6.2983027   4.8133049  45.6560020
   5.5723658   5.0370183  46.2384109   5.8884969   4.6863375  44.8003311
  33.6743965  70.0080490   5.8279433  33.9056702  70.9368896   5.8258252
  33.7006149  69.7525940   4.9058337  66.6523666  23.0670853   6.4662070
  67.4490738  22.8324394   6.9420581  66.7015305  24.0182858   6.3711548
  82.4279785  63.2827644  44.8563271  82.1541138  63.0847969  45.7518921
  82.4404221  62.4328194  44.4162483   4.3678780  70.1238403  57.4365845
   4.5987883  70.2929382  56.5231743   3.7996354  70.8548965  57.6792641
  61.8386269  42.2494736   5.8268838  61.2648926  42.7666893   5.2615972
  61.4953995  41.3580589   5.7651901  86.1202621   2.4827113  35.4169350
  85.4758987   3.1153579  35.7343941  86.5283127   2.9129827  34.6655388
  44.4617996  59.7461281  79.2943268  44.6600647  59.6578407  78.3620605
  45.0266609  59.1020737  79.7213669  20.8084087  16.0002975  73.1280365
  21.6405449  15.6983356  73.4921875  20.2843151  15.2045975  73.0362778
  14.8551073  40.2648010  75.6891785  15.7066259  40.6894302  75.7932816
  14.2875519  40.7085037  76.3194504  49.3566704  15.2235250  62.7199135
  49.2327461  14.6442404  61.9680481  50.0867920  14.8363037  63.2028351
  47.7342644   4.8599424  72.7273026  47.3003845   5.5305805  72.1998367
  47.1046371   4.6542277  73.4183044  11.5926790  60.7129250  23.3451385
  11.8499298  60.0952606  22.6606369  11.4372845  60.1660042  24.1151810
  49.4237938  71.4624786  52.3062706  48.9681282  70.6313095  52.4395523
  50.2763863  71.3377380  52.7231178  47.2227287  34.6707077  32.2347870
  47.0000916  35.4934120  32.6704674  47.6388474  34.1434860  32.9167786
  54.2807274  21.2038937  21.8471642  53.7167625  20.8910503  21.1398430
  55.1648674  20.9577961  21.5751896  42.3212776  66.9316635  38.5315247
  41.3926506  67.1554642  38.5931778  42.5811539  67.2260666  37.6585846
  62.8290863   0.1972899  28.5375710  63.3990479   0.9290801  28.3012199
  63.3515129  -0.5829319  28.3516693  31.8909435  28.6732998  65.7133102
  31.5396175  29.5635853  65.6994019  31.2429314  28.1526508  65.2387161
   7.7574701  44.5988083  82.9803314   8.2259932  43.7891083  83.1830750
   8.2370825  45.2781639  83.4543304  69.8544693  14.1320257  76.0168457
  70.7943802  14.3094749  75.9806824  69.4447632  14.9929991  75.9325867
  40.0647087  50.8596878  17.6109695  39.5326920  50.0744286  17.7396660
  39.4444809  51.5218468  17.3058624  73.8842545  23.8165436  41.7118263
  73.6123123  24.5958843  42.1964989  74.8396759  23.8700886  41.6887817
  14.3952093  68.2197189  77.5191269  14.2860994  68.6805344  76.6872787
  14.1116209  67.3240738  77.3357697  30.8077393  54.3080750  57.6626816
  31.6264877  54.8029900  57.6320038  30.2403450  54.7440872  57.0269241
  65.0391998  45.7938385  22.3045750  65.3698807  45.0613327  21.7846527
  64.1607285  45.5217781  22.5701008   1.6522802  54.9266548  49.7868576
   2.4752192  55.3954048  49.9256897   1.1933489  54.9953041  50.6240578
  79.5206528  38.2590485  31.4906235  78.8840866  37.6905327  31.9239826
  80.2663193  38.2844620  32.0902596  63.2425842  49.7006798  10.8501768
  62.5716476  49.0749893  11.1232862  63.9721222  49.5468178  11.4504576
  78.2265244  38.0176048  19.8435974  77.7482910  38.7804794  19.5187187
  78.0192871  37.3216057  19.2199993   8.3881989  54.9234848  46.6295624
   8.5867691  55.3508492  45.7963982   8.5628633  55.5937843  47.2901840
  63.8754692  39.5058098  81.3613358  64.2684250  40.3638229  81.5214462
  63.4520874  39.5918999  80.5071869  52.6074600  53.9138107  48.2870026
  51.7141647  54.0351524  48.6087646  52.6600418  52.9826355  48.0716362
  16.0726547   7.9915533  88.1575012  16.0747623   7.0558720  88.3593140
  16.9419613   8.1601353  87.7940292  64.9014893  66.6880112  24.4194660
  64.8115845  67.2399445  23.6426029  65.6372910  66.1096802  24.2185402
  79.6985474  52.2781525  57.0811768  79.2905731  51.5850143  56.5621834
  79.6757126  53.0479622  56.5127525  21.0227299  58.5570946  53.2607803
  20.9769306  59.0796242  54.0614662  21.6467438  59.0242615  52.7052650
  58.1964493  33.2953148   7.9845738  59.0742111  33.1140862   7.6485300
  57.6526146  33.3787308   7.2013016  19.5899715  59.3138809  49.1990700
  20.4852448  59.0706520  48.9633636  19.3387871  58.6804504  49.8713112
  38.2847061  40.4744148  10.9859562  38.8112297  40.3246078  11.7711716
  37.4512634  40.8093491  11.3167477  38.2521133  71.3488846  65.0919266
  37.5787849  70.9058609  65.6082458  38.4136276  70.7609329  64.3540497
  34.1508865  66.3612366  11.0281954  33.8011627  67.2496109  10.9595499
  34.3428078  66.1089325  10.1250114  49.3722191  54.0082359  52.7638550
  49.7610283  54.7984581  52.3888702  50.1071625  53.5497932  53.1711845
  67.9559479  33.2848778  33.4059181  67.4253845  33.6088486  32.6780624
  68.5652313  32.6670761  33.0017776  28.5869446  20.2040768  74.3731003
  29.0053787  20.6788235  75.0912628  28.3243198  20.8867111  73.7556229
  51.2375832  34.1835938  15.4977646  51.2457962  34.5248756  16.3920193
  50.3221512  33.9546318  15.3371801  47.4033737  70.7640762  86.3758163
  47.9127579  70.9497757  85.5869751  46.6330376  71.3273773  86.3016205
  25.1800327  47.0814743   0.4219305  25.4763126  47.8268776  -0.1003949
  25.9472733  46.5125237   0.4841169  44.5616684  24.1239128  22.2067165
  44.5291672  24.3018627  21.2667656  45.4760818  23.8972187  22.3760872
  56.2665520  70.0028763  49.5825386  55.7193184  70.2457123  50.3293991
  57.0772400  69.6787949  49.9749527  57.5315514  15.5143881  70.5430222
  58.1131592  14.8895597  70.9760971  57.8794594  16.3727226  70.7847900
  18.8331013   4.5328503   1.6837467  18.8253689   4.3836346   2.6292131
  18.3996372   5.3788304   1.5712323  20.3235569  12.7735939  85.3469009
  19.7925911  13.3867588  84.8386307  19.7013550  12.3526287  85.9401016
  60.7279892  44.8667030  17.7244625  61.1993027  45.3198814  18.4235535
  60.8666382  43.9370956  17.9056606  57.5221748   3.7624648  64.0049286
  56.7922592   3.1598392  64.1473923  57.3052635   4.2126222  63.1885071
  10.1081333  31.9167213  65.7645340   9.9445210  30.9871731  65.6051483
  11.0583954  32.0080872  65.6946335   6.0642772  64.4817734  47.2791748
   5.7231765  63.8447495  47.9069328   5.3875270  64.5393677  46.6046944
   1.9946769  49.2277641  16.6094551   1.8618160  49.8992653  17.2785358
   1.6781358  49.6297722  15.8004904  35.1171989  46.8262329  41.6554451
  34.2773705  46.4199715  41.4412651  34.9347420  47.3600464  42.4287415
  29.9378872  55.3723412  51.3310089  29.4087448  56.1475754  51.5187683
  30.5844173  55.3470573  52.0364113  81.3003540  65.8487473  82.3914185
  80.9514771  66.7224960  82.5676804  80.7273483  65.4947662  81.7112732
  85.2510986  47.0166664  30.9274368  84.5021057  46.5050812  31.2332573
  85.7980804  47.1287651  31.7049179  16.3479137  25.2174606  65.3933945
  17.1254654  24.8507996  64.9724350  15.9024515  24.4607086  65.7743454
  18.9462566  57.7671928  51.5009422  19.4995289  58.1543388  52.1793480
  19.4401417  57.0068054  51.1941452  43.4204369  43.1997681  78.3571167
  43.7810631  42.3480721  78.6036911  43.5643883  43.2564240  77.4125061
  25.7841072  69.3151550  65.0679398  25.9311161  69.1005096  64.1467743
  24.9557400  69.7947540  65.0728760  63.7814713  14.8235922  80.5651855
  63.0914879  15.3295250  80.9943542  64.5960464  15.2274818  80.8644638
  28.9722900  10.2145004  68.3210983  29.4577599  10.9977598  68.0621414
  29.6263466   9.5156183  68.3186951  43.9449081  47.4943733  65.1755219
  44.8230743  47.1171684  65.2282028  43.7862282  47.8545990  66.0480423
  30.3327389  54.1949120  34.4299049  30.8017502  53.5585213  34.9695969
  30.6392555  54.0255814  33.5390625  80.2296600  54.7198639   7.3845797
  81.0706177  55.1750870   7.3423443  80.2534485  54.2496185   8.2179680
  44.6881638  47.2106819  32.7466011  44.3871460  47.8614960  33.3806877
  44.5109673  47.6074295  31.8937092  64.5947647  66.8422318  14.0415850
  64.2531662  67.4815674  14.6667261  64.0383072  66.0721893  14.1583071
  73.3067017  36.2388916  11.2427845  73.1444244  37.0451317  10.7530098
  73.2693176  35.5462875  10.5831394   6.3119006  31.9924412  76.9737473
   6.5934000  31.1065998  76.7451096   5.4629898  31.8716774  77.3991852
  37.6303787  12.5889788  67.0864105  37.7984848  12.4485235  68.0182037
  38.3848953  12.1985397  66.6453934  60.4615326  45.4879951  34.8504066
  61.2049599  45.1798096  35.3686485  60.8592682  45.9270744  34.0985756
  80.8740845  38.8213043  39.4462776  80.3588715  39.4580841  39.9415627
  80.2303848  38.3559341  38.9121284  54.1257706  37.1493530  35.5311470
  54.1692505  36.4006310  34.9363670  53.2922287  37.5718155  35.3238678
  30.9140472  46.3850937  38.8887863  30.2754612  47.0937424  38.8096886
  30.9045315  45.9574242  38.0324898  54.5481453  10.7062120  16.8106270
  53.6894684  11.0181417  16.5249634  54.6027985   9.8122854  16.4727783
  11.5467081  29.4583378  30.6430817  11.4203444  28.9394341  29.8487244
  10.6628656  29.7193413  30.9017944  60.3754501  15.5531969  81.1950226
  60.6041451  16.2384377  80.5670242  60.4496574  15.9773312  82.0499115
  23.6041183  22.6179810   4.7058439  24.0014515  22.2075024   5.4738717
  24.3357887  22.7617798   4.1056676   6.2872567  55.4481544  71.5512619
   5.4834437  55.9608803  71.6362839   6.0099254  54.6367798  71.1258392
  37.5433121  66.2274323  45.0366249  37.6494713  65.7237091  45.8436089
  37.6459389  65.5827179  44.3365936  15.3592949  42.9797897  36.5180740
  16.1896763  42.5041351  36.4968567  15.2318544  43.1981201  37.4412842
   4.4195962  14.4878111  51.3541183   4.1759067  15.3323421  51.7330856
   5.0285392  14.7083359  50.6492844  53.0548477  30.3036880  27.0119476
  52.5283203  29.5868607  27.3657227  52.8036842  30.3527927  26.0895939
  26.6704903  24.2573261  82.1965179  25.9441013  24.7288208  82.6043015
  26.7376461  24.6335526  81.3189240  36.0061760  45.3976936  32.8189316
  36.5627823  45.8949242  33.4182472  36.1161003  44.4863930  33.0903778
  86.8236389  63.3476791  23.3676891  86.2406082  62.5885391  23.3638420
  86.3415756  64.0223312  22.8894768  10.3020868  61.2224579  11.2355595
  10.5905199  62.1280327  11.1216574   9.3464251  61.2705154  11.2104111
  78.0556488  19.3043747  27.4478188  77.2062073  19.2945557  27.0066986
  78.2770462  18.3801308  27.5617867  75.1870499   5.3357649  74.6760101
  74.7575912   4.6899791  75.2370377  75.7187119   4.8145671  74.0744095
  86.0798798  35.5839882  40.1704254  86.6635590  35.3568840  40.8942871
  86.0367813  34.7890015  39.6390419  46.0864906  44.1546631  68.9575348
  45.1826553  44.2250175  68.6503448  46.3463020  43.2607574  68.7346802
  60.6738472  61.8458633  46.3288307  60.2259178  62.6905594  46.3744659
  61.6049309  62.0672226  46.3467102  46.4244576   1.6773101  88.8979187
  46.0005989   2.5355177  88.8904190  47.3611755   1.8729991  88.9201889
  49.3253822  41.5718193  80.3882980  48.9350204  42.4447136  80.3446274
  49.7860146  41.5571480  81.2272491  77.3035049  54.9874496  83.3558884
  77.9147644  55.6950073  83.1510620  77.0514984  55.1445580  84.2658539
   6.2014527  39.3104439  86.7689209   5.5912685  39.6496468  86.1140518
   7.0455809  39.6940536  86.5311737  10.0511837  50.7510490  83.6744080
  10.6525831  51.2184181  84.2541656  10.6044779  50.4341202  82.9605026
  73.0998840  63.0816460   3.5544870  72.6300278  63.1491623   2.7232749
  73.8702927  62.5509987   3.3517165  15.2908697  57.1174660  12.9039431
  14.5376911  57.4851761  13.3662653  15.4437265  57.7210999  12.1769695
  35.5767670  17.4351597   3.1930647  35.3186989  16.5586147   2.9079311
  35.0581360  17.5927715   3.9819944  52.4919586  42.1788597  79.5160980
  51.8812523  42.9058075  79.3943863  53.3416023  42.5994110  79.6483078
  44.9133034  29.9337864  36.5072098  44.2702560  30.1910362  35.8464928
  45.5233459  30.6703167  36.5472374  80.0628891  16.1581821  21.9789791
  79.8039703  16.1955490  22.8997383  79.3292694  16.5530186  21.5076694
  67.1953583  52.5823631  22.9147606  66.7194138  52.3386612  23.7086830
  67.4524078  53.4929581  23.0596046  62.7827187  23.6911259  68.1517487
  62.9468651  23.6195183  69.0920486  61.9191895  23.2969170  68.0286636
  13.6906872  62.6028519  86.4877777  13.1796427  63.0661087  87.1514511
  14.2926950  63.2633286  86.1448669  21.9737949   1.3799561  58.1578827
  22.5285034   1.8029590  57.5024452  21.9396496   0.4626000  57.8867302
  55.6507835  47.8572884  32.8504829  54.9573250  48.5028114  32.9870491
  55.1987495  47.0914497  32.4963799  53.7279091  61.3043289  51.8689804
  54.4771194  60.7681274  51.6093597  53.3808022  60.8697166  52.6479912
   5.7390099   4.5212965  88.9435120   5.7664418   3.6738977  88.4992218
   5.9439936   4.3197818  89.8565369   2.9636846  37.3262405  15.0382919
   2.3820703  38.0680733  15.2045536   2.8767674  36.7747841  15.8158350
  64.1828079  67.9342728  79.7847824  64.6829453  67.7479172  78.9901962
  64.0904846  67.0840073  80.2146225   9.8254366  61.5219727  17.1073627
  10.6123219  61.1907043  17.5401478  10.0006962  62.4531670  16.9717426
  12.4712477  21.3105145   7.9714818  11.6126642  21.1690121   7.5726800
  12.9956779  20.5638218   7.6822467  40.0007477  50.8869743  84.5339127
  40.0310783  50.0516014  85.0002365  39.3776550  50.7413940  83.8220139
  38.7478180  56.3159828  80.0818176  38.7932472  55.6280594  79.4177933
  38.7097893  55.8438454  80.9136047  77.4032593  50.0827560  13.5732937
  76.9092331  49.7165070  12.8397865  78.0485001  50.6589622  13.1635628
  59.7860909  11.1759825  25.2867661  59.8099747  11.7342358  26.0639496
  60.6724129  11.2258167  24.9287415  75.4460602  23.7797661  59.5245819
  76.3195648  23.5724277  59.1925507  75.0443192  24.3033104  58.8312340
  34.8215942  38.8427353  53.5006561  35.7298470  39.1037025  53.6529884
  34.5036659  38.5686035  54.3608932  12.2213020  32.6795578  83.5298233
  12.8352690  32.4771919  82.8238983  12.1954451  33.6359940  83.5579224
  72.5202942  38.2192535   9.4116545  71.6964874  38.6459923   9.6471643
  72.6965256  38.5151062   8.5185432  75.9899673  38.1149254  71.9039154
  75.7984695  38.9336319  72.3613892  76.9412613  38.1167107  71.7977905
   7.5864296  32.4315186  58.1677971   6.9275999  31.7374153  58.1479149
   7.4859462  32.8812294  57.3288116  62.2769585  45.7529869  23.1259403
  61.3376923  45.6093903  23.2416477  62.6355515  45.7185822  24.0127659
  41.6091385  34.7411079   0.3646882  41.6222420  34.5048294   1.2921757
  41.0432091  35.5118980   0.3218578  71.3333511  51.8164215  78.4049759
  72.2726364  51.7869797  78.2230148  70.9264374  51.9300423  77.5460510
   3.1202550  64.9493256  85.6777649   3.5224259  64.4888840  84.9412308
   2.3762932  64.4005203  85.9258881  86.6702423  49.7183418  60.5358543
  86.7314835  49.1453819  61.3001823  85.7393341  49.7218018  60.3130875
  52.2651939   6.6187186  55.4446182  51.5724754   7.2624063  55.2961693
  52.0918655   6.2784348  56.3223381  10.6302519  56.1272621  57.3325729
   9.7338152  56.2206764  57.0102272  10.5442686  55.6089935  58.1327209
  66.4381409  54.4968185  66.1705475  67.1374588  54.2165947  65.5800705
  65.7702026  54.8657722  65.5926590  44.5169525  12.3795481  66.5737686
  44.8899307  13.2597637  66.5254440  44.4963150  12.1792068  67.5095444
  26.1230507  66.8840714   7.7902761  26.2457924  66.0971680   8.3212681
  26.5986233  67.5678787   8.2619476   3.9855950  12.2731752  21.1265221
   3.4630044  12.4639540  20.3475895   4.6795101  12.9324322  21.1167622
  78.0340424  52.5775566  22.8922138  77.8299789  52.6995430  21.9650078
  78.2786713  53.4501343  23.2004318  15.4171429  41.3676796  80.3619156
  15.2762384  40.7774773  81.1022110  14.7344999  42.0325470  80.4523621
  47.6331711  43.9503937  35.0130501  47.8006096  44.8037376  35.4130516
  46.8341103  44.0781822  34.5017700   0.9045963  56.3654137  68.1680374
   1.4132884  55.5546913  68.1541367  -0.0061771  56.0778160  68.1047058
  55.9463730  67.2230606  33.7356415  55.4424324  66.4179688  33.8543968
  55.3526688  67.8104706  33.2679939  78.4988556  42.4351807  86.8667603
  79.4417572  42.2789650  86.9193802  78.4178619  43.2431946  86.3600159
  52.9569473  59.8327446  83.0680466  52.5528831  60.0890732  82.2390289
  52.3094101  59.2638321  83.4842987  81.0167160  39.0592079   8.5569639
  81.2475739  39.9878960   8.5788174  80.3339539  38.9664307   9.2213888
  62.9811592  48.6506653  17.2332916  63.4338760  47.9832916  17.7489376
  63.5038757  49.4431763  17.3554592  51.5501976  46.5140953  59.2516174
  51.1196098  46.7259140  58.4233932  51.1559105  47.1122742  59.8863983
  76.5223770  12.7067738  18.9960270  77.1683044  13.2706423  18.5705185
  76.9124222  11.8330622  18.9691048  86.1999359   1.5397609  63.6783524
  85.5190887   1.8556616  64.2723999  86.5920105   0.7966614  64.1369476
  75.0299835  34.7396393  26.4553432  74.2655869  35.2546310  26.1970654
  74.6831970  34.0822105  27.0584679  43.3439789  11.9071426  83.6716309
  43.9411354  11.5728207  83.0024033  42.7350616  11.1860209  83.8311157
  41.3280106   8.0248327  14.6923208  40.8642235   7.9205093  13.8615084
  40.7632370   8.5971336  15.2116804   0.2054154  68.9676590  34.7237930
   0.3557260  69.2464600  33.8205147  -0.3858837  69.6289673  35.0833282
  28.3808537  57.0102882  71.7766113  27.7839832  57.0918312  71.0327530
  28.8264847  57.8563156  71.8199844  56.7537575  68.4178391  63.6983566
  56.6911774  69.1483459  64.3137283  56.0112038  67.8552322  63.9181595
   3.1549208   1.0937880  57.4621468   3.0064301   1.4674402  58.3308029
   2.2770324   0.9712789  57.1008492  84.3488693  32.4070168  18.0173321
  84.8681412  32.4105873  17.2132320  83.5792236  31.8797741  17.8030872
  34.0229568  55.1639023  18.5614128  33.6811829  54.8788605  17.7139606
  34.7707367  54.5888443  18.7237873  80.3264999  46.9078484  31.8340321
  79.7228699  46.5384293  32.4785423  80.5648499  46.1669159  31.2768612
  50.2351608  59.3212242  50.6877022  49.4585991  59.0348282  50.2069130
  49.9513741  60.1070328  51.1548271  48.9777756  46.2862244  50.6091042
  49.7075081  46.8578339  50.3703804  48.8156662  46.4778748  51.5328064
  71.1191864  25.7946682  15.9404793  70.4414444  25.1209221  15.8859358
  70.7073898  26.5099258  16.4253139  69.4369812  43.6525841  55.5556297
  69.1942902  42.7304688  55.6395073  68.6562424  44.1319199  55.8329735
  51.7644730  54.6141205  86.4572983  52.3793755  54.7041969  85.7292786
  52.0298538  55.2908440  87.0800781  36.9573250  58.8091583  16.6763325
  36.5381508  59.2851982  17.3932076  37.2477989  59.4926910  16.0724773
  61.0597763  61.5606537  27.7400818  61.5194054  61.2426033  28.5171394
  60.8743439  62.4800949  27.9310570  71.4625092  49.5422897  71.5228271
  71.9544144  50.2350311  71.9637146  71.2923584  48.8960266  72.2081223
  86.4737473  29.6968727  63.2964325  85.7910004  30.0894089  62.7523727
  86.8533936  30.4346504  63.7737007  79.4599304   1.2840070  17.3506432
  79.3316574   0.7296661  16.5809135  78.6023483   1.6796000  17.5065060
  81.4823456  69.4938202  44.5532341  81.3473892  68.5464401  44.5753441
  81.8201981  69.7079849  45.4228439  76.9527359  39.8484764  30.9020786
  76.6318817  40.1714592  30.0600777  77.8945541  40.0180473  30.8805161
  79.1420364  19.5950813  32.3430367  79.7084732  18.8998775  32.0082588
  79.1218872  19.4527245  33.2893791  32.0979271  21.6579990  79.0358810
  32.5940285  22.1163635  79.7141266  31.3717270  21.2482452  79.5059586
  82.8524551  68.3634186   8.1310320  83.4727478  69.0152817   7.8046117
  82.8004608  68.5322800   9.0717840  29.1934471  33.2753983  78.2381592
  29.0250416  32.4429207  78.6795807  28.6165657  33.9003601  78.6773148
  42.5698395  52.2534485  65.1369858  42.9856300  51.4585800  64.8030167
  43.2998772  52.8376274  65.3419571  27.8024044  46.1856155  59.1878548
  26.9287987  46.0447693  59.5528297  28.3503952  45.5292206  59.6180649
  38.4062233  38.8638382  15.2856131  38.4173965  39.7817688  15.5567350
  38.4841576  38.8947639  14.3320923  77.2146988   8.5546236  14.3756285
  76.9448166   8.4085827  13.4689503  76.6220551   8.0091190  14.8927612
  29.0358582  17.5738239  67.4634857  28.4258080  18.1303329  67.9476013
  28.5736885  16.7414761  67.3643341  16.9647865  45.3911247  48.7247581
  16.9679985  46.2323456  49.1814461  17.8900776  45.1613503  48.6394882
  68.2382889   8.8657351  33.3838501  69.0744324   9.3262997  33.4544182
  68.0063858   8.6505423  34.2872543  56.7839317   6.5554647  38.4466400
  57.4557495   6.8044162  37.8118858  57.2159767   5.9178987  39.0150414
  79.2602997   5.1588802  86.6671677  79.3150635   4.9700098  87.6039429
  78.3621597   5.4629025  86.5362320  14.2374697  62.9027748  11.9866762
  13.5562744  62.8630219  11.3153906  14.5116129  63.8198357  11.9956999
  49.2008209   5.3589349  66.4292068  49.5836601   4.6745987  65.8802490
  49.6679115   6.1560526  66.1788788  30.9190331  66.3301239  55.6676407
  30.2600918  66.4824448  54.9902763  31.6394577  66.9167328  55.4371872
   2.9622979  61.0425911   5.8223219   3.9098399  61.0443115   5.9579434
   2.8228755  60.4141121   5.1139407  80.0392303  38.1418495  65.9319763
  79.4245911  38.8244438  66.2012634  80.3936920  38.4536591  65.0992889
  66.2199936  25.6383114  49.6361275  65.4173355  25.1178780  49.6697273
  65.9458847  26.5182629  49.8945541  38.7372208  27.9922256  12.2262115
  39.2537918  27.3629360  11.7228451  39.1090240  28.8442478  11.9980640
  47.8971138  63.6246567  34.6185150  47.2962990  63.9254494  35.3002625
  47.3513527  63.5456238  33.8361282  67.8879395  30.0317478  85.1511307
  67.7681580  30.9224167  84.8216019  68.3001862  30.1465702  86.0073471
  39.9949646  68.0127487  76.3580017  40.4033661  67.3739624  75.7737122
  39.1475220  67.6269226  76.5798492  44.9753075  24.1136227  75.6884918
  45.8202744  24.5542755  75.7784119  44.3863640  24.6059895  76.2602844
  61.7220116  70.7679825  55.9407005  61.7242775  71.7247314  55.9698677
  61.8381119  70.5002899  56.8523445  52.4763260   9.3953333  82.9384384
  52.0512161  10.2523737  82.9068909  52.0829659   8.9061165  82.2158279
  10.8148155   5.8239598  82.6237869  11.3386726   5.5939770  81.8563766
   9.9094687   5.7890234  82.3149872  72.8844147  45.9460754  66.4974289
  73.6758728  45.8962784  67.0334778  72.8578339  45.1104317  66.0313568
  41.0942802  53.0137711  81.6792755  40.2397919  52.5951042  81.7831955
  41.6631546  52.5534630  82.2963028  12.4919901  60.4732132  68.5918808
  12.6913891  59.9438591  67.8197098  11.5477066  60.3738403  68.7130661
  36.9796524  41.3799782  42.1523170  36.7290802  40.4661713  42.2879791
  37.9329605  41.3822594  42.2385139  24.8579655  22.4343643  45.6428223
  24.7207775  22.6847038  44.7291794  24.6827717  21.4935341  45.6622696
  71.7198944  31.4863396  44.5866928  71.5969543  31.8826122  43.7240868
  71.6282425  32.2152023  45.2003632  19.2511024  19.5495205  86.7042236
  19.8377705  19.8638172  87.3921661  19.1455555  20.2991886  86.1184845
  75.4571991  57.4044914  85.9909821  74.6915359  56.8648148  85.7941513
  76.1569214  56.7741547  86.1621475  37.2572784  60.1392593  57.9913597
  36.7305603  60.1698990  57.1926956  36.9567375  60.8887291  58.5053711
  24.4062195  26.0701370  72.8598404  25.3449059  25.9349518  72.7301254
  24.2085171  25.6103249  73.6757584  28.0415783   3.1891022   7.0352182
  27.7038479   3.6424811   6.2628083  28.6214600   3.8262033   7.4524384
  59.6720810  44.9874725  71.3795853  60.6011276  45.0927658  71.5845871
  59.6627159  44.5622520  70.5220718  77.3437042  30.1678162   9.5001974
  77.1942749  30.9901791   9.0336952  76.7019806  30.1752949  10.2103844
  45.5129662  45.4325829  72.6635513  45.5786858  45.8894310  71.8249817
  44.6529236  45.0130005  72.6409607  80.9235992   9.0425663  14.1659822
  80.9724197   8.5174627  14.9648027  80.0977783   9.5203199  14.2435036
  50.0200233  53.3489685   1.6516663  49.5157318  54.1553688   1.7595476
  50.9336472  53.6277733   1.7132446   0.4712766  43.4745522  38.9270897
   0.3057827  43.2038727  38.0239944  -0.3938472  43.6917572  39.2743835
  77.7185669  25.3011379  12.5027199  77.2933502  25.5437145  11.6801748
  77.8987732  24.3654118  12.4123268  56.9814568  31.7316799  72.9477539
  56.3149109  32.1433411  72.3977737  57.8049660  32.1280746  72.6632690
  42.0396385  30.0102882  88.5189438  42.6693954  30.1039238  89.2336884
  41.2140083  29.7966843  88.9536209  50.7307014  44.3024673  79.6315079
  51.1130142  45.1700783  79.7631302  50.1314507  44.1903267  80.3694458
  71.1924744  10.9845304  54.9514580  71.1367264  10.0309982  55.0139084
  72.1308594  11.1717348  54.9764671  67.4614105   7.0827556  23.8323231
  66.6652069   7.2024794  23.3146839  68.1625671   7.0246253  23.1832962
  75.6308975  42.9837151  37.6831932  75.2208939  43.8228912  37.8927536
  74.9887772  42.5339394  37.1339951  25.4015503  15.9467697  45.9325638
  26.0933552  16.0756531  45.2836990  24.9758358  15.1306753  45.6699066
  57.1113052   6.6559873  20.9229164  57.4587135   6.7273402  21.8119869
  57.6744385   6.0097747  20.4968643  57.3448067  60.9152069  28.3791981
  57.5697861  61.5329590  27.6834965  57.0763779  60.1212006  27.9168854
  39.8374214  45.7115288  50.0769653  39.9906197  46.5627747  50.4870110
  40.0876808  45.0747223  50.7463531  65.6076889  37.1394463  85.0175323
  66.2037888  37.4949379  84.3583527  66.0493393  37.3001976  85.8514023
  10.8879023  36.7303619  29.4181805  11.7166538  36.3114662  29.1859531
  10.2418823  36.3171196  28.8453617  68.7901917   2.4148841  19.8851929
  69.0472565   1.5306336  20.1464424  68.5952682   2.3414619  18.9509296
  64.1086044  43.9343948  69.4188614  63.4053154  43.8650742  68.7732544
  64.6793747  44.6231880  69.0782471  63.3026428  69.8554077  31.6538048
  63.1469116  70.3303299  30.8374538  62.4511681  69.8449020  32.0909653
  14.3675556   7.5419927  83.1695557  14.9231138   8.0176334  83.7870941
  14.9152451   7.4288597  82.3927231  22.1728687  14.3851290  44.0035858
  23.0549889  14.2851715  44.3615036  22.1040077  13.6979256  43.3408356
  30.4617424  61.7326698  25.7910957  31.2454910  61.9477310  25.2854099
  30.3155460  62.5000610  26.3442383  57.0718422  40.1339798  74.2239380
  56.9022675  39.7437363  75.0813675  56.7239571  39.4983749  73.5984726
  74.2765732   7.5495219  68.5174637  74.5061188   8.4722824  68.4076843
  74.9709930   7.1943369  69.0723190  78.9529495  15.5509863  57.6026154
  79.6867447  15.0275011  57.9246979  78.4653091  15.7903004  58.3907547
  24.3747311  58.0053253  52.4160767  24.7440662  57.2549095  51.9505615
  23.6449070  58.2921562  51.8671532  69.8515167  19.9114437  83.9881821
  70.3613358  19.1284046  83.7803955  69.8380432  19.9416122  84.9448090
  48.3112831  48.0825844  17.5942078  48.4505119  49.0290680  17.6261616
  48.0286789  47.8520546  18.4792061  17.6370773   1.6270978  11.2987118
  18.2191505   0.8672263  11.2946110  16.8849926   1.3555371  10.7725410
  35.7746620   4.9722953  76.1644287  34.8217926   4.8817673  76.1734848
  36.0273590   4.7551827  75.2670822  59.3244095  24.1933918  73.9699860
  59.8962021  24.0588837  73.2142181  59.0579948  23.3111897  74.2287827
  77.9363022  35.9596405  17.8007088  78.3575211  35.1096573  17.6728973
  78.1585464  36.4577789  17.0141354   8.7164316  12.0761538  54.3247719
   8.8554611  11.3177519  54.8919830   8.0389357  12.5862408  54.7686691
  55.3242035  38.5650787  18.3843117  55.6229401  39.0557861  19.1499462
  56.1188927  38.1651039  18.0311527  37.1782188  24.9824181  43.2372856
  38.1318626  24.9533787  43.1601295  36.8927956  24.0963840  43.0143318
  53.4655800  29.1287670   9.5558529  52.5698204  29.4112206   9.7404222
  53.5688896  28.3185616  10.0549774  33.5210609  60.8494720  47.1589851
  32.6554527  60.9498405  46.7629051  33.3677292  60.3135033  47.9370956
   9.3866730  36.2021561  11.9672518   9.9781637  36.8720512  12.3101988
   9.1439800  35.6820412  12.7332907  39.0366402  17.9496517  20.9168930
  39.8373528  17.4408531  20.7895374  39.3424225  18.8447723  21.0634766
  35.7145958   1.5071143  87.5557175  35.5955124   1.9772341  86.7304688
  36.6281471   1.6668310  87.7926788  65.1786957  50.0334854  51.0985527
  64.2233047  50.0452728  51.1561928  65.4614944  49.5910873  51.8988914
  49.0440102  45.6246414  16.4329414  49.7330933  45.3144341  17.0204525
  48.8599930  46.5160408  16.7292080  39.4559479  60.6505508   3.9850137
  40.3166962  60.4447365   3.6203392  39.5728493  61.5001793   4.4100990
  41.3457832   7.4761720  83.3409042  40.5159416   7.4796052  82.8638458
  41.3269119   6.6648407  83.8484650  55.8640633  22.8726978  50.2022667
  55.2412109  23.1836624  49.5453148  55.3187714  22.6092968  50.9435539
   3.5034535  17.5681419  28.7032757   3.3948746  16.6210461  28.6169338
   3.7195244  17.7012959  29.6262131  86.3422165  50.0091782  26.8080769
  87.0678482  49.6059113  26.3315582  85.9464035  49.2877159  27.2970085
  78.0571594  22.9816494  62.3949127  78.3151932  23.3433647  63.2427444
  77.2367172  22.5210094  62.5707283  66.3573303  10.2778683  85.0936203
  65.4067535  10.1696606  85.1241531  66.6240997  10.3122959  86.0122452
  49.7011986   0.2521084  72.5587921  49.8110161   1.1873822  72.7303543
  49.0159798  -0.0241997  73.1673584  23.8132477   9.8867826  51.0132828
  23.8631725   9.8950882  50.0574226  24.4769554   9.2516718  51.2822800
  29.0668163   3.0994968  57.8215294  28.5933952   3.8621016  58.1540070
  29.8913097   3.4552338  57.4900284  82.7686157  65.8364182  84.7396927
  83.2071838  66.6779099  84.8653030  82.0885849  66.0153275  84.0902481
   2.2278044  25.0410328  62.5322800   1.8006722  25.7686691  62.9843140
   1.5103873  24.5638294  62.1153603  79.0260391  69.3284683  79.2180176
  79.6685028  69.8916702  78.7864227  79.4089127  68.4521942  79.1756744
  43.4568520  51.7805862   1.1295301  44.2188148  51.2032928   1.0807290
  43.3048210  52.0535355   0.2247561  60.3864174  32.7889061  68.6018600
  59.8075294  32.3775368  67.9600677  60.0049286  33.6544914  68.7483597
  81.5633850  46.0953102  38.2959824  82.1764297  46.0277863  37.5639610
  80.7048950  46.1840210  37.8820343  58.7759628  61.3192558  30.6297112
  59.7144394  61.2427559  30.8018875  58.7021065  61.2655334  29.6768780
  58.5554428  29.6866570   3.2549608  57.9844437  29.3932247   2.5449667
  59.4002724  29.2775784   3.0674965  37.6028404  65.6739960   4.1258998
  37.0168724  65.5149612   3.3859143  37.0281296  65.9908066   4.8227286
  16.9969578  70.2939606  49.7367897  17.4025249  71.1117401  49.4487076
  17.2307873  70.2236938  50.6623268   4.5604963   1.1210963  31.1924896
   5.3906422   1.0267266  31.6595917   3.9503038   0.5617241  31.6731148
  64.9609222  61.0755653   9.1229525  64.0965729  61.4846535   9.1651459
  65.0069656  60.7032738   8.2423220  82.8143005  60.0417366  34.7855034
  83.1089325  59.9391594  35.6904373  83.3669891  60.7383080  34.4311714
  24.9342556   6.8297496  88.0374146  25.4883633   7.5550313  87.7490387
  24.7864742   6.3119073  87.2460709  61.1602020  48.0036659  64.2512283
  60.3762627  47.5157928  64.5035324  61.7704124  47.8679314  64.9761124
  62.0105476  51.1002045  74.5984192  61.9359055  51.2417107  73.6546860
  62.3181114  50.1975937  74.6816788  84.8286743  43.0915680  66.4457397
  84.9203110  43.2240524  67.3892822  83.9024506  43.2567863  66.2695160
  80.6677780  23.0321560  60.3940697  80.2117233  23.7802315  60.7795906
  80.1749954  22.2693539  60.6966019   9.0261555  66.9207993  73.7028122
   9.7468576  66.5688934  74.2252884   8.9180222  66.2917480  72.9894867
  46.6509018  65.0364838   2.3210571  45.7363510  65.0839081   2.0425346
  46.6306915  64.5114746   3.1211746  64.7980957  28.2173100  50.3260307
  65.3130722  28.5245552  49.5799484  64.8266144  28.9415493  50.9512482
  64.1888504   9.0120602  87.7811661  64.2262497   8.7926149  88.7121277
  65.0051270   9.4828825  87.6130981  56.3393555  12.1257381  14.9406061
  56.8178253  12.9313459  14.7449179  56.1972275  12.1553917  15.8867302
  81.4876251  63.7246170  41.8159409  82.1123352  64.0056305  42.4845161
  81.9812012  63.7608452  40.9966087  55.2817650  14.6903505   4.6033740
  56.1694756  14.9864550   4.8046861  55.3345222  13.7351913   4.6368246
   5.4258299  56.7698326  58.6540222   5.3465834  56.8224602  59.6064835
   5.8918829  57.5688782  58.4079437  62.6270752  47.9432259  26.9919567
  62.1089973  48.6833344  26.6756210  62.2912369  47.7746544  27.8723125
  82.0664749   5.4712348  33.2742043  82.8990707   5.8687696  33.5291214
  82.2808075   4.5536852  33.1056938  16.7740555  12.1139755  84.1622620
  16.1661682  12.2636518  83.4381714  17.4945087  12.7229300  83.9999237
  39.6163940   7.7433696  73.3588257  39.0278740   7.6077523  72.6162109
  39.5028992   6.9621444  73.9001541  77.0286026  45.0211372   0.2382703
  76.2659912  44.8320732   0.7849979  76.7920532  44.6864586  -0.6267537
  80.8924103  26.4198399  10.0168848  81.7295837  26.4689484  10.4783669
  80.3969116  27.1728725  10.3388386  50.9525490  67.8495941  21.6763916
  51.6398621  68.2163315  22.2325745  50.1466942  68.2610092  21.9887638
  81.2253571   3.3020310  82.4469223  80.7808762   3.2595129  83.2936020
  80.6412964   3.8228476  81.8956909  55.4294472  49.1632385  74.1357040
  55.7114601  48.2573853  74.0087128  56.0339699  49.6793022  73.6023560
   0.0164626  39.4736099  84.6219330   0.8847061  39.6924706  84.9602890
   0.0151116  39.8143349  83.7274323  11.7738752  68.5772400  27.8169460
  12.3765450  68.6192627  27.0744801  12.3360586  68.6629105  28.5869083
  72.6762085  36.2866859  80.5446625  73.0933914  36.9968338  80.0569305
  72.0684509  35.8915672  79.9195709   6.6653314  35.4889870  66.9778519
   7.5219207  35.0618362  66.9723663   6.7894163  36.2675781  67.5206451
  76.5932465  41.5406761  39.7645760  76.0635681  41.8818703  39.0439796
  76.0973282  40.7902603  40.0919456  16.2367115  69.4337540  54.2438927
  15.8426619  69.9424210  54.9525642  17.1458530  69.3083954  54.5158844
  43.3366089   5.3535233  20.9482517  43.0101509   4.6707520  21.5343227
  42.6864815   5.3983431  20.2471428  49.2054977  43.9598007  84.4357147
  49.0724640  43.1398773  84.9113846  50.1132240  43.9176216  84.1349106
  52.3601646  19.0464878  51.4097557  52.6856575  18.2211647  51.7691040
  51.4088821  18.9416103  51.3925514  30.7363033  27.8350220   0.8066663
  30.3004341  28.6438980   1.0749351  30.4869347  27.1958504   1.4741287
  16.2245083  51.0724297  17.3326950  16.2152367  50.9489670  18.2818527
  16.2865982  50.1861534  16.9764767  53.2900810  43.0445633  57.9457588
  52.5273857  43.6137848  57.8431892  54.0231514  43.5647583  57.6167679
  63.6374435  68.1286545  11.6609106  63.6546707  67.5131378  12.3937607
  63.9546394  68.9519577  12.0321121  44.8003464  57.4429855  21.7696419
  43.8812485  57.3295403  22.0117607  45.1921806  56.5803680  21.9059868
  68.8173294  52.6988678  56.5027313  69.4886246  53.1573639  57.0080833
  69.1520386  52.6972046  55.6059608  75.1201324  59.5647430  37.3329582
  74.2782135  60.0162125  37.3927917  75.7280655  60.1270103  37.8130608
  69.2649460  50.9715271   6.2850800  68.9165115  51.3841896   5.4948039
  69.4965134  50.0844688   6.0098820  82.2951126  24.0352421  73.7385025
  82.1427155  24.0352783  74.6834946  83.2075043  23.7620068  73.6430435
   7.2448959  69.0254288  74.0276794   7.7120271  68.3297043  73.5651016
   7.5638566  68.9701920  74.9284821  43.4519310  52.3675232  18.1142979
  43.0626335  51.8207397  18.7967224  42.7843590  52.4073868  17.4294643
  67.1329117   8.5423231  29.3427525  66.5585632   8.1612978  28.6785450
  66.5368958   8.9672680  29.9595318  83.2808685   0.6257928  45.6917572
  82.9774323   0.7072923  44.7875900  83.7367630  -0.2155032  45.7164879
  80.8879471  15.8876009   8.6500435  80.8550873  15.9841757   7.6982951
  80.2830811  15.1702051   8.8390169  70.0346146  37.4822388  38.7621193
  69.4800186  38.1481018  39.1686668  70.8477478  37.5072174  39.2665215
  40.2829933  39.4909248  13.0127687  40.9364204  40.1552734  13.2316389
  40.7636185  38.6636353  13.0415154   3.5447469  32.8252945  16.7294292
   4.4315391  32.5217323  16.5353127   3.5092552  32.8657188  17.6851177
  69.6844864  63.2440643  34.8833008  69.3457489  63.3790894  35.7683182
  69.4018097  64.0190659  34.3978157  38.1305542  25.6400070  69.0243835
  37.9787598  24.7020569  68.9084625  38.5372391  25.7118931  69.8879089
  80.6596375  18.6485157  85.0001297  81.3370667  18.0362129  84.7130814
  81.0921631  19.1931629  85.6577835  73.7050095  31.8064804  52.1858444
  73.3744278  32.6681061  51.9317780  73.8453293  31.3496799  51.3564606
  10.1551075  10.7880621  12.8551197   9.3449821  11.1609392  12.5074253
  10.2771244   9.9774599  12.3608847  85.8687057  34.8061523  37.0810966
  85.0392914  34.4188042  36.8013306  85.7960052  35.7291527  36.8381538
  26.1769352  56.5412941  49.7860909  25.7362995  55.6979866  49.6816940
  26.4302464  56.7908134  48.8973808  16.6650925   4.6331530  80.7497330
  16.3672562   5.4911585  80.4474869  15.9802094   4.3399162  81.3507156
  64.4019547  15.9527102  29.0103893  64.9940948  16.5221729  29.5016251
  63.5302620  16.3095989  29.1807156  76.0850983   7.8211231  12.0182753
  76.3897171   7.6377916  11.1295519  75.2110672   7.4327750  12.0567703
  70.3891296  61.6741180  63.9477386  69.9696579  60.8141518  63.9747849
  70.2468948  61.9819336  63.0526161  56.3320274   2.5115595  35.7404556
  56.6549873   2.8195634  34.8936615  55.3870277   2.6596432  35.7046394
   2.2216520  21.8934040  62.1174316   1.9732491  22.7957840  61.9168434
   1.7558514  21.6914997  62.9289093  59.2507629  59.6875114  22.3284397
  59.4883041  58.7642174  22.4140701  59.7000809  60.1188278  23.0552902
  73.0809097  39.5595284  17.8447266  73.5793076  39.7406044  18.6416206
  73.2156906  38.6254234  17.6849918  22.3578720  39.2904854   9.8399611
  22.6233158  38.3708305   9.8370104  22.4422531  39.5611992  10.7541962
  70.1030655   4.8851914   3.6408339  69.9639130   4.0806928   3.1411850
  69.2409897   5.0968537   3.9989684  30.3871021  44.3867836  19.4572773
  30.3535480  44.0631447  20.3574810  31.3004360  44.6427422  19.3286667
  65.4482269  28.5152645  32.0211220  65.7761307  28.8715038  31.1954079
  65.7677994  27.6131153  32.0364647  40.3034058  25.0911865  38.7253952
  39.4267807  24.7296219  38.8559074  40.3554840  25.8215427  39.3419189
  55.1577263  25.6191978  16.4981651  54.8443375  25.4421101  17.3851032
  55.8211517  26.3000660  16.6100368  19.0152798  65.4993820  51.5426636
  18.2326717  65.7585678  52.0290565  19.0527287  64.5477448  51.6386795
  17.6695271  60.1041107  65.7681732  18.6058750  60.0028839  65.9391632
  17.5873165  60.0060730  64.8195648  22.7231388  52.8217239  46.2732468
  22.8503380  52.6234207  47.2010002  22.4132805  51.9997864  45.8929291
  71.5217972  14.4735117  78.5167465  70.9976273  13.6856632  78.6608963
  72.3719635  14.1453085  78.2239609  59.9823418  13.6593256  21.9073811
  60.6695023  13.7041941  22.5722370  60.4551964  13.5718422  21.0797405
  82.3361511   2.9065452  67.5957108  81.7967072   3.2911849  68.2865753
  81.7072449   2.6103964  66.9376831  50.3266525  34.1611404  31.8584538
  51.0358315  34.7668724  31.6430836  50.6830177  33.2950706  31.6605606
  39.0441780  70.5890656  32.9227142  38.4332047  71.1679764  33.3785744
  39.7660141  70.4689636  33.5397720  58.3783302  16.8477268  60.9167633
  58.5755882  17.6482143  61.4031181  57.6513596  17.0891972  60.3427963
  48.0997124  52.9414330  62.5898476  47.4659805  53.0047798  61.8752861
  48.5239563  52.0933800  62.4592514  51.6844254  41.4937172  71.9737625
  52.3069763  42.2195625  72.0162659  51.7256737  41.0916748  72.8414536
  -0.3076379  12.2207108  38.6059723   0.5534236  12.4804306  38.9336166
  -0.1199066  11.7046022  37.8219948  13.4118862  44.1630325  53.9181747
  14.0121117  43.6789589  53.3510437  12.9391041  44.7461624  53.3243179
  29.6609344  18.4924660  15.4756842  29.0073414  18.0190563  14.9609709
  29.2558308  18.6004543  16.3361855  83.4282379  41.0730629  31.9225502
  83.0410614  41.9477997  31.8885632  84.0465927  41.1130142  32.6521225
  29.1974659  60.0132942  10.8186150  28.4967957  59.4273605  11.1049204
  29.9743748  59.4556313  10.7778950  75.7303162   1.6502410  43.8796349
  75.1016235   1.1864842  43.3265457  76.2389679   2.1835279  43.2688103
  54.7380600  29.0763035  73.5398712  54.3490410  29.9185543  73.7754745
  55.6546936  29.1534348  73.8045731  59.1107216   5.0410309   9.5054922
  58.6405296   5.6731386  10.0491743  59.9816017   4.9875798   9.8991184
  80.6616821  35.1001854  23.0790730  80.1728516  35.7245827  22.5429649
  80.1659775  34.2843819  23.0085506  73.5718460  53.2071686  10.1675816
  73.4104767  52.4555740   9.5972328  74.0756607  52.8493233  10.8985710
  79.5257645  45.0180130  76.9508057  79.5909805  44.9342346  75.9995117
  78.8887482  44.3510323  77.2068787  40.5308189  11.4958487  45.3383255
  40.9555893  10.7904863  44.8502007  39.7521744  11.7081318  44.8236580
  73.9079361   2.6412368  12.0344038  73.3216476   2.1016750  11.5039616
  74.7836609   2.3095922  11.8360329  41.1845894  45.6926689  86.3739014
  41.2677917  45.4419861  85.4538574  40.3329315  45.3464203  86.6404037
  10.2378874  12.3133698  75.1120453  10.5052471  12.1492729  74.2077103
  11.0086861  12.0903130  75.6339188  66.0113449  40.2162132  40.9855537
  65.9532623  40.0264320  40.0491524  65.6552963  41.1003914  41.0732727
  59.3966866  57.0626678   7.6472707  60.2431107  56.8551445   8.0431681
  59.3662910  56.5288315   6.8533387  35.2340508  45.4371681  67.9877396
  34.8253174  44.6074638  68.2342377  35.2050514  45.4435310  67.0309982
  76.5082016  69.2137222  54.7070236  76.9284592  70.0696640  54.7905769
  77.1144257  68.6067810  55.1316910  23.9458961  58.7643547  15.8517971
  23.8635502  59.4919167  15.2352686  24.3405094  58.0591621  15.3387537
  29.6408119  42.0087624  60.0694160  30.1716843  41.6725464  60.7914734
  29.2327671  41.2306480  59.6895905  31.3373852  53.6854820  47.6752625
  32.0984993  53.1224861  47.5339355  30.6582565  53.3162994  47.1107063
  36.9414711  58.5654144  79.3713226  36.2093163  57.9507484  79.3226547
  37.6338959  58.0782585  79.8179321   2.9837260  57.5672188  81.1498184
   3.9187596  57.4446602  80.9857330   2.6702709  56.7004929  81.4082031
   5.7332020   2.4463444  75.5377808   6.6264658   2.5106649  75.1998825
   5.4766073   1.5404154  75.3654938  67.9681854  21.5921154  44.1112862
  67.4471207  21.8743725  44.8629875  68.7090530  21.1235943  44.4957733
  26.2843742  10.7468739  85.3730011  25.7686253   9.9497271  85.2513657
  25.6711006  11.3723879  85.7588196  17.6547909  55.6970482   4.1268573
  17.9251976  56.2890320   4.8287597  17.6777477  56.2364578   3.3364496
  19.8598480  30.1005039  79.1877823  19.4574261  30.1034317  80.0562744
  19.2446651  30.5848160  78.6371231  76.4900818  11.7688599  31.2293434
  76.3418655  12.4925241  30.6205959  77.4413223  11.6641588  31.2498760
  50.2972984  16.3417473  18.3670101  50.9340515  15.6595716  18.1539040
  49.5082130  16.0913868  17.8864937  10.3984184  29.7231941  60.3015671
  10.0560875  29.0366993  59.7290573  10.6274319  29.2674503  61.1115570
  23.1153469  53.8462219  36.1882286  23.5213108  53.4142990  36.9398079
  23.7973042  54.4250641  35.8474884  51.0561867  39.5855904  22.5811939
  51.7585526  40.1342812  22.9302654  51.0687294  38.8020248  23.1308308
  41.0350952  54.7675514  66.1857071  41.9115448  54.6566124  65.8172455
  40.4649391  54.2664452  65.6025696  52.0285378  38.2091446  26.2683887
  51.2913895  37.8825569  26.7843246  51.9276237  37.7893295  25.4141045
  83.5450668  11.8716259  38.9139290  84.3703384  12.1633692  38.5265808
  83.6880569  11.9350891  39.8582573  42.9510918  38.5968094   7.4583731
  43.5150223  38.8637848   6.7324667  42.2834816  38.0440102   7.0522470
  21.7869701   6.5653052  53.7900848  22.5893497   7.0700383  53.9229889
  21.6931648   6.0493526  54.5908508  80.1521759  27.8177586  49.9930840
  80.6649780  27.2609463  49.4072304  80.7753601  28.4728775  50.3072433
  74.2222290  17.5326099  20.9658775  74.2507401  16.6573067  20.5795345
  73.3707428  17.5746841  21.4011211  26.4587250  59.7080574  52.6286888
  25.5712528  59.5311661  52.3167076  26.3766766  59.7343941  53.5820045
  14.1210604   7.0886860  78.2356491  13.6928349   6.3883104  77.7433777
  14.2336569   7.7946076  77.5990677  54.4333115  45.2644043  24.6530228
  53.8697510  44.7921181  25.2658691  54.0456238  45.0976143  23.7938881
  82.5713654  50.0114326  38.0897789  83.3442764  50.3432922  37.6329384
  81.8610687  50.1000481  37.4542770  17.8200970  58.3215141  20.0202675
  17.4304905  59.1929970  20.0906792  17.4817677  57.9738579  19.1951008
  42.6959457   1.2638328  82.2872086  42.3362083   1.9650402  81.7439423
  42.5673447   1.5671780  83.1859131  34.3088036  36.6262703  51.7237244
  34.2904739  37.4913292  52.1330795  34.9934959  36.6908112  51.0579453
  35.2174110   9.8595133  71.9938736  34.9843712   9.4046640  71.1845322
  34.4729195  10.4354429  72.1678391  47.7496452  41.8229370  59.7508888
  47.9942474  41.9553833  60.6667824  46.9200821  42.2906570  59.6544838
  52.6609459  24.1835785  72.7182922  52.7842140  25.1263847  72.8285294
  52.7252846  23.8283463  73.6048050   0.8390013  17.0694981  82.0566864
   1.5241879  16.4170322  82.2017365   0.0204921  16.5882301  82.1777420
  75.0145187   4.4358907  50.0087776  74.6903687   5.2810364  49.6975136
  75.6174011   4.1440210  49.3249779  54.0671082  32.7450142  85.7433319
  54.9595375  33.0887413  85.7027435  54.1083069  31.9149742  85.2683868
  55.5811844  21.4902477   3.0311301  55.5862885  21.6054592   3.9813573
  55.6128693  22.3808289   2.6817105  53.9366188   3.4243193  29.5059280
  54.1613579   2.7769759  28.8375931  54.2184258   3.0260699  30.3294640
  67.9061813  20.3137112   5.0030775  67.9220352  19.7254086   5.7579813
  67.7576447  19.7374077   4.2533832  82.9628983  30.1459408  88.0463562
  82.2360764  30.1228523  88.6687927  83.3988724  30.9806061  88.2180786
  28.3908653  46.0076981  84.9062881  27.8010235  45.4605865  84.3876495
  28.5323963  46.7855949  84.3667755  10.7530575  64.2212143   8.4930153
  11.6932068  64.3948746   8.4461403  10.6088028  63.9245377   9.3915710
   3.6493266  50.0410080  28.4276733   3.9696891  49.6516228  29.2412949
   4.3899798  50.5497360  28.0977325  42.4074135  28.6299229   3.5428290
  42.8533554  28.5504074   4.3860626  42.0429230  27.7596359   3.3816390
  53.5750809   7.8647170  23.7066402  53.2767868   7.8378992  22.7975025
  53.7563477   6.9508648  23.9262962  78.7411423  47.7088585  58.8601532
  78.5823135  47.3907051  59.7488518  78.6829987  48.6615219  58.9328384
  46.2129517  62.1945496  77.9227295  46.0985107  61.2661934  77.7195282
  46.8732605  62.4966164  77.2990494  50.9341202  60.0546761   9.0838203
  50.6932678  60.3767319   9.9524412  50.7916832  60.8022385   8.5032187
  76.1106033  10.5998659   2.5334394  76.2709503   9.7623930   2.9683640
  76.5508423  10.5185308   1.6873873   3.0840428  60.7004509  79.4351654
   3.3751276  59.9058533  78.9878235   3.5964086  61.4024773  79.0340805
  80.7559509  57.7581253   9.0808764  79.8981094  57.3341522   9.1050844
  80.8731155  58.1121445   9.9624519   9.4413805  40.0615578  45.5179443
   8.9353161  40.8704834  45.5938759   8.7814226  39.3703537  45.4638329
  69.3516235  56.5887413   4.7635536  68.5547943  56.9982910   5.1005411
  69.9631577  56.6131935   5.4995308  73.4461365  49.7439079   1.0473845
  73.0073700  50.5557098   0.7930278  73.9421310  49.4861145   0.2703609
  59.2031746  32.7084732  82.1309204  58.3592720  32.2843056  82.2862930
  59.8432236  31.9998302  82.1971817  65.2725372  12.5783081  66.2272339
  65.9493332  11.9856310  66.5542145  65.7294846  13.1430683  65.6039505
   8.2199354  42.5402641  77.1153946   7.7977471  43.1703453  77.6993332
   8.1650152  42.9428291  76.2486954  72.7336273  43.3902473  12.4480152
  72.0616684  43.3327484  11.7687578  73.2057419  44.1990318  12.2500229
  36.4995117  33.6968155  69.0372238  37.0338097  33.2329636  69.6819000
  37.0588455  33.7592621  68.2629700  58.0936394   3.5345185  17.7056675
  58.4465981   3.1040962  16.9269581  58.7096748   4.2443528  17.8869534
  22.5843525  28.4397793  82.4129257  21.9271278  27.8408165  82.0586243
  22.6596203  29.1298237  81.7538300  50.5155983  59.7787170   6.0022573
  49.8245277  59.1581383   6.2336373  50.4235992  60.4878464   6.6385770
   1.5700663  61.3019562  12.3267002   1.3976662  61.8233833  11.5427217
   1.8911279  60.4647446  11.9916954  22.5909233  45.3155746  69.5796509
  22.6088810  44.7067566  68.8412399  23.1511459  46.0415535  69.3051834
   5.3140106  66.9162903  68.0521774   4.6855612  66.2343826  67.8149338
   5.9081054  66.4900513  68.6699219  27.6723728  41.3649101  56.2924995
  28.2570839  41.0512695  55.6025925  27.9560528  42.2643051  56.4563560
  83.9086075  15.7668972  87.9170609  84.4776306  15.0367622  88.1606674
  84.2718811  16.5196571  88.3835526  67.6495209  19.3792191  21.4678040
  67.7429123  18.5506287  21.9378548  67.2863998  19.1324539  20.6172276
  -0.3336479  56.6987724  49.4862671   0.1576643  57.5116043  49.3673439
   0.3318069  56.0111160  49.4631996  85.8839035  25.3322926  87.2326508
  85.5128632  26.1881866  87.4471512  86.7974930  25.3903980  87.5122986
  70.4206238  32.5078926  86.6649551  71.2876663  32.3904495  86.2767944
  70.3277130  31.7724819  87.2705765   3.1127558   7.8636489  19.5431461
   2.6238265   7.5270848  20.2940826   2.8561327   8.7838564  19.4831905
  48.9142990  59.5121613  29.0458698  49.5081100  60.1578522  28.6628532
  48.6684380  59.8853226  29.8923512   9.0363827  10.4129639  83.9540253
   8.9462976   9.5828724  84.4220734   9.3808050  10.1675873  83.0953140
  75.4906387  19.3114452  40.2249947  74.6635971  19.3113117  39.7430878
  75.5280609  18.4481449  40.6367531  27.8102398  53.9952736  66.5850372
  27.8535233  53.6645050  67.4822311  26.9441643  53.7316971  66.2741165
  78.3026428  48.5753937  30.2832184  78.8659363  49.1343918  30.8184299
  78.7418060  48.5361862  29.4336109  68.6429977  25.0914173   4.9432330
  69.3706970  25.7109833   4.8901691  68.4729080  24.8433323   4.0345221
  43.0310936  43.2566490   3.7711959  43.3478165  43.7343407   3.0045602
  42.8453407  42.3761711   3.4448760  37.3471413  43.4225349  14.6809511
  38.1912422  43.1524048  14.3193512  37.4384346  44.3645134  14.8243790
  45.9477844  59.5554047  76.8975143  46.8100090  59.1496353  76.9877930
  45.6994820  59.3904037  75.9879227  20.5633087   1.5705944  26.3258381
  20.4504013   1.2526420  27.2215996  19.7443962   1.3426603  25.8857708
  63.2453842  26.0369473  61.9327583  62.9332390  25.4535275  62.6244392
  62.4513817  26.4443722  61.5866432   4.9668503  68.8276291  54.6873016
   4.0233479  68.6668167  54.7004890   5.3589563  67.9624481  54.8053551
  26.5469074  52.9954376  20.5574684  27.3195229  52.6335831  20.9914684
  25.8127689  52.7199516  21.1064491  23.4940948  52.8010483  26.3417625
  23.5117168  53.3786240  27.1048679  23.1229553  53.3392181  25.6425762
  72.0183105  37.1562614   2.6648593  72.1784592  37.1040726   1.7225959
  72.5903702  36.4881020   3.0424049  76.8014679  20.7757149  13.0177374
  76.8731003  21.5064411  12.4036217  77.4087524  20.1178589  12.6791220
  12.2045412   0.3344539  67.8321304  13.0871086   0.2540605  68.1938477
  11.6270685   0.2686160  68.5926666  46.7306023  18.7844810  24.1633759
  47.3209114  18.5648232  24.8841515  46.7280846  19.7413673  24.1389790
  69.1047287  63.4674301   6.6247544  68.6807861  63.5871811   5.7749510
  69.9124451  62.9942627   6.4249129  44.7118721  52.4336739  50.9919395
  45.3836327  52.0550804  50.4248123  45.2018738  52.9498940  51.6319809
  40.5601845  31.5204124  44.7913857  40.0434990  32.1272087  45.3215446
  39.9119682  30.9430447  44.3880310  15.0662069  49.5243912  46.9801674
  15.1186008  49.7295837  47.9136467  15.9086189  49.1180191  46.7766151
  48.3863335  24.7026749   5.2537556  49.3039894  24.7347412   5.5241451
  47.9859581  24.0612793   5.8407326  30.3767567   3.4368930  83.8142624
  30.4435062   2.8865108  84.5945587  29.6132164   3.0981500  83.3468323
  61.5852165  28.6610699  33.8990135  62.3491783  28.3888607  34.4074364
  61.0039940  27.9006882  33.9143295  36.5902672  52.1025200  62.2020531
  36.8935013  52.9909897  62.0152321  35.6727409  52.2103081  62.4525757
  20.1009884  17.7065868  11.0255928  19.5529976  17.3983879  10.3038235
  20.0698967  18.6609821  10.9593039  76.9222031  26.7452068  25.0252113
  76.8774643  25.9209423  24.5406303  77.8509827  26.8522644  25.2304745
  57.0825615  41.3960953  39.8222351  56.9792633  42.3419304  39.9269257
  56.2030373  41.0428467  39.9559822   3.4216092  15.2475939  35.2798500
   3.6205225  15.2183533  36.2156982   2.8558331  14.4898949  35.1314545
  59.3868523  11.7820997  55.4320412  60.3400536  11.7233143  55.4967232
  59.1476097  12.4772539  56.0450325  65.8835220  41.6696587  37.1005707
  65.7335968  41.5761337  36.1598206  66.4872971  42.4087143  37.1745796
  17.9223785  55.4430389  41.2028732  17.1722298  54.8494911  41.1681061
  17.9001560  55.8055038  42.0885124  74.6209183  64.5686722  52.1522636
  74.3399658  65.0804062  51.3936958  75.4957504  64.2570801  51.9202843
  11.7242603  61.9031372  47.6730995  11.8146744  62.7852364  47.3126068
  12.5256109  61.7677689  48.1788139  13.1952982  34.3112679  64.1502075
  13.8392181  33.9649353  63.5324287  12.7932339  35.0476418  63.6894112
  36.7162209  70.5878448  51.9152031  37.4638062  70.0664215  51.6228523
  36.0943985  70.5432434  51.1888542   1.5752547   8.6739721  30.8120670
   2.0403545   9.4855766  30.6090584   0.8826260   8.6236372  30.1533070
  51.3696060  30.1373711  62.3415604  52.2152214  30.0933437  62.7879143
  51.5657997  29.9068184  61.4334946  17.4570904  60.5100479  79.4874115
  17.1747437  60.6960945  78.5919266  18.4131718  60.5067635  79.4412994
  41.5365295  18.3576679  64.8282394  42.4286232  18.6328449  64.6168594
  41.6488152  17.6339569  65.4445724  85.1442947  51.3067055  55.4871178
  84.5025330  52.0078201  55.3739548  84.6172867  50.5184555  55.6180954
  61.2561378   2.3210473  32.2317047  60.5631065   1.8212273  31.8002911
  60.8470001   3.1583283  32.4503288  57.8802071  23.9356575  77.1295242
  57.1562767  23.5804501  76.6137848  57.6234398  24.8395576  77.3119202
  81.4777298  12.7196531  17.9163933  82.0349808  12.9048195  18.6723137
  81.7747955  11.8652411  17.6034050  16.1743050  62.0355339   2.4237022
  16.9848003  62.3798180   2.7989311  15.7012901  62.8113136   2.1226184
  72.3434982  30.6404266  28.7921162  72.0925903  30.1971874  27.9816761
  71.8867264  30.1572361  29.4806786  76.7217484  53.4294090  34.4410057
  76.9993057  53.4499130  35.3568497  76.6874084  54.3498306  34.1804771
  13.6798897   3.0271416  76.9888000  12.8579550   2.5366559  76.9799500
  13.9541578   3.0514977  76.0720596  41.3269234  56.2035255   3.5071068
  40.9434395  56.7929993   2.8577316  41.7607918  55.5258179   2.9887409
   1.5318421  46.9460640  19.6379337   0.9810755  46.6959686  18.8960857
   0.9934723  47.5574150  20.1405697  76.4051361  67.4910583  39.9656410
  77.2380066  67.7770309  40.3408508  76.6290054  66.7187881  39.4462967
  69.0534210  69.7157211  39.3934174  69.1487503  69.2423248  38.5669518
  69.2966003  69.0777435  40.0642967  55.1717873  17.5298367   6.8738980
  54.3274040  17.1759529   6.5945845  55.5347786  16.8569717   7.4498506
  11.3757153  51.8832741   5.1411829  11.7640028  52.1850052   4.3199501
  12.0122414  52.1302567   5.8120508  50.1609688  23.0346050  83.3834381
  50.8386803  23.5367374  82.9308929  50.0981483  23.4415779  84.2475357
  19.4979610  66.1411819  57.1843491  20.2990589  66.6645584  57.1608810
  19.4545746  65.8097610  58.0812912  35.6340904  56.3804779  72.2259979
  35.8059044  55.6906815  72.8670044  36.1958466  57.1060066  72.4985199
  74.9635162  31.1403885  68.7267914  75.5398941  30.6076813  68.1788483
  74.1488953  30.6400623  68.7747040  15.0284662  70.2614822  14.1466293
  15.3350401  71.0305862  14.6269693  14.9588957  70.5578918  13.2391424
   5.9772305  23.5192928  80.2836304   5.8042378  23.8815269  81.1525879
   5.6125298  24.1647377  79.6781311  26.8048630  69.6381989  34.4832458
  27.3048363  69.2377319  35.1945038  26.1522713  68.9785614  34.2482414
  31.2223930  68.8702621  63.5848351  30.4877319  68.3655319  63.9337654
  31.9942760  68.3425293  63.7896156  54.2233887  57.5065041  25.9321156
  53.4727859  57.5761909  26.5220070  53.8446312  57.2472153  25.0921497
  73.2928848  11.5807610  11.3235617  74.1447601  11.1473160  11.2718849
  73.4260025  12.4231329  10.8889122   6.8441310  70.0499878   5.7756491
   6.9528317  70.0549774   6.7266440   7.2174439  70.8829727   5.4875331
  58.4847794  13.8575020  86.1517181  57.7709007  13.2211494  86.1925507
  58.8062096  13.7994480  85.2519684  10.1010647   4.9996562  69.5297470
  10.0385571   4.3908191  70.2657089   9.2171164   5.0240202  69.1633148
  58.0716629  36.6348267  79.0216217  58.0344086  37.4434280  78.5107346
  58.7563286  36.7934341  79.6714706  71.6975632  27.4690437   2.9132133
  70.9274445  27.3573399   2.3558371  72.2984543  27.9978561   2.3883123
  53.1846085   4.3880959  45.4126968  53.3230705   5.3230305  45.5642128
  54.0535393   3.9984844  45.5096245  81.2414551  49.1378288  60.9697113
  80.5581665  48.5127449  61.2118187  80.8494873  49.6627579  60.2718239
  44.2087746  16.4580193  62.6375427  44.2995872  17.1134472  61.9458771
  44.7147980  16.8106136  63.3695602  16.2503586  52.7294426   9.0229683
  15.3146296  52.5537529   8.9240942  16.3098717  53.2766876   9.8060484
  34.4285088  25.9865913  82.3033676  34.0505219  26.7658367  81.8957748
  34.3363419  26.1395607  83.2437592  84.6726685  19.3801422  67.8626251
  84.8257217  18.4721870  67.6010437  83.8217850  19.5987129  67.4825516
  53.1542320   3.6779230  36.9900284  52.3549118   3.2892687  37.3453636
  52.9569244   4.6121516  36.9228172  14.9390392  69.5410919  22.4827499
  14.8869972  68.6333847  22.1834354  14.6821995  70.0597839  21.7203693
   6.8481889   1.5117562  84.3220825   7.0995836   0.8055863  84.9173660
   6.4183068   1.0673885  83.5913544  84.9287567   8.8685188  25.2005272
  85.7766418   9.1602259  24.8655109  84.7858963   9.3984737  25.9847260
   7.8918042  59.7175522  83.2951660   7.3138261  60.0384903  82.6029434
   8.7698202  59.7700462  82.9175873   4.6431060  21.9350681  14.6900587
   5.1001682  21.1014481  14.8014326   3.9196355  21.8969975  15.3156567
  69.0672836   8.2945261  68.4066086  69.6970139   8.7011585  67.8113556
  68.6824570   7.5812211  67.8973618  45.0990219  69.6961670  39.1887665
  44.5855141  69.6540527  39.9954681  44.4468117  69.6771393  38.4884148
  83.4460373  34.5595551  21.2503757  83.4387817  33.9203911  20.5378799
  82.5218430  34.6970901  21.4581795  78.9035416  11.4116755  73.6382446
  79.2291107  10.7566757  74.2556686  78.5760040  10.9009886  72.8978729
  80.5894012   1.3665922  86.6528549  80.4707336   1.6377023  87.5631638
  81.3129044   1.9064456  86.3345413  32.6363029  37.7252579  72.9381561
  33.1547127  37.0438843  72.5101166  33.0780487  37.8724480  73.7744751
  35.4612389  70.0013809   9.6109095  34.7366409  69.5412292  10.0345278
  35.1788826  70.9154587   9.5796556  15.2016726  59.5192833   2.7953565
  15.9974775  59.0278702   2.5917878  15.4661207  60.4374886   2.7388258
  27.9289341  14.2735901  73.3294754  28.8270054  14.4414787  73.0439682
  27.5262337  13.8116999  72.5941315   2.7841773  12.6598263  18.7521992
   2.7343383  13.0802746  17.8937283   2.1673007  13.1504240  19.2953453
  69.9190598  58.2562866   9.2503662  69.3088074  58.3865662   9.9762077
  70.5099487  57.5675697   9.5549164  22.8272476  57.2918243  12.6278372
  23.2852516  57.2248878  11.7899923  21.9220695  57.4932747  12.3905630
  30.5813446  45.1039352  56.1732750  30.5884590  44.3164825  56.7174263
  31.4877243  45.4114494  56.1851158   1.8969879  10.9630632  67.1041718
   2.3197134  11.3008900  67.8937378   1.6031282  10.0850000  67.3468323
  39.3761787  31.5259361   0.4381640  39.9526176  31.4907589   1.2015181
  39.3246078  30.6194782   0.1350020  18.4195595  70.6074753  86.4585953
  19.0245762  70.1163025  87.0144196  18.4598331  70.1646347  85.6109543
  78.4820709  17.1735153  19.6655006  79.0509186  17.8016624  20.1105576
  78.8868942  17.0502529  18.8069229  83.6310349  63.8726807   1.6667323
  82.8823166  64.3873978   1.9679359  84.3857880  64.2720032   2.0993066
  70.3054276  36.1296616  17.3257923  70.6117630  36.1075592  18.2323799
  71.0816650  36.3622284  16.8162861  21.3112087  30.2879715   0.9448974
  22.1770420  29.9312878   1.1432464  21.4299488  30.7609158   0.1212125
   5.9768271  60.5231400  57.9786453   5.5815859  60.5871353  58.8480797
   6.4414096  61.3522987  57.8651199  30.1946564  34.3628082  16.3450584
  29.3716984  34.7580566  16.6327171  30.0481033  34.1480827  15.4238367
   4.3376431  46.5296974  53.5534363   4.8665671  45.8184967  53.9149132
   4.0923252  46.2254944  52.6796455   7.3492904  50.6244049  55.6130714
   7.7241592  51.2807426  56.2003746   7.5981526  49.7855949  56.0012741
  39.9990349   4.1614690  68.0724487  40.3306198   4.4009099  68.9378662
  39.4884834   3.3659656  68.2232513  84.9469452  67.8893890  66.5816803
  85.2200546  67.5071335  65.7476959  85.2882004  68.7833939  66.5585632
  67.3999710  52.6675301  13.5634251  66.6406784  52.6913414  14.1457758
  68.0903320  52.2600784  14.0865202  73.6878510  33.3740883   7.7292132
  73.5214081  33.1647072   6.8101454  72.8277588  33.6009979   8.0827370
  82.3818283  12.2921114  87.5955505  82.4586945  12.8852215  88.3429031
  81.7770081  11.6115961  87.8910522  49.5750694  39.1720772   0.0918011
  49.3907127  38.7538414   0.9328256  48.7206268  39.2401199  -0.3342580
  63.3347702  55.6159363  35.1426392  62.6932526  54.9075317  35.0892525
  62.8095360  56.4160767  35.1311035  57.6830292  27.5236969  83.8186035
  57.5169678  27.2141056  82.9282074  57.0794449  27.0192966  84.3640366
  41.7362900   1.2117344  74.4862061  41.8490334   2.1614783  74.5250320
  41.5930557   0.9501595  75.3957596  39.8431549  70.9906387  20.5189056
  40.5261040  70.6007309  19.9732056  40.2920074  71.2299957  21.3297482
   1.8283293  58.8038025  63.4178276   2.0839214  58.0058136  62.9551010
   1.5436507  58.5001068  64.2797775  60.3408394  69.4713821  70.9639435
  59.9219322  70.2311020  70.5595016  59.7761765  68.7343521  70.7311935
  66.1809311   9.9429369  56.6030083  66.9658966  10.3822489  56.2758064
  66.2042160  10.0843678  57.5494156  73.1220016   6.9075036   0.4745213
  72.6959457   6.0535665   0.5486991  73.1528168   7.2385716   1.3721157
  67.2342834  29.0857601  72.1045532  67.0583191  28.6437397  72.9351501
  67.6576233  29.9068565  72.3551788  41.2507210  69.3961945  34.2511215
  41.1951332  70.2577591  34.6644516  42.1867676  69.1964417  34.2387161
  72.8591461  42.5624695   3.8538337  72.0570145  42.0931931   4.0831895
  73.0517731  42.2841530   2.9584749  67.6268768  49.8549423  22.5929165
  67.5004959  50.8035507  22.6129990  68.5692215  49.7362900  22.7118301
  17.7594872  36.4516525  87.3989105  18.4129333  35.7599220  87.2952423
  16.9848061  36.1192322  86.9454803  11.1992350   7.5181618   2.6418910
  11.2518606   6.7098293   2.1319292  11.0560322   7.2247877   3.5417004
  40.0623283  47.7897110  65.6275864  40.5747261  48.5787888  65.4514160
  39.2610664  47.9054642  65.1168823   2.7183669   2.8591754  36.1194534
   3.5008137   2.9745045  35.5802803   3.0266356   2.9791384  37.0176811
  82.4165726  55.3632851  30.7895336  82.2235489  56.0596619  30.1618118
  82.9667206  55.7828255  31.4510174  22.5192852  43.5361710  36.1756516
  22.8713093  43.4419174  35.2905388  23.1650677  43.1073456  36.7371712
   9.6452723   7.5274463  72.4501572   9.8679581   7.3558850  71.5351639
  10.4296951   7.9372745  72.8147812   5.9335165   9.2503433  21.0026608
   6.5860820   8.6763182  21.4037666   6.2368841  10.1355181  21.2043171
  24.5387917  69.0874634  80.1899261  24.7596512  69.9577866  79.8582611
  25.2839775  68.8442917  80.7392883  33.5558662  18.4797840   0.4077111
  32.8187218  17.9177971   0.6464931  33.1876144  19.3631306   0.3897536
  82.6525726  28.3763695  47.5423508  83.3758469  28.0107918  48.0517197
  83.0777740  28.8356075  46.8181000  57.4537506  39.1155739  34.6240616
  58.1977730  38.5316582  34.7713814  56.9414597  39.0589371  35.4306526
  50.6072807   3.0427940  73.7248535  51.5171852   2.9097519  73.4591370
  50.2398987   3.6089909  73.0461197  66.8410797  44.1137657  38.4039383
  67.4989395  43.7118492  38.9713211  66.6712494  44.9676933  38.8016815
  56.5658722  71.3478165  87.8333054  57.5217819  71.3953094  87.8478851
  56.2832031  72.0193863  88.4540558  71.6166000  26.3286648  38.3101959
  72.4661560  25.8876572  38.3088264  71.1952972  26.0394382  37.5008240
  83.0104828  61.4459419  31.5450459  83.9454117  61.3051300  31.3956642
  82.9635315  62.2939301  31.9865665   4.7534299  52.9204979  57.5660439
   5.6335912  53.2444839  57.3747864   4.1693950  53.5960274  57.2213783
  31.5931454  27.5942554   8.0384617  30.9040031  28.2545433   8.1115065
  31.8406124  27.4051933   8.9435844  23.5245857  61.0618439   6.9091978
  24.3671646  60.9233818   7.3417721  23.5617065  61.9656639   6.5962052
  60.0466042  68.5125961  74.2446060  60.2869492  67.6417618  73.9281845
  60.2010727  68.4755096  75.1885376   4.8389139  20.1167336  65.6365967
   5.2907643  20.8548241  65.2275925   4.3854403  20.4998302  66.3874893
   4.9694843  52.0949173  51.5803871   5.4310541  52.4525528  52.3388596
   4.0431690  52.1528587  51.8145103  65.8754120  61.0416718  76.0537491
  66.0980835  61.9723282  76.0767288  66.6279831  60.6256523  75.6332703
   4.6692400  60.4259491  13.2092524   5.4006448  60.5715332  12.6091814
   4.3291230  61.3023682  13.3893785  59.7186966  11.8693638  63.8522530
  58.9639587  12.2523985  64.2993393  59.3619003  11.1148825  63.3835411
  37.1677055  32.1353111  24.1618824  36.9119301  32.2343750  23.2448215
  37.0151482  31.2101879  24.3544941   0.3227917  61.5519371   9.6620989
  -0.5658798  61.8776779   9.5193129   0.4411323  60.8777008   8.9930458
  31.0568695  32.5190926   0.4861791  31.8381691  32.6876984   1.0128436
  31.3919945  32.3659973  -0.3972708  26.3207836  51.5931282  88.2117767
  26.9978104  51.8207550  87.5745544  25.8253422  50.8889198  87.7936172
  21.1134338   0.4408962  78.6987305  21.4114075   0.6833783  77.8220062
  21.0826416   1.2685130  79.1786652  11.5409660  56.8731346  53.7869110
  10.8702269  57.4910240  54.0776863  11.3802099  56.7689285  52.8490791
  80.8505249  29.5128174  30.5460224  80.2477798  28.8140831  30.8003922
  80.3104019  30.1248608  30.0461197  74.1653442  64.4675674  61.2398033
  75.1222458  64.4527893  61.2210655  73.9365158  64.0882339  62.0883179
  58.4201546  67.3907700  71.3252640  58.9036446  66.8897018  71.9820786
  57.8646584  67.9805145  71.8350220  21.5271626   8.9911394  10.8884888
  21.0350151   8.3385134  11.3865871  21.1426697   8.9636765  10.0123358
  70.5979614  54.0245667  73.9411621  70.0581131  53.7610054  73.1959534
  70.0320587  54.6007538  74.4549713  70.0135422  52.5585022  27.8661633
  70.4368820  51.8893623  27.3283291  69.4632416  53.0457993  27.2530155
   0.7749847   4.5994124  37.3073654   1.1605167   3.8677187  36.8254700
   1.0269331   5.3752942  36.8066025  48.3219299  55.9254570  38.6706810
  47.7892609  55.5556488  37.9665985  49.0998230  56.2659950  38.2289276
   1.0318052  31.8209095  61.1326485   0.7653368  30.9026241  61.0881615
   1.6565948  31.9240437  60.4148483  44.4737434  67.4161224   8.5444469
  44.7072830  68.3443832   8.5502653  45.2031975  66.9828415   8.9876175
  72.1126022  62.0487633   0.9311558  72.1147156  61.2196121   0.4528916
  71.2148819  62.1385155   1.2509564  74.3632050  14.3506203  85.2642059
  73.5061798  14.5626268  85.6340637  74.7888336  15.1995153  85.1439972
  81.9044952  11.8876524  30.7894382  82.0927734  11.4447260  29.9620342
  82.6294861  12.5023432  30.9024448  32.7717323  41.0036087  82.0485229
  33.0402718  41.4987526  81.2746048  33.5826111  40.6164856  82.3784409
  13.0761852  47.0179863  46.7541351  13.4566288  47.8883362  46.8723984
  12.1651440  47.1855698  46.5129890  84.1633148   5.0376511  26.8395710
  84.3500061   5.4406562  25.9916534  83.7428894   5.7317133  27.3472633
  71.5554733  24.3974743  63.5622940  71.8808441  23.8928089  64.3077316
  70.9023666  24.9871731  63.9390411   3.8891447  58.3249931  50.9376068
   4.0586095  57.3943520  50.7912521   3.2029028  58.3414688  51.6047134
  64.6354523  13.2350111  74.4415207  64.0803375  13.4496307  75.1911926
  64.6407242  14.0320177  73.9114380  52.0494385  43.8949051  14.8585300
  51.2522202  44.3013039  14.5186548  52.2288017  43.1759148  14.2526312
  53.2318687  42.3282051  44.6565857  52.6356812  42.7050667  44.0094604
  54.0742645  42.2769890  44.2049484  39.4261398  53.5321426  84.9827652
  39.5844040  53.6246376  85.9222488  39.8154869  52.6875420  84.7562943
  77.4704819  69.3659897  86.2544556  77.1790009  68.4546356  86.2279053
  77.4606705  69.5936050  87.1841431  74.6775742  36.2958221  53.1019669
  73.8203201  35.8716927  53.0636902  74.5581055  37.1203651  52.6307068
  76.7837296  66.9267044  10.7531519  76.4433670  67.2354813  11.5928221
  76.0601196  66.4318695  10.3687649   8.3171511  56.2214966  73.3410034
   7.5587144  55.6395531  73.2925644   8.6079226  56.3120270  72.4335403
   8.4304132  16.4539108  86.3900452   7.8213315  16.9606571  86.9271240
   9.1897383  17.0269203  86.2836533   7.1674571  40.8616447  37.0925179
   7.1997995  40.0070076  36.6626549   6.3046880  40.8891945  37.5061607
  19.0940685  23.0029774  23.6495609  19.9191933  23.1009712  23.1743755
  18.6307240  23.8266048  23.4973106  73.5656662  54.3320465  72.9106674
  73.7946243  55.0322647  72.2995148  72.8642426  53.8508530  72.4717026
  21.9053020  68.3022919   6.6407485  21.8569756  68.4745941   7.5810719
  22.8242874  68.4496384   6.4171686  82.2615280  58.8818245  83.5686874
  82.7554016  58.3571243  84.1987762  82.1196060  59.7180099  84.0123978
  66.0681534  21.2152843  62.6223984  66.3456421  20.6380577  61.9110336
  65.5184784  20.6630344  63.1783791  14.0464582  40.6010170  87.9254837
  14.3921175  39.7177811  87.7964554  14.1632738  40.7697144  88.8604355
  76.1218414   6.4379878  25.5075474  75.2299042   6.5778408  25.1895447
  76.6374588   7.1243606  25.0841484  67.6948471  68.8325043  46.3735352
  67.6126099  68.1864395  45.6720581  66.8149948  68.8959122  46.7451096
  67.2799301  26.3680878  85.5725708  66.7219543  25.6531429  85.2663879
  67.2300720  27.0250416  84.8781967  61.1786499  31.6478195  84.5253677
  60.6546135  32.4193954  84.7405167  60.6030998  30.9068871  84.7150803
  62.0788078  24.3351669   8.7217312  61.3279839  24.0981998   8.1773567
  61.7168350  24.9197845   9.3876381   7.0083680  62.4127274   7.9907260
   6.3111820  61.8053017   8.2381144   6.9094791  63.1493340   8.5939379
  64.1088333  65.0188828  21.5509434  64.9221878  65.4285965  21.8456135
  64.0845642  65.1852341  20.6086197  81.8186340  46.6341743  16.2256870
  81.3043823  46.2242050  15.5301981  82.6430206  46.8756485  15.8034248
  39.9275970  51.3835144  32.7911682  39.4158554  51.1099281  33.5524216
  39.2799187  51.7380371  32.1820259  35.2055092  29.3901215  78.9117813
  35.4863396  29.8786278  78.1380081  35.4483795  29.9496479  79.6494598
  29.5826988  17.7321186  78.2295074  28.8220940  17.2362499  78.5325317
  29.5842514  17.6117764  77.2798996  36.8410645  70.5319595  67.2194672
  37.4437828  70.7375488  67.9340973  35.9768066  70.5208588  67.6307678
  66.1619568  51.1953773  67.5621490  65.2290573  50.9849892  67.6031418
  66.4001160  51.0505981  66.6464233  60.4877129  50.7159767  81.9066010
  61.2042694  50.0819740  81.8779221  60.7377396  51.3288956  82.5980072
  65.0692139  65.2686157  58.9157982  65.5639343  65.5328445  59.6914711
  64.1973343  65.0559845  59.2487411  69.6812592  18.1883144  18.6035519
  70.0475540  18.8693409  19.1676960  68.7870789  18.4799423  18.4257030
  17.6438007  35.6424789   1.4354979  17.1084862  34.8629189   1.2873266
  18.1156693  35.7689972   0.6123543  53.6314621  60.6203003  20.7435093
  54.1888161  61.3600616  20.5019550  53.7819595  60.5032959  21.6815357
  48.5263176  38.5958023  49.6134796  49.4301033  38.2964630  49.5144958
  48.1588478  38.5439720  48.7311478  75.1853333  65.3025131   1.7193557
  75.9338837  64.7281647   1.8806775  75.0898209  65.8045349   2.5287297
  29.0419922  33.8743019   7.4247327  29.8035717  34.2345428   6.9703579
  28.9290829  33.0015755   7.0481277  37.9825134  32.7213554   3.0544930
  37.6804237  33.0506134   3.9009938  38.8042297  33.1860466   2.8961546
  57.5233803  43.6878624  15.8440933  56.9918823  43.0780106  16.3557777
  57.7699966  43.1931763  15.0626202  86.3330688  66.5265808  88.2383652
  86.4240265  67.4518509  88.0106888  85.5035934  66.2624130  87.8403549
  83.0664215  43.4961548  25.0915947  82.4626160  44.0533371  25.5827122
  82.4994278  42.9515572  24.5455475  74.4157562  52.0927048  42.8328514
  75.0753784  52.3871078  43.4609108  74.8376160  52.1899872  41.9791565
  68.7306900  21.0144691  13.5720110  68.7791824  21.8754978  13.9873543
  68.9451065  20.3982716  14.2724085  19.7827873   1.4864014  36.8312759
  19.5540237   0.5992459  37.1085014  19.5222797   2.0416453  37.5661736
  15.7937803  35.9892540  52.6763573  15.7807312  35.4360695  51.8953018
  15.3789501  35.4560432  53.3544655  28.4046879  53.5545120  26.4524956
  29.2810135  53.1701584  26.4288120  28.2757378  53.9111481  25.5736237
  24.2046547  54.4237404  58.0764160  24.4779453  54.8118782  57.2452164
  24.8724079  53.7639999  58.2637138  80.8105774  48.1998825  18.1415100
  81.5298691  48.7197418  18.5001087  81.2305603  47.6088486  17.5165882
  41.7850266   2.8787420  21.7262039  41.8610535   1.9493588  21.9423046
  40.8696327   2.9909432  21.4698925  60.9194221  66.2162781  49.0218506
  61.2168350  66.1744080  49.9307060  59.9990768  66.4722290  49.0825615
  74.1220322  63.9477806  23.7453537  73.8025360  64.2348022  24.6007900
  74.3919449  64.7549438  23.3073330  84.2957687  41.0352516  34.5845261
  83.9473419  40.1658020  34.7817268  85.2393417  40.9520645  34.7223282
   8.5343761  70.7897034  87.5940857   7.8907309  71.2954102  88.0902939
   8.7539482  70.0544128  88.1662445  72.8808365  12.0231657  71.0896759
  72.5495758  11.9725370  71.9862976  72.5157776  11.2521143  70.6555710
  78.1214905  68.1484451  31.4728718  78.4058533  68.9353256  31.0079155
  78.1131287  68.4049911  32.3950119  25.4957371  71.3795929  17.6193409
  25.8043175  72.1578445  18.0833797  24.6022644  71.2497177  17.9372578
   9.0031776  48.7559547  60.1530685   9.0971298  47.8502159  59.8580475
   8.0783339  48.9588814  60.0126457  18.2690735  56.7162704  83.8839264
  18.9284554  57.3903694  84.0483627  18.7205772  55.8911705  84.0616608
  53.2701836   1.8328313  35.1719170  53.2075729   2.5725129  35.7762184
  52.3716774   1.6898214  34.8744888  12.0781746  25.6240635  12.3375845
  12.1332035  26.5526676  12.1119757  12.6286449  25.1867352  11.6880007
  29.6311474  57.4221497  47.4755058  29.4568996  56.7373543  48.1212044
  30.5545750  57.6405487  47.6012650  66.9088287  52.8885117  69.2837753
  67.8652496  52.9072685  69.2500610  66.6579361  52.2533875  68.6130295
  17.0884132  61.5660782  19.7426052  17.3748474  62.4459114  19.9877186
  17.4284687  61.4416504  18.8565407   0.3790848   3.5551095  26.8621368
   0.7767705   4.1492052  26.2256393  -0.4668100   3.9539731  27.0661011
  55.6473160  15.1054487  35.5290718  54.9494514  15.5959587  35.9633713
  55.3599892  14.1932955  35.5696945  59.3797455  61.4694519   6.1605515
  58.6673355  61.8426132   6.6796422  59.9612389  61.0674629   6.8059230
   7.7482924  64.0846024  87.2676468   7.1742563  63.5568237  87.8227692
   8.6272907  63.9239120  87.6108246  46.7487946  49.6042900  55.4324722
  46.0195808  50.2000732  55.2606430  47.5070229  50.0330849  55.0356636
   0.1919708   9.4413376  55.4233932   0.6052305  10.1998959  55.0110359
  -0.2394807   8.9823742  54.7026749  53.7951851  63.7649040  63.0112305
  54.3941231  63.3123283  62.4173622  52.9271393  63.4447632  62.7657967
  64.1588898  68.3961411  60.6361542  63.3456192  67.8997345  60.5444679
  64.2692795  68.5026169  61.5809860  85.9266891  18.5239677   6.3885112
  85.6577454  19.3599396   6.7693653  85.7479248  17.8800125   7.0737834
  64.9962997  46.6502533  56.3786545  64.4822922  47.3652420  56.0033951
  64.4362106  46.2869949  57.0646439   6.8589525  57.3786163  17.8370953
   6.6977744  57.7236595  18.7152748   6.6763010  58.1148186  17.2532482
   5.7102571  25.1945648  61.2121239   4.9383998  25.6831341  61.4980736
   6.1947742  25.0186996  62.0186882  60.9681435  30.1277428  29.7463512
  60.0724106  29.7929802  29.7035656  61.4882088  29.3825874  30.0471935
  15.0736952  50.1695480  75.9966660  15.5630169  49.3915520  75.7292328
  14.8084478  50.5802727  75.1737518  48.8845406  34.5362015  29.3896027
  48.7369881  34.3921356  30.3243256  48.7012444  33.6884346  28.9847317
  26.6318645  65.0849152  78.9178085  25.9499989  65.7504730  79.0090256
  26.3792534  64.5883255  78.1394577  61.0714073  54.8291779  43.9802666
  61.2547264  54.3461189  43.1744881  61.8286514  55.4038086  44.0925751
  37.8060303  14.0588360  17.1057281  37.4001389  13.6148424  16.3611794
  37.1172447  14.0915899  17.7696075  69.5228882   1.3816125  63.0869255
  69.5454483   1.4726315  62.1343307  69.5252533   0.4363056  63.2373276
  41.5757065  35.6339455  19.2370377  41.1893845  35.5677261  20.1103077
  41.8354874  34.7382355  19.0215111   6.9222226  48.6514397  41.1160965
   6.1858315  48.4861755  40.5273285   6.8502212  47.9718323  41.7863045
  72.3972626  56.6889305   4.2839589  71.8889465  55.9856300   3.8799536
  72.3157806  56.5332870   5.2248983  65.7188873  32.6833496  17.5657005
  66.1913681  32.3067741  18.3081169  66.1739197  32.3437843  16.7950687
  58.8441620  54.5749054  86.7748795  59.6515846  54.3444366  86.3153305
  59.1170998  55.2147331  87.4324265  47.7560463  26.2464924   9.4437752
  48.2758179  25.5576820   9.8580351  46.9827957  26.3312969  10.0015564
  67.0623322  41.0168228  64.1382294  66.4817657  40.5111504  64.7069855
  67.0199585  40.5687027  63.2934685  47.1510162  22.1619759  33.5287971
  47.8604889  22.6477184  33.1081619  46.3523064  22.5257473  33.1467400
  59.3832626  34.8490715  19.5721226  58.9135208  35.6826324  19.5994968
  60.3081627  35.0955048  19.5643349  75.9960403  33.9702759  40.9405327
  75.6394882  33.7866364  40.0714073  75.6383514  34.8280106  41.1698303
  57.6885834  11.6288223  58.4159737  57.9053917  10.9867573  59.0919724
  58.1613617  12.4194193  58.6761093  53.9679146  50.9635048  58.6650810
  54.5042343  51.5027771  59.2462692  53.5382423  50.3375130  59.2479553
  49.8727875  35.7794914  37.3476715  49.5571022  35.3603058  38.1482086
  50.2765236  35.0693970  36.8486710  62.5236130  19.8077221  29.6019592
  62.1948738  18.9649620  29.2890415  62.2458267  20.4357166  28.9351101
  72.3567047  46.1339226  45.6676598  72.9732361  46.5656281  46.2590599
  72.2991486  46.7194252  44.9126091  35.6241035  -0.1646124  75.6066208
  36.1717377   0.4247901  75.0880280  35.2369499   0.3969842  76.2781448
  22.5854626  57.8406448  28.9020309  22.2787457  57.6855698  28.0086613
  22.8318405  58.7655258  28.9135227  54.7545967  19.0827999  89.2269821
  55.2316475  19.5466232  88.5388489  53.8330688  19.1809063  88.9874191
   8.4665365  65.7926254  60.0135498   8.8373804  66.2095337  60.7912979
   8.5082827  64.8549805  60.2014961   0.4560465  21.0306911  57.9513245
   0.7328569  20.6943188  58.8036537   0.9501821  21.8432331  57.8425331
  24.2590866  68.8319016  14.6663570  23.7377968  68.8455124  13.8636723
  23.6171341  68.7164001  15.3669205  37.3409691  19.5799713  86.9410019
  37.5748863  19.2345753  86.0794830  37.9651489  19.1710625  87.5405273
   6.8883862  49.8434868  69.5543137   5.9379454  49.9240036  69.4742432
   7.0459819  49.7940254  70.4971542  36.5943565  48.0780144  14.1627588
  36.9739532  48.9531479  14.2420435  36.2119980  48.0613823  13.2854013
  64.6126175  61.7094688  47.1454086  64.7752457  62.1505356  46.3115921
  65.3244095  62.0026703  47.7142830  73.5568008  51.0334473  76.6074219
  74.4020920  50.9585609  77.0502701  73.6001129  51.8725929  76.1489563
  43.4267807  44.8445358   1.2854337  43.5158424  45.7913055   1.1762130
  42.8191757  44.5798683   0.5947835  43.2907677  55.7156677  42.5714149
  42.5302773  55.3765984  43.0435562  43.4415627  55.0797539  41.8720512
  46.8039780  63.0909996  74.4541473  46.6994438  62.1915550  74.1438141
  45.9095917  63.4231377  74.5315247  60.3350563  43.9585915   3.8454180
  59.6495361  43.3074989   3.6958339  59.9098663  44.6382217   4.3684335
  73.1974106  49.7652969  47.8074837  73.6523132  48.9235573  47.8352470
  72.3995819  49.6232948  48.3169327  71.8477783  63.7936783  21.4819317
  71.9362946  63.7748604  22.4348450  72.6256638  64.2615891  21.1783218
  -0.0903410  62.3988647  18.6665154  -0.0341380  62.6275063  17.7387257
   0.8206963  62.3191986  18.9491749  33.9271774  23.2758656  80.1967621
  34.8228760  23.4247074  80.4997635  33.3785782  23.7180367  80.8446426
  11.2104301  45.8838882  75.3901596  11.1782217  46.8189888  75.5921097
  11.5154037  45.8449860  74.4836807  62.7300072  26.2776947  39.5783081
  63.4090652  26.4200993  40.2377243  63.1250877  25.6675034  38.9555626
  51.4221916  67.4479294  88.6580963  51.0789528  66.8290863  88.0135345
  52.0264549  68.0000763  88.1618805  52.9042015  68.7507553  23.2355480
  52.9726486  69.6813889  23.4487934  53.1176186  68.3013306  24.0532894
  30.7776756  37.2183876  87.5234909  29.9264126  36.9025421  87.2204666
  31.1213188  37.7244339  86.7872467  86.7014313  27.0389194  37.8313293
  85.8786774  26.8967533  37.3632507  87.1758270  26.2127781  37.7381859
  76.4786224  23.2568550   5.9210963  76.8206100  22.4372272   5.5640378
  76.7740555  23.9279003   5.3057518  26.3868732  19.0019016  76.8837738
  26.7164173  19.8923779  77.0049438  26.9545002  18.4598255  77.4316635
  26.2903748   2.4584186  22.8361416  26.7138462   2.7543466  23.6419525
  26.4365234   3.1704512  22.2133389  85.6570969  25.5542393   3.7796581
  86.0138092  24.7578869   4.1731143  85.5546341  26.1592121   4.5143285
   8.2822008  43.9842072  67.0693283   7.3881269  43.6502686  66.9962082
   8.1988373  44.9262657  66.9216537  78.9462204  66.8211823  36.8618355
  79.8384628  66.5609360  37.0907364  78.3881607  66.2806396  37.4209595
   9.5050592   0.4776079  10.4367065   9.4838524   1.2080826   9.8184929
   8.6470633   0.4975870  10.8605890  69.1703491  18.4279327  34.5570908
  68.9280472  18.5280247  33.6364937  69.3580551  17.4944611  34.6552315
  30.1874733  19.2960854   7.2486882  29.3421764  18.9085217   7.4756269
  30.5688744  19.5481930   8.0896435   4.7356768  29.7507763  30.6986694
   3.9350607  29.9311409  31.1913300   4.9897985  30.5992317  30.3356609
  10.7321644  13.6224813  26.5221500  10.6542625  14.5764332  26.5339890
   9.8457851  13.3120670  26.3371964  80.3939972  69.1434097  88.6638489
  79.6616974  68.5622101  88.8692322  80.1744385  69.9678574  89.0977859
  31.6055012  53.5709114  10.6292419  32.1278267  52.9310951  11.1130238
  30.6989269  53.3522758  10.8450003  49.2052727  71.0387955   7.1320214
  49.4741287  70.7332001   6.2656746  48.4585075  71.6130600   6.9623361
  58.7418671  21.2807846   4.1298871  57.9326439  21.6179962   4.5141802
  59.3893814  21.3559952   4.8308144  43.5400391  49.1074219  38.5190048
  43.7387390  49.1854820  39.4520950  43.9222031  48.2682571  38.2621269
  37.6678467  56.7926445  18.3395691  37.2432060  57.0654678  19.1528835
  37.3198509  57.3884506  17.6761341  45.3863640  24.0189075  19.7744770
  46.1449966  23.4371777  19.8223743  45.7168007  24.8086853  19.3463516
  31.9834175  46.7820587  20.1319866  32.7125397  47.2467461  20.5426846
  31.6388493  47.3995361  19.4868317  12.9634066  10.6070356   5.3983884
  12.8249435  10.1526613   6.2294145  12.1137342  10.5675907   4.9593744
   8.5824585  66.0932083  77.3645096   9.0977240  65.8628616  78.1376038
   9.1445684  66.6907578  76.8713608  39.3357010  47.1297417  88.5413361
  38.8066368  46.6156235  89.1512604  39.7520714  47.7959480  89.0881729
  81.3611221  50.8021393  70.2033310  82.3181992  50.7867279  70.2020798
  81.1280212  51.1314049  71.0713654  59.9704552  27.5641212  27.5455494
  59.5971184  27.5586166  28.4269257  59.7675476  28.4353466  27.2049236
  21.9531765  47.5690804  50.1198540  22.6412868  47.8053474  49.4978294
  22.2354832  47.9570808  50.9480972  13.4641113   9.1518917  21.9094772
  13.6078625   8.3503485  21.4063911  14.1081142   9.7701521  21.5641594
  20.5151730  55.6456375  40.2366333  19.6707764  55.2611313  40.4719620
  20.5069923  55.6742973  39.2798958  11.8262300  41.5229683  27.1481762
  11.3625851  41.9337921  27.8778954  11.2487068  41.6500931  26.3954887
  56.7376442  25.6297703  73.8211365  56.9731560  26.4673004  74.2202759
  57.3039894  24.9906750  74.2536163  48.8337669  60.2818146  87.8660049
  48.9246483  59.5371628  87.2714767  48.3025093  59.9477768  88.5887909
  31.3040333  48.1744499  82.0807190  31.0260162  47.2906265  81.8403244
  32.2486191  48.0998039  82.2164383  79.4731293  27.4660969  25.8476276
  79.5900269  28.1384621  25.1764412  80.2422867  26.9032211  25.7593060
  32.3920326   2.2232356  15.4968529  32.2826080   1.6679400  14.7249041
  32.6153145   1.6139233  16.2004967   3.8012176  28.7880611  33.4475365
   3.2986133  29.3601170  32.8675575   3.2616696  28.0023098  33.5353775
  16.5943947  18.6722145   1.6642982  16.8844204  19.3070965   2.3193099
  16.0301418  19.1749516   1.0768403  76.6215515  19.7607136  47.4263992
  76.2746277  20.6049347  47.1380196  76.1523209  19.1156025  46.8973541
  22.2805157  53.7468452   9.0457439  22.2443485  52.8641663   8.6772251
  21.3732185  54.0513306   9.0275955   7.8280916  38.9370995  53.1710320
   8.6392527  38.5025864  52.9075050   8.0922937  39.5326385  53.8722916
  63.5952148  67.1873169  45.8759232  62.6660957  67.3443222  46.0442200
  64.0443420  67.5859299  46.6213264  77.7958908  19.6820621   1.0897748
  78.6724091  19.8603935   1.4305825  77.7416611  20.1990585   0.2860304
  82.8116074  29.6795578  27.1407146  82.6533432  29.0643978  27.8567905
  83.6786728  30.0416451  27.3232422  10.4880991  30.5254269   6.6789055
   9.9082594  30.7687569   7.4005756   9.8982229  30.2150154   5.9919405
  47.2957191  65.1287079  71.8863297  47.7989693  65.5947876  72.5539703
  47.6031075  64.2239761  71.9428406  48.0993652  31.1739140  85.7289276
  47.3473740  31.7338028  85.9219589  47.8324547  30.3037663  86.0252914
  80.9516678  69.3834991  32.9655609  80.0830154  69.1161118  33.2658501
  81.5015335  69.3326569  33.7474174  53.5711861  69.5875320  56.6487160
  52.7846909  69.2261734  56.2399635  53.6128693  69.1623383  57.5052795
  77.3761826  13.9744978   7.8217969  76.9106445  14.8067875   7.9042563
  77.8874359  14.0646820   7.0176063  72.5481110  61.9064255  12.1871967
  71.6520767  62.0118523  11.8674431  72.7948837  61.0208206  11.9206686
  65.4799652  67.2053986  27.9475250  65.4347153  66.5224838  27.2783394
  65.8157043  67.9728012  27.4842682  84.2722702  24.7558517  68.6979675
  83.6096115  24.8860512  68.0196075  85.0676270  25.1441917  68.3335190
  43.6564827   9.8543272  69.1755142  43.1843300   9.4969177  69.9275513
  43.8737717  10.7503014  69.4328995   8.2889338   3.5487101  32.2577972
   7.5718427   3.7012143  31.6423683   9.0276423   3.2918346  31.7059326
  66.5159302  13.5670252  23.8169994  66.5975037  13.4646034  22.8687973
  65.9588165  14.3374920  23.9276314  71.6489487  70.3043289   0.5486008
  71.1829834  70.7870331  -0.1341181  72.1158600  70.9784393   1.0423540
  63.3151360  51.4776344  17.9484100  63.4525185  51.1191864  18.8252640
  62.3648186  51.5611839  17.8700027  34.8939934  45.3027954  10.2185211
  34.4334183  44.7267609  10.8286743  35.7596664  44.9059982  10.1216221
  25.7270813  69.5544281  87.5595245  26.5607491  69.1053085  87.6992416
  25.6351643  70.1303940  88.3185043  75.8057938  33.3527832  70.4233704
  75.4683380  32.6200943  69.9080811  76.3492050  33.8470306  69.8096390
  33.4346008  18.3719158  69.9150391  34.2923164  17.9476681  69.9389420
  33.4407082  18.8789082  69.1031570  72.6927567   0.0351953  37.5185471
  73.0490494  -0.4158957  38.2839203  72.6887970   0.9598917  37.7658348
  27.2414112  16.6370411  79.2965469  26.3464394  16.9649258  79.2085266
  27.1667385  15.8951235  79.8967285  43.0865707  60.2991180  54.6314163
  42.6494484  59.9766731  55.4195709  42.6857758  59.8051491  53.9161606
  73.1960220  49.9000244  45.0256996  72.8005066  50.6949997  44.6681862
  73.0152893  49.9439850  45.9646530  59.9929008   5.4624968  60.8120193
  60.2170181   4.5343566  60.8795509  59.1462898   5.5371184  61.2523727
   0.7007455  40.9824524  40.3346786   0.6320674  41.8276749  39.8907089
   1.5172095  40.6053810  40.0069046  14.1365280  22.5022335  13.8982143
  13.6316833  23.2320080  14.2570925  14.7882328  22.3076897  14.5717621
  72.9270020  56.6215668   0.5860968  72.4559937  56.9436035   1.3546499
  73.3455582  57.3998337   0.2182018  46.9795799  55.2769890  21.9791527
  46.7227859  54.3778305  22.1836224  47.4334450  55.5810738  22.7651386
  74.1049271  63.2406960  46.2374496  74.9927063  63.1154594  45.9022026
  74.0288315  64.1860809  46.3666306  51.0906448  13.2907209  64.0001755
  50.5369415  12.5111580  63.9562836  51.2168694  13.4424162  64.9368134
  74.0636597  59.1058540  62.3748322  73.9046402  59.7553635  63.0597267
  73.2406540  59.0649567  61.8877869  35.2363548  62.9570503  88.6741257
  35.1117897  63.4017715  89.5125351  34.5704803  63.3363495  88.1005554
  41.3421593  61.1340294  28.5333576  40.8203316  60.8361130  29.2784576
  41.5557785  60.3329430  28.0549698  53.8742943  37.9146576  69.9482422
  53.7402267  38.3104248  69.0870667  53.6632309  36.9895668  69.8221817
  32.7518578  16.6174831   7.8448887  33.1197891  15.7707262   8.0975962
  33.2409821  16.8667545   7.0607653  82.5059357  15.9240150  19.3927841
  82.7396393  16.2916012  20.2451305  82.8527374  15.0320854  19.4133778
  16.0770473  50.6640816   2.8284483  16.9895668  50.4171944   2.9787381
  16.1007843  51.6149139   2.7208233  63.6527481  68.1266708  37.8722801
  63.6445732  68.3241653  36.9357109  64.3207550  68.7090225  38.2340355
  22.9104710  17.3429565  11.4841805  21.9661884  17.3745155  11.6376886
  23.2477455  16.7801228  12.1811008   2.7747934  38.9753799  32.6639481
   2.4282055  39.8664436  32.6180115   3.4430993  39.0133057  33.3481712
  38.3375702  41.8923302  76.5047379  37.5132027  41.4492073  76.3040161
  38.1987877  42.7961235  76.2216644  29.7727432  58.1409645  56.3632622
  30.1021252  57.9106979  57.2320061  30.0774002  59.0372314  56.2214127
  11.6456795  71.5492859  86.1489792  11.1374435  70.7464142  86.2643814
  11.1629467  72.0453873  85.4878540  45.6525040  66.4966965  74.4738617
  46.5802841  66.7239151  74.4119644  45.5783653  66.0148392  75.2975998
  53.9945641  57.4256935  84.3101730  54.2591705  56.5433846  84.0498886
  53.2222214  57.6114540  83.7761154  71.1912308   1.1797005  51.3787651
  71.2297745   1.1031544  50.4254074  70.6015320   0.4769042  51.6518288
  74.3603821  24.5930443  38.8624077  73.8184814  24.0502529  39.4350777
  74.7522964  25.2413940  39.4474525  55.8296585  11.3932629  26.7417011
  55.6749916  10.4565067  26.6200523  56.2224121  11.4601288  27.6120491
   6.7435236   6.9642882  74.7605362   7.4653149   6.3490133  74.6313629
   7.0927725   7.8073077  74.4714432  61.1952515   1.3369308  70.6546326
  61.6841545   1.6071502  71.4319229  60.2897072   1.5827761  70.8437958
  73.2534180  55.1759300  58.1338615  72.7830582  54.5002136  57.6455956
  72.9426422  55.0809517  59.0342140  15.3098249  63.3272057  31.0994148
  15.4788799  62.4255791  30.8260574  14.4413481  63.5249214  30.7488594
  71.7543793  36.9117966  41.1014023  71.2765427  37.5876083  41.5822220
  71.4309464  36.0866356  41.4629669  33.2012482  30.4474812   3.7451932
  33.4958000  29.5675430   3.5102847  32.3951607  30.3056927   4.2415271
   2.2376876  30.0959835   3.4343321   1.7556626  30.9106064   3.5767167
   1.5576373  29.4328194   3.3161087  18.1482201  48.0318375  80.6648788
  17.7618008  48.3009033  81.4982529  17.7667446  47.1713905  80.4906998
  68.1158218  46.3180656  32.2127304  67.8226852  45.7389946  31.5091820
  68.9156418  46.7204285  31.8741741  82.5331497  67.5305099  63.1935310
  82.2734756  67.7816162  64.0799561  82.0409012  66.7285919  63.0178642
  24.1020432  25.8581104  82.8768387  23.2512531  26.2938805  82.8269272
  24.2550087  25.7379856  83.8140640  23.0739269  50.1369362  37.8310432
  23.4914246  50.9922676  37.9327126  23.7261009  49.5127373  38.1492805
  11.4864063  37.0504227  60.3917770  11.5543861  37.1538620  59.4426117
  11.9272842  36.2206726  60.5744667  18.5504456  57.8703575   5.6852241
  19.4864883  57.6944885   5.5896950  18.4143372  58.6990318   5.2258730
  80.3074875  27.1161785  78.4250488  81.1828918  26.8488407  78.7051086
  80.2624741  26.8610439  77.5035782  57.8078690  42.6052742  42.3911819
  58.5782318  42.1919479  42.7809715  57.9256935  42.4903069  41.4482422
   5.6380739  67.3835831  26.1174965   4.9411464  67.9977112  25.8864899
   6.1188316  67.8203201  26.8206062  62.5040283  37.3479271  53.2012901
  62.8648071  37.4478493  52.3203316  63.2418251  37.5275726  53.7840538
  68.0267639   4.2178960  39.1680984  68.7603302   4.0875268  38.5671654
  67.8125000   3.3382735  39.4788818  13.8251057   4.2646017   0.1575613
  14.0616579   4.0415506  -0.7427295  14.2982025   3.6285679   0.6940994
  82.3213654  10.2978821  66.9933929  82.1000595  11.1628265  66.6482468
  82.1741562  10.3714371  67.9363403  78.4294586  12.2803240  25.9303265
  79.1380539  12.3739920  25.2936554  78.2082443  11.3493233  25.9072399
  64.5544281  44.4645576  37.2113686  65.3978729  44.0604591  37.4151764
  64.7815475  45.2993698  36.8018074  36.2475777  58.5165443  26.2098217
  36.3636436  57.5698547  26.1289883  35.3250198  58.6259232  26.4403782
  46.4138680   2.8045988   9.0096197  46.6268272   3.5852232   8.4982452
  45.6016006   3.0296793   9.4632645  47.3900604  65.4060211  78.2887192
  47.7708588  65.3386917  79.1643295  47.8099937  64.7049408  77.7903519
  49.1544037   2.1902003  55.8654785  49.0841675   2.6221774  56.7167702
  48.4963760   2.6235840  55.3219643  51.4935989   3.4789741  10.9347038
  51.5743561   2.5450177  11.1281862  50.5507126   3.6438301  10.9391117
   7.8855472  38.8507690   1.5107225   7.6862869  37.9147110   1.5287405
   8.6438828  38.9453545   2.0871015   9.7043953  70.5444183  53.9755325
   9.9762182  70.8829117  53.1224365   9.2041454  71.2595749  54.3686371
  21.4673805  50.8961983  69.9536209  22.3786068  51.1392021  70.1174698
  21.5194740  50.1962547  69.3027725  51.9258881  23.4447136  61.9836960
  51.0704308  23.0392303  61.8422432  52.4957161  22.7190437  62.2385101
  85.1798401  66.6566315  57.7825737  85.4504471  67.3978806  57.2407608
  85.8391190  65.9834595  57.6140099  70.4267120  15.5933180  87.2794571
  69.6355820  15.2278328  87.6753845  70.6601410  16.3288403  87.8458023
  66.2948685  61.1613731  78.7784958  66.0764008  60.9894295  77.8625641
  67.0598984  60.6120720  78.9494476  53.7590981  14.3318634  28.0885715
  54.2728233  14.7223177  27.3815594  54.2732315  14.4987001  28.8785496
  83.0420609  30.7473145  51.5762901  83.3371048  31.5486736  52.0087318
  83.8343124  30.2175407  51.4873390  77.0051041  37.1913834  83.5580597
  76.4010010  37.8781052  83.2757416  76.8470917  36.4687691  82.9505310
  70.0638733  13.4575949  37.2626038  70.3250275  12.8253241  36.5930786
  69.9188461  12.9291954  38.0474548  67.7404633  68.3868713  33.1544952
  67.4240341  67.4838409  33.1799126  66.9518280  68.9199219  33.2552109
  40.3026733   7.9469743  12.1999302  41.2079124   8.1579819  11.9713459
  39.8078346   8.1144962  11.3978682  13.9766150  57.2960205  24.1010132
  13.7277822  57.3527145  23.1784630  14.5130129  58.0741692  24.2526588
  19.5217800  53.8597984  52.0168800  19.9083519  54.6873016  52.3032990
  19.3067455  54.0022583  51.0950890  73.1423645  49.4143448  64.9348221
  72.9566956  49.9020996  65.7372284  72.9934158  48.4988174  65.1711578
  44.9260864   7.1959834  43.9746704  44.1662102   6.7411494  43.6114273
  44.5737648   7.7063727  44.7037773  79.9382248  31.2424316  58.1472816
  80.0185394  31.2924938  59.0997887  79.8915100  32.1551094  57.8625603
   6.8807044  35.1435776  40.9277153   6.0133410  34.7901268  40.7302666
   7.4493456  34.3746147  40.9673805  15.9505224   9.7910109  61.3045120
  16.0420113  10.7019901  61.0252686  15.7763071   9.3090296  60.4960709
  78.8745575  36.1606064  38.2244949  79.2303696  35.3526840  37.8545036
  78.0397415  35.8988724  38.6128387  82.3454361  68.4212036  72.0011520
  82.9842758  68.4088058  72.7138672  81.5493851  68.7735443  72.3991394
  83.5650635  47.4833679   9.6922760  83.4041672  48.3986816   9.9215031
  82.7360306  47.1797752   9.3224688  41.7505531  55.7976036  31.9494877
  41.0002670  55.4173241  31.4926586  41.4644928  56.6796646  32.1869049
  11.7302847  45.5742531  52.1728516  11.6603069  46.1538506  52.9314003
  11.9560642  46.1559448  51.4469795   9.0435724   7.3513517  76.7761765
   9.6358757   7.7371573  77.4215927   9.0512495   7.9688301  76.0448151
  85.2614441  56.1486473  59.7233467  84.8480301  56.8935776  59.2870026
  84.5305634  55.5891266  59.9860039  62.3687820  40.7742233  14.3800201
  62.8436890  40.9080963  13.5597916  62.0507469  41.6452370  14.6175499
  24.5791988  43.0125618  64.3297043  24.9116840  42.1871986  64.6825027
  24.2690792  43.4934082  65.0970688  13.0753479  23.0047436  72.9310532
  12.9458199  23.8861256  73.2812271  13.1812725  22.4524517  73.7056351
  21.8197174  51.7780457  50.7767601  20.9538307  51.5407829  51.1086884
  22.0830841  52.5284348  51.3094788  71.5297012  31.0490608   4.4747458
  70.6277618  31.2737694   4.7033091  71.5007553  30.8682556   3.5352228
  68.1320877  31.7749252  11.7961521  68.0983734  30.9872017  11.2533922
  69.0447540  32.0595779  11.7487421  63.9415092  58.8346672  76.9661179
  64.6522903  59.4605865  76.8273926  63.5049019  58.7758560  76.1163254
  70.0434113  55.0727234  58.1044159  69.3585815  55.6921692  57.8523750
  70.8338547  55.6072464  58.1799812   4.9106054  53.4901237  67.0314102
   4.8369393  52.6905403  66.5103760   5.8444271  53.6999168  67.0174408
  47.3107338   8.3583746   0.4988147  47.7114563   8.5328693   1.3504045
  47.0948029   9.2246876   0.1536957  60.5778084  28.1758308   2.5701256
  61.2739716  28.3708992   3.1974487  60.0714073  27.4768906   2.9839771
  75.2299042  45.8664970  67.7814865  75.8127365  46.6241226  67.8318558
  75.7114944  45.1643333  68.2188339  55.1817131  19.1524849  31.1708374
  54.4822960  19.6584282  31.5844460  54.7299843  18.5869007  30.5445080
  46.6485138  40.7929878   4.8264160  47.1822739  40.0550957   5.1211119
  47.2176323  41.2760849   4.2272911  62.1752472   3.7660387  21.4496441
  62.0872726   3.9428372  22.3862514  62.1173325   4.6276770  21.0367794
   6.5597324  20.1705475  84.1484680   5.9907641  20.0139141  83.3948288
   7.4288850  19.8996506  83.8527985  79.9492722   6.3876500  78.4624252
  80.6810226   6.6451697  77.9016647  79.2676392   6.1058111  77.8523636
  80.5559464  13.3023777  24.2710056  80.0336380  13.4336491  23.4796772
  81.4550629  13.4839048  23.9973888  58.8177719  27.5302258  37.5874634
  58.1484566  27.5707378  38.2705536  59.4963493  28.1383286  37.8806763
  73.6603012  67.7428513  25.6789322  73.1988983  68.5059357  26.0268345
  74.5831985  67.9155731  25.8650780  10.2958012  30.3448696  22.9246635
  11.0137272  29.7285519  22.7798691  10.1727972  30.3505611  23.8739109
  74.4053650  16.0255604  88.5932236  74.5899734  16.9009132  88.9336777
  75.2624435  15.6798401  88.3439789  34.5457573  28.5293941  14.7407255
  34.3645859  28.5416393  15.6805449  33.8356895  28.0077229  14.3667021
  70.1865692  48.4873466  40.5131035  70.0897293  49.2905350  41.0247078
  70.6231384  48.7670555  39.7084923  74.1365204  30.3809319  36.0931931
  74.0072403  31.1110077  36.6985893  74.0599899  29.5994396  36.6405907
  24.2314491  30.0953770   0.8846962  24.6748352  30.9419022   0.9397971
  24.3672829  29.8122616  -0.0195313  31.8567467  53.3514519  82.5244904
  31.7787361  52.9439430  83.3870926  31.9364338  54.2874870  82.7081146
  51.5581245  34.8461838   4.4614758  51.3645515  34.2258377   5.1642818
  52.4706612  34.6707993   4.2318029  51.4483185  11.7120132  21.3735104
  52.0216789  11.3890018  22.0686035  51.6143837  12.6542530  21.3445606
   3.6341898   9.8585777  16.3993015   4.0076284   9.5915537  17.2392254
   4.3912525   9.9629984  15.8229465   4.3258886  44.9016075   3.8102427
   5.2607312  44.9164505   3.6051064   4.1065612  43.9712563   3.8610170
  64.5617371  31.7444000  47.5322952  63.9284592  32.4602661  47.4801369
  64.6406860  31.5622101  48.4686775  48.5382271  29.8884907  19.3221092
  49.1942139  29.3859901  19.8052311  47.7040901  29.6370392  19.7186260
   8.2103958  40.9247704  80.1497803   8.2890329  41.6220779  79.4987717
   9.0815668  40.8635864  80.5416412  50.0996857  45.3007698  47.5697937
  50.7146149  44.5854225  47.7321701  49.5137062  45.2893219  48.3265800
  84.9653397  43.1054611   6.2495308  84.3053665  42.6515694   6.7736039
  85.3871918  43.7063332   6.8637180  11.1851091   1.3034105  14.6248531
  11.4215765   0.5389470  15.1501255  10.3468170   1.0700023  14.2260809
  69.8927002  26.4097576  19.1072598  69.4108200  26.9069176  18.4463043
  70.3597641  27.0744076  19.6135445  50.3130455  25.4270592  29.1025543
  50.2444687  24.5032196  29.3434868  49.6152000  25.8561440  29.5976582
  80.0655212  30.4629002  47.8576889  80.8262024  30.7967739  48.3332253
  80.1599426  29.5110188  47.8928680  57.3809700  24.0045204  34.8364639
  57.0586014  24.6455517  34.2029114  56.8981056  23.2033691  34.6334190
   2.1746666   4.2342882  60.3688278   2.1193488   4.0342813  61.3032608
   1.4725872   4.8670368  60.2173500  81.4712143  70.4248428  86.5126572
  81.2131271  71.2924576  86.8238907  81.0625229  69.8177185  87.1295929
  51.2017555  18.7411785  64.7259750  50.2645950  18.7000294  64.9164124
  51.3013458  19.5216579  64.1808472  33.5270004  31.5248661  84.5094757
  33.2961693  32.3206062  84.0301514  34.1614647  31.8154488  85.1646423
  16.5250340  67.6660233  70.6630249  15.8774376  68.2653732  71.0340042
  16.5947094  67.9271622  69.7447739  54.7354507  57.0866890  32.8836632
  54.1556854  56.6923485  32.2320518  54.7821884  58.0099030  32.6352119
   5.6586533   2.4613626  35.4281197   5.8114238   1.5185632  35.4915390
   6.5219836   2.8321273  35.2452927  83.2772293  53.6455536  63.8871307
  83.7999649  54.2189865  64.4476242  82.5083618  53.4305153  64.4151764
  66.1285095  38.6482468  79.5471497  65.1742096  38.6106567  79.6113815
  66.4358139  38.4612694  80.4341888  35.0552063   8.9876776  85.5595932
  34.9375687   8.9953794  84.6096802  34.4845695   9.6874466  85.8772888
  79.3673782  57.3871498  17.5675697  78.8506088  56.8690529  16.9505119
  78.9515915  58.2493172  17.5634193  59.2368965   0.3528645  52.7600479
  59.3875885   0.2101560  53.6944771  58.8900337  -0.4811424  52.4432640
  25.7567310  38.2862396  11.4910574  24.9304695  37.8416595  11.6804523
  26.1051006  37.8285294  10.7259617  69.7100372  66.0627060  80.8744125
  70.3548584  65.9587326  81.5741425  68.9134827  66.3464508  81.3229904
  12.7730246  14.2174377   6.7458878  11.9626665  14.6438408   7.0246916
  12.6107330  13.9658022   5.8367271  23.6385422  34.7868919  29.3081799
  23.1940250  35.6346054  29.3036366  24.1636963  34.7961121  30.1084042
  75.9739075   6.4080973   1.2287816  75.0372467   6.2428179   1.1211313
  76.3956909   5.6065302   0.9192326  68.1002274  34.1814575  60.0306091
  67.8162460  33.2698898  59.9625664  67.2869339  34.6862183  60.0320168
  79.1436081  28.5984192   0.4305828  79.7634048  29.1895332   0.8579779
  78.6029816  29.1709290  -0.1136507  27.8345909   1.3161939  69.0259933
  28.2188263   0.4440433  69.1151505  27.9921856   1.7349923  69.8721695
  32.7656326  51.1786499  27.3850136  33.0976143  51.9918594  27.7654266
  33.3852386  50.5086594  27.6738644   1.7826068   5.5774755  72.9534683
   1.5303330   4.7255387  72.5973892   2.6684647   5.7230692  72.6213684
  61.5796661  15.7276030  69.9159393  62.4822540  15.4904270  69.7030563
  61.2947502  16.2700348  69.1805344  55.0020638   1.2806016  74.9414902
  55.4255066   2.0349057  75.3513107  55.4613419   0.5225059  75.3028564
  59.8227081  51.7228851  58.0133820  60.3601990  51.4732323  57.2617149
  59.0830154  51.1157722  57.9911003  66.8380508   9.4227629  14.4065876
  66.8682938   9.1708384  15.3295460  67.7516403   9.5874414  14.1732044
   9.7577124  32.4001389  59.9053307   9.8325930  31.4462109  59.8798637
   9.0329399  32.5994034  59.3126869  38.6699371  48.8178596  19.2803535
  39.2328262  49.3465080  19.8459663  37.7807350  49.0957260  19.5002327
  12.6932564  61.7792625  14.3613396  12.9662609  62.2839165  13.5951662
  13.4521170  61.2355385  14.5728331  64.6557465  41.1121521  43.4530449
  64.7109985  41.8803940  42.8847275  64.7532806  41.4618950  44.3387070
  18.2803440  26.1737709  22.4799843  17.3267078  26.0970097  22.5102463
  18.5406799  26.2865887  23.3941669   6.4552212  42.6186447  40.3310623
   7.1048417  41.9284286  40.1975517   6.3916411  42.7070084  41.2820511
  67.5276184  17.1657810  87.1022415  66.5869751  17.2037487  86.9291229
  67.5914841  16.9900455  88.0410004  82.2390747  65.1908188   4.1810493
  82.6903000  65.1774292   5.0251141  81.6620026  64.4275360   4.2058191
  30.4559212  13.8389511  15.1760139  30.9485092  13.4233923  14.4682713
  29.9037437  14.4853315  14.7361021  72.6124191  44.1218681  49.7342873
  71.8886032  43.7559204  50.2426262  72.8785019  44.9007759  50.2228889
  23.7684021  58.7570534  71.3399658  23.6868553  58.5216408  70.4157562
  24.5204430  59.3484077  71.3710480  47.0263824  67.3460846  87.1982880
  47.6035500  66.7287598  86.7488174  47.3239861  68.2079010  86.9068527
  56.7185326   7.8919044  33.8231049  56.0958977   8.0780849  33.1203270
  56.4604340   7.0299335  34.1496353  64.6890106  15.4424782  38.9967575
  64.7146683  16.0542793  38.2610435  63.8201904  15.0438919  38.9466248
  55.3161354  54.8995056  80.1974411  56.2167244  55.2210503  80.1552582
  54.7941055  55.5965042  79.8000565  66.5899200   2.7246127  34.9514351
  67.1131821   3.4578021  35.2752647  66.9330978   1.9616038  35.4164925
  19.7279186  25.3242111  17.3988914  19.3236828  25.8586102  18.0824432
  20.0796394  24.5655231  17.8646355  59.5472412  49.5700073  39.9810944
  58.9649925  49.0236320  40.5090065  59.4909668  49.1988297  39.1005898
  52.8693123  44.8534737  52.9617615  52.4344215  45.7061501  52.9552689
  53.4070740  44.8528481  52.1699028  55.6834717  39.9843025  79.8945618
  56.3636627  40.6561050  79.8471222  55.5681763  39.8259354  80.8315048
  50.6636314  21.5415421  65.0192108  49.8419991  21.0653019  65.1389923
  50.3952675  22.4476700  64.8670807  54.2884064  50.6211052  39.1496582
  54.1629295  51.3250999  39.7859573  53.6081085  49.9821396  39.3621445
  13.2008600  34.8834572  85.7414856  12.9169979  35.1506538  84.8672714
  12.4190311  34.9760933  86.2859116  38.7960167  59.1751442   0.1622348
  38.7440681  58.2444038   0.3796241  37.8927956  59.4861183   0.2232107
   3.6676552  25.6341743  65.3138504   4.0442185  25.4549217  64.4522781
   3.9587538  26.5218449  65.5224915  34.0674286  36.3426208  13.5205269
  34.0488091  37.1422462  12.9947090  34.8572769  35.8849564  13.2325802
  75.5585556  34.9510574  18.4486694  75.6120377  34.1828384  19.0171833
  76.4704132  35.1787758  18.2673321   6.2551689  37.6467743  24.7287235
   7.2012258  37.7918282  24.7157421   6.1412787  36.7751465  24.3498821
  71.2254791  58.7620277  39.5658607  70.7271805  58.3472977  38.8616409
  71.4794083  59.6136513  39.2102013  23.9740582  33.0912590   4.5316463
  23.3696098  33.5605087   5.1066923  23.4296951  32.4355164   4.0958691
  46.3740807  48.8004189  27.9137917  45.7316933  48.4060860  27.3238163
  46.2167053  49.7420387  27.8443718  40.5424385  40.0658607  76.9652634
  40.8759422  40.3460693  77.8176041  40.0157318  40.8043594  76.6595917
  22.5510044  22.0392532  74.0155106  22.7677670  21.2643013  74.5338745
  23.1956425  22.6943264  74.2830048  79.4773865  49.8515282  37.0567551
  79.3789139  49.7361679  38.0018616  80.3153687  49.4372215  36.8509178
  66.4636459  26.3603935  77.6575928  67.3867416  26.1555042  77.5087509
  65.9952240  25.8472290  76.9992142  58.5625648  43.2914162   8.7950783
  58.0670433  43.9943199   9.2153358  58.0136681  43.0176506   8.0602350
  43.0563622  65.5164032  22.2009048  42.9188995  65.6337738  23.1408844
  42.5048599  64.7689972  21.9696808  83.3627090  35.8462677  24.0871334
  83.2569046  35.1554527  23.4330597  82.7355042  35.6230240  24.7748890
  75.5169678  39.2460136  82.9249115  76.1835861  39.9177704  83.0684052
  74.6887894  39.7259598  82.9277725  56.1780510  66.3088608   0.0361889
  56.3796310  65.8251648   0.8372080  55.3906174  65.8864365  -0.3069442
  19.2962379  22.4326115  16.6970673  18.8125362  21.7896252  17.2155571
  20.0065594  22.7181454  17.2716503  63.1002197  45.2927437  43.2116318
  63.8892403  45.8145485  43.3579292  63.2336426  44.8925323  42.3524094
   4.7687516  43.3997116  87.2025299   4.0870790  43.7003517  87.8035049
   4.4544826  42.5517578  86.8887634  30.4971409  37.6033363  54.6191063
  30.7796745  37.1829529  53.8068962  29.8277969  37.0170822  54.9719696
  37.0548515  38.0982208  19.7841682  36.3547249  37.8091049  19.1989613
  37.8374138  38.1115036  19.2331238  80.4338531  10.7286987  10.5646343
  80.8339996  11.5502071  10.2796097  79.8581924  10.9805555  11.2867260
  85.7772522  42.0920525  72.2228317  86.1524124  42.5034790  73.0014267
  86.2020187  42.5362320  71.4889984   8.9092607  45.3421898  62.2098160
   9.5200739  45.4404678  61.4794197   8.9126854  44.4041481  62.4003448
  85.9896164   2.5723968  49.8944511  85.4762192   3.1525950  49.3322945
  85.9650497   1.7249562  49.4500732  31.0538998  49.2199135  55.1970825
  31.2174606  49.9486084  55.7958183  30.3282108  48.7401237  55.5963478
  62.7723045  38.0394325  83.5715714  61.8912506  38.4086266  83.6321869
  63.2337494  38.6191597  82.9655838   7.2324572  24.6538773  19.3562164
   6.5678816  25.3024025  19.5885620   6.8111887  24.1059170  18.6940193
  85.6755295   9.1827879  43.4202309  85.6901627   9.7150469  42.6247940
  86.2973557   9.6125679  44.0074730  59.9318314  48.2467728  20.1246510
  59.2399826  47.6790657  20.4641819  60.4753227  47.6683044  19.5896549
  40.2886810  60.2208214  42.6822510  40.1489449  61.1514511  42.5072174
  41.0325508  59.9821358  42.1291542  28.5866241  17.6353302   2.3306427
  28.1895885  17.6416397   3.2015936  27.8470688  17.7251549   1.7296255
  62.2124977  18.4554749  83.8981476  62.4965515  17.8084564  84.5438309
  62.8813896  19.1392365  83.9339828  72.0414429  67.4780579  63.6833420
  71.6118317  67.6344910  64.5242920  71.9626999  68.3095932  63.2158165
  71.9037552  14.7314758  14.4583521  71.4712448  15.1853409  15.1816587
  71.9076843  13.8110991  14.7212639  72.1558151  21.1051960   6.1223187
  71.9437103  21.1831226   7.0524640  71.4946899  21.6380081   5.6804409
  84.4038010  55.0513191   5.0926018  85.1761932  55.5543709   5.3506327
  84.5847855  54.7791634   4.1929317  53.0898094  51.6941338  25.4847355
  53.9382706  52.1360397  25.5173149  52.9982071  51.2876854  26.3465023
  13.2230015  39.0998726  14.5610847  13.9428825  38.6032333  14.9501305
  13.1817617  39.9054337  15.0764465  77.2246780   4.1137271  54.6956635
  76.6067200   3.9788339  53.9772224  78.0869217   4.0198236  54.2907524
  67.9479294  55.1216431  52.3801384  67.3269958  54.6965675  51.7885475
  68.4528275  55.7078476  51.8165169  73.2277756  44.8981934  63.1041451
  73.3001938  45.2318916  62.2099228  72.3017654  44.6769104  63.2029572
  69.5419159  60.3309593  14.8530445  70.3495941  59.8847580  14.5985022
  69.8356781  61.1553383  15.2407694  13.2516184  36.4137535  51.3109245
  13.5662899  35.8815804  52.0416794  13.9631796  37.0308037  51.1401520
  66.6405334  65.2747879  66.6707535  66.5812759  65.6455994  67.5512238
  66.8727875  66.0174026  66.1132507  63.1154900  58.5853195  81.9431534
  62.4857483  58.0369186  82.4110413  62.5751762  59.1938438  81.4391861
  38.7213097  15.6247826  87.0504684  39.3853149  16.1202507  86.5710526
  37.9631500  15.6128502  86.4662704  24.2960205  47.5233688  68.8414078
  24.8830681  48.0854759  68.3358002  23.4191647  47.8502693  68.6401825
  66.0581512  33.9712334  41.5206184  66.9690094  34.2648506  41.5014954
  65.5454178  34.7763901  41.4495316  75.9971008  20.3570290  49.9537621
  75.1479797  20.7916279  49.8740120  76.2655945  20.1883621  49.0506058
  73.8094101  42.4226570  35.8025818  73.5031204  42.0397072  34.9805298
  73.9945755  43.3366280  35.5867119  38.4491463  48.4679947  59.2468910
  38.1413841  49.3725281  59.3046646  37.6978188  47.9414711  59.5198669
  51.5951958  66.5877914  19.1002789  50.9743195  65.9306183  18.7858486
  51.8654823  66.2692337  19.9614983  13.5622187  51.1860161  40.1435280
  13.7666492  51.4116478  41.0510139  12.7721672  51.6882515  39.9439964
  37.9378242  48.2584038  74.3587952  38.1047173  47.3206291  74.2641525
  36.9850540  48.3379707  74.3126373  80.7351685  19.8260803   6.5958276
  80.5674438  20.3552189   7.3756418  80.2102356  20.2379131   5.9094801
  79.7496109  64.5959854  59.1078606  80.6196899  64.9741974  58.9807892
  79.8439713  63.6822853  58.8386421  81.4862976  33.1531677  31.6183949
  80.6061859  33.4784203  31.8077068  81.6443024  33.4053764  30.7086372
  36.2480431  61.2130814  10.0585423  36.0816345  60.8783073  10.9397163
  37.2016335  61.2732735  10.0013170   0.9233274   7.2795362  36.0903778
   1.8010175   7.4256005  36.4433060   1.0340118   7.3378420  35.1413879
  37.4006119  40.4978905   1.2546121  36.6362190  40.7078323   0.7180851
  37.0785904  39.8593407   1.8908423   4.0928130  29.6088867  10.6245165
   3.3708909  30.2245903  10.7508869   3.7161472  28.7529564  10.8288078
  74.5208206   7.2820740  35.5062561  74.6000900   7.7119961  36.3577919
  73.7725525   7.7103558  35.0904465  73.4308624  65.4379044   4.9858413
  74.2453003  65.8907318   4.7670765  73.4135132  64.6803055   4.4010525
  80.3116455  35.7420540  25.8418694  80.3257446  35.4382973  24.9342556
  79.4343491  35.5213165  26.1547089  58.9408073  42.4175797  58.7511215
  58.1445160  41.8896255  58.8095932  58.8231850  43.1021767  59.4096985
  32.6511650  31.0769501  16.6178036  32.6287498  31.6163235  17.4082489
  32.4339676  31.6820908  15.9086761  84.4059219  54.9532166  46.4112320
  85.1376343  55.4095078  45.9957581  84.6124878  54.0244255  46.3067932
  46.6556244  32.3823242  70.2176437  47.2522240  31.9312763  69.6202621
  46.9601746  32.1365089  71.0911713   2.6015291   6.2574997  81.2348099
   2.0022125   6.5280876  80.5392303   3.3958535   5.9864583  80.7745743
  47.0324364  50.6451988  88.5580215  47.9638023  50.4481544  88.4581833
  46.9811478  51.5988579  88.4937363  60.8647957  65.7446594  67.4373550
  60.4143600  65.7313843  66.5928650  60.7224579  66.6305313  67.7708282
  81.9570389   8.1341114   6.8340693  81.2128448   7.5396333   6.9289575
  82.6613770   7.5834599   6.4921327  84.1747894   3.0717757  29.6778851
  84.2718964   2.6880074  28.8063774  84.6579361   2.4805210  30.2551384
  22.9854965  41.3279648   2.2854838  23.3693752  41.9974785   1.7192495
  22.3653717  41.8064384   2.8357005  13.1423321  34.8015099  56.5420151
  13.0265913  34.9889793  55.6105156  13.6656017  34.0002480  56.5618629
   7.5096340  57.9094048  36.2709465   6.6018682  57.7650185  36.0038414
   7.9524817  57.0849686  36.0698891  51.0703545  11.6738224  82.2934189
  50.7061386  12.1069717  81.5214310  51.1442261  12.3700218  82.9461670
  55.3958817  51.3304024  55.2547684  55.0831909  51.3335075  54.3500862
  55.3611298  52.2484894  55.5233498  82.3239670   6.9026361  72.6183777
  83.2599564   6.7662034  72.7651596  82.2797546   7.6785607  72.0596161
  61.8841820  52.6449471  48.1051483  62.2616615  53.3012276  48.6908379
  61.4976654  53.1538887  47.3925362  39.8740845  65.6001816  48.1372757
  38.9317169  65.6849823  47.9924240  40.1669006  64.9917679  47.4588013
  71.6932831  17.9118652  21.7886429  71.2070084  18.6429310  21.4074516
  71.5171127  17.1756363  21.2028408  47.3129959  32.1892090  23.2830658
  47.7076492  32.6988068  22.5754013  47.2945518  31.2918186  22.9505272
  35.2400398  13.9525871  67.3348618  36.0304527  13.4163589  67.3976593
  35.0639229  14.0105600  66.3957901  40.9065170  40.5742340  60.3501663
  41.3308372  41.1928139  60.9447594  41.6216049  40.2232666  59.8194122
  40.0752792  58.0849037  68.7348022  39.3947296  57.7365799  68.1588211
  40.8968086  57.8611336  68.2974854  67.4518280  70.1909180  53.5412025
  68.3710785  70.4157181  53.3974228  67.4801636  69.3818130  54.0518608
  36.8166580  69.8511353   6.7485108  37.2313652  70.4901810   7.3280544
  35.8802261  69.9386978   6.9264574  22.1466408  64.8146896  58.4685745
  21.9533176  65.7076263  58.1830521  22.0154381  64.8326569  59.4165688
  34.4346199  26.4022980  69.7235641  33.5243835  26.5537109  69.9780731
  34.6886520  25.6125832  70.2011108   9.7887201  29.7882538  89.0133057
   9.5611839  30.6385555  88.6372147  10.4002094  29.4043140  88.3848953
  16.8991566  61.0767097  53.4345665  15.9503794  61.1999550  53.4639969
  17.2558441  61.8643494  53.8452148  11.0103703  59.0159721  28.6679707
  11.8818016  58.9910202  29.0632133  10.5230770  58.3263664  29.1187763
  24.3187714  66.9797821  67.4041519  23.6105328  66.7918701  68.0200424
  23.9688206  67.6692047  66.8398285  44.4472656  38.7185669  73.2841339
  44.2238503  38.9855957  72.3924942  45.3576622  38.9925613  73.3952026
  83.2332687  64.0897675  81.8192368  82.5450287  64.7101898  82.0593033
  84.0441437  64.5940704  81.8856354  10.3081942  70.0543594  73.2537460
  11.0357838  69.7688293  72.7011871   9.5941877  69.4542542  73.0385742
  77.3706970  23.6337299  20.1889305  77.7707520  22.8256493  19.8676929
  76.4297333  23.4936848  20.0830727  21.6108170   1.4705454  69.2215347
  22.5312176   1.5088130  68.9614792  21.4711132   2.2715914  69.7265549
  11.3342066  31.7087593  68.7561188  10.4307022  31.4969120  68.5215225
  11.5573893  31.0795364  69.4420471  73.1536713  19.3822632   2.0986905
  73.5700073  20.2176857   2.3107431  72.8486099  19.0459728   2.9413536
  82.4802322  64.4389420  66.8314743  83.2017975  64.7042770  67.4017105
  82.8933487  64.2722168  65.9842606  76.4757233   1.0036851  46.7313080
  75.5817108   0.7103420  46.5554314  76.6048813   1.7457434  46.1406326
  51.8469963   3.7340086   8.0758286  51.9394112   3.5841987   9.0167046
  51.5022888   2.9087877   7.7346253  60.2624168  32.5818710  39.7324791
  59.8913193  33.0241699  38.9690094  61.0920868  32.2207413  39.4202843
  53.7759171  51.6796913  83.7535400  54.2373810  50.8497391  83.6333008
  53.7180977  52.0513000  82.8733139  17.1964073  64.8334656  36.0553093
  17.3335037  65.7589035  36.2577705  16.5347786  64.8350754  35.3635902
  17.6105747  29.1320915  69.7716293  18.0737801  28.4510860  70.2593842
  17.7477760  29.9289589  70.2838898  40.1173058  58.2612228  50.7166061
  40.8461113  58.6528320  51.1979752  40.3464050  57.3344193  50.6474609
  27.0557137  68.9752808  23.8825932  26.7280312  68.1722488  24.2875576
  26.2808208  69.5291672  23.7877808  13.2368822  55.9471550   5.5594373
  13.9454365  55.3065796   5.4974322  13.5628920  56.7116280   5.0845342
  16.0511932  19.5642986  75.1605453  15.8089523  18.6934624  75.4755020
  16.9863014  19.6366119  75.3517914  23.5549011  43.9421005  62.1244278
  22.6517906  43.6300087  62.1812057  24.0220528  43.4473610  62.7976532
  27.7598515  39.8409996  72.7726517  28.5435886  39.4583855  73.1671066
  27.8202896  40.7742653  72.9766083  63.7532578  51.9928856  44.4559746
  63.7585258  51.3709335  43.7283936  64.3513794  52.6878967  44.1812973
  26.8277779  23.8548241  75.3440704  26.6570587  24.7901344  75.4549026
  27.5084648  23.8135471  74.6723633  13.8391056  17.3596420  84.7845688
  13.9683256  18.1015759  84.1937485  14.4917707  17.4854660  85.4733582
  68.8023834  44.3746834  10.8732204  68.2592468  43.8765945  10.2623682
  68.5566635  45.2874832  10.7227154  42.4915504  34.6080055  46.8118172
  43.2858429  35.0154037  47.1572990  42.0938263  35.2849808  46.2643242
  42.1050262  28.1465378  52.8884506  41.4955444  28.6678562  52.3659630
  42.3904800  28.7382259  53.5846214  70.2049789  28.4266396  17.2009811
  69.9200516  28.8275776  16.3798275  71.1609955  28.4420643  17.1559753
  33.4450417  28.0600166   1.4146475  32.5270462  27.8888206   1.2043967
  33.5604706  27.7001743   2.2940917   3.4326656  10.5999537  25.8586769
   4.3244853  10.5424719  26.2015839   3.5235157  11.0769386  25.0337734
  56.1821899   9.4905233  85.9527054  55.5730438   9.5585384  85.2174835
  56.1246605   8.5754347  86.2275391  82.4065323  18.1452255   8.4279995
  81.9353638  18.9045849   8.0850658  81.7263336  17.4883499   8.5765638
  22.5052757   7.8784122  78.5403824  22.3979645   7.1861329  77.8881073
  21.6190643   8.0438299  78.8620987   8.0522776  55.7781219  82.7382126
   8.5148525  54.9405251  82.7645187   8.0470858  56.0198784  81.8120575
  26.7995834  14.5384560   9.3357210  26.2425518  13.9365702   8.8420801
  26.8093510  14.1818314  10.2239523  49.8278313  44.2434158  53.7779274
  50.1813507  43.9977951  54.6328697  50.5969429  44.3170090  53.2128792
  81.4916534  15.1172724  77.7769852  82.3803406  15.1001778  77.4217758
  81.0991516  14.2963390  77.4799347  79.3220825  41.8063660  14.6938915
  80.2016373  42.1678581  14.5846291  79.4465866  41.0373154  15.2500305
  56.5523758  44.7891769  48.5471115  57.4670525  44.6499290  48.7924728
  56.1582375  43.9178238  48.5875244  55.3386307  43.2981873  11.8250170
  54.8350525  44.1056900  11.9278917  55.0025902  42.7177086  12.5079212
  54.2297440  35.6231995  38.0770073  54.4091492  35.9287949  37.1878166
  53.6934395  36.3149719  38.4643822  84.0685120  60.1346283  16.3057289
  83.9774933  60.9468880  16.8039074  83.1853943  59.7659607  16.2852821
   3.0573223   7.6557713   4.3061843   2.4776363   8.3774500   4.0625114
   2.7618275   7.3952999   5.1785769  73.5769424  62.0621376  68.0138397
  73.5504074  62.3260117  68.9335632  73.1472702  61.2069473  67.9975357
  72.6243439   0.1162094  60.6355362  72.3595047  -0.2120652  59.7762756
  73.3933640   0.6579291  60.4583626  21.7915173   7.0293746  45.7791252
  22.1789646   6.9295430  46.6486931  21.2739830   6.2338142  45.6547356
  55.8172493   2.7640820  18.7971802  55.3368607   2.6043248  17.9848156
  56.7155113   2.9356334  18.5144730   2.8710113  43.1087303  22.1652641
   2.9722450  42.5272903  21.4116650   2.3920825  43.8634529  21.8228436
  49.8792458  44.7950935  73.6394348  49.5988045  44.0397873  74.1562500
  50.3221855  45.3645897  74.2684937  74.6064682  31.8600273  65.0623093
  73.9583588  31.4912758  65.6624908  74.9791183  31.0998440  64.6156769
  30.5181160   4.2915807  45.7503929  31.2157135   4.7126064  46.2527161
  29.7127285   4.6945972  46.0746765  59.3296585  16.9787178   3.8372209
  59.4932365  17.5734272   3.1052406  58.4508934  17.2075367   4.1399536
  42.3563194  16.5563183  88.3398056  42.9285202  17.1259155  88.8539810
  41.9493370  15.9792967  88.9860611  43.2928238  28.4616241  58.9619179
  43.2239189  28.2317848  58.0352821  44.1566086  28.1432152  59.2240753
  52.5380287  37.4449272  15.6177216  51.6784706  37.4199638  15.1972866
  52.4028358  37.9672203  16.4083958  14.4161758  47.7835159  71.8796539
  14.6530762  48.7095833  71.8295746  15.1183519  47.3310547  71.4122620
  49.0515327  59.6359711  66.2153320  48.1524086  59.3444824  66.3664703
  49.5360413  59.3243446  66.9797745   6.0415802  40.1746597  58.2572060
   5.8767433  39.8159752  59.1292191   5.8162789  39.4624023  57.6587372
  50.0479927  60.9843864  17.5398884  49.7641716  61.8186798  17.1662159
  49.3847122  60.3560753  17.2543869  67.6090775  60.8240356  18.9721107
  67.5799026  60.1258202  18.3179893  68.2858429  60.5459251  19.5892677
   1.0207119  41.4763145  23.7863197   1.4293386  42.0058365  23.1015835
   1.3733451  41.8281784  24.6036777  50.7167320  22.1603718  10.2701559
  51.4316254  21.5238590  10.2669935  50.2621994  22.0059357  11.0982752
  31.8430920  64.7097855  53.3358383  31.4169750  65.5592880  53.2218094
  32.1485748  64.7149048  54.2429695   1.2052549  67.8438644   7.8539596
   1.7281340  67.4398804   8.5465097   0.5083784  68.3067474   8.3190784
  42.1505661  49.4018250   0.0059550  42.8963280  48.8782425   0.2990985
  41.3834114  48.9205246   0.3158805  57.7851677  49.0364571  77.5712662
  58.0071907  49.7364235  76.9572754  58.4364624  49.1138840  78.2684402
  65.1657257  11.7787876  32.8469658  65.5858078  11.7786350  33.7070580
  65.8064499  12.1910706  32.2675438  28.6563244  64.9947739  51.7312775
  27.8086910  64.8968964  51.2974930  29.2951736  64.9599457  51.0193138
  47.3729935  18.0011520  20.8824215  47.1383171  18.3900490  20.0398560
  47.7601433  18.7218590  21.3793411  25.4027557   9.1643772  74.5832672
  25.5288925   9.2364130  75.5293808  25.7198963   9.9977522  74.2352142
  81.9859314  61.8810616  73.7475128  81.6978531  62.7057915  73.3562775
  82.2598648  61.3455467  73.0029221  60.0717697  54.5349846  63.4762878
  60.0979156  54.4726715  64.4310989  60.2309456  55.4607353  63.2922363
  83.9786530  62.8953285  56.4151039  83.5823288  62.4406509  55.6718483
  84.5188522  63.5783272  56.0176964  84.7273865  39.2842102   6.9402943
  85.0495071  38.9315681   7.7698193  85.5193024  39.5116272   6.4530764
   3.7062469  22.7097492   9.8720064   3.2198031  22.0727749   9.3486834
   4.3964491  22.1969948  10.2926426  74.6705475  15.8929520  27.1896210
  75.4496384  15.3371830  27.2090473  74.2141800  15.6942997  28.0072384
   7.4661531  43.9702034  86.4658203   7.2113318  44.6629601  85.8564072
   6.6373339  43.5871010  86.7530823   1.0959932  10.0966940  87.3515930
   1.1491038   9.8063965  88.2621613   0.2432178   9.7837687  87.0497894
  48.7629585  42.9380493  75.3935623  49.2748375  42.7493515  76.1800766
  48.0104675  43.4369507  75.7115097  68.0763016  51.0385895  51.7579460
  68.6664658  51.7715530  51.5827255  67.2312927  51.4497185  51.9400558
  84.7117996  57.6133499   2.9389188  84.7648392  58.3559875   3.5405064
  85.6213226  57.4309044   2.7028666  28.4822788  56.6768341  37.4318390
  29.3753796  56.6623802  37.0877533  27.9280357  56.7612648  36.6560059
  27.9905586  48.2542610  35.8002548  27.2491360  47.7354431  36.1122704
  28.4897537  47.6514015  35.2492599  13.2550879  39.1941566  81.7930984
  13.8165770  38.5087814  82.1553421  13.0423784  38.8883705  80.9113541
  27.6029377  69.7935257  72.4822693  28.2202511  69.1646118  72.8559341
  26.8382626  69.2678909  72.2473145  19.0384636  66.1114349   7.2154684
  19.0266685  66.2686996   8.1595879  18.9604015  66.9825745   6.8265586
  33.7069206  57.4526672   1.8896737  34.3476067  57.8680573   2.4669154
  33.7975922  57.9171333   1.0576383  12.9854641  42.2173958  62.1757736
  12.9031858  42.0683365  61.2338371  12.5978947  43.0812645  62.3163147
  30.5190811  38.7596436  76.9198837  30.7032852  38.8376617  75.9838181
  31.0051231  39.4803963  77.3205261  12.0994482  39.1244736  21.5430241
  11.6047935  38.3545990  21.8238144  12.5550051  38.8405190  20.7505169
  67.6620941  38.8308754  83.8760147  67.2674484  39.7027283  83.8569183
  67.4453430  38.4511566  83.0245056  36.2897797  46.6724510  61.8951302
  36.0191154  47.5736656  61.7196693  36.4878120  46.3094635  61.0318527
  70.9679337   3.3845387  31.9053574  70.2647629   3.3228867  31.2588463
  71.3379898   4.2575202  31.7742310  23.7814255   5.6481066  85.6295853
  23.2672234   6.4445162  85.4970703  23.1290512   4.9642825  85.7813263
  48.7639122  14.7362318   9.1854858  49.0399361  13.8404093   9.3792524
  48.2551003  14.6607695   8.3782406  13.3556185  24.3527031   3.6551931
  12.9293041  24.6390648   4.4629579  13.0658646  23.4478092   3.5392442
  52.4546623  23.0275822  75.3985367  51.6738815  23.3525429  75.8468857
  52.2530746  22.1134377  75.1987000  86.8438492  52.5038719  53.7708015
  86.8982162  52.2286644  52.8556290  86.3452530  51.8089943  54.2006569
  61.3572083  22.0629406  18.2247696  60.6080246  22.5725670  17.9161625
  61.5680008  21.4808693  17.4947071  50.0638847  12.6751328  69.3640213
  50.4018097  12.8337336  68.4826126  50.5159874  13.3159962  69.9127731
  33.1385994  32.9494247  22.8609028  33.3804207  32.0902519  23.2067013
  33.9747581  33.3838921  22.6926575  33.5408783  52.7491608  78.1629486
  34.1520958  53.3769989  78.5482635  32.9669762  52.4984512  78.8868332
  66.6415024  51.1216011  84.3467255  66.4828033  52.0618324  84.4304428
  67.5809784  51.0514145  84.1773529  80.5659180   0.1901169   3.3975425
  81.4354858   0.5890979   3.4275365  80.3631668  -0.0112902   4.3110852
  61.7664337  46.4183769  47.2707977  62.5063705  47.0250092  47.2438240
  61.4985809  46.3265114  46.3564453  25.1929359  55.1636963  29.8433514
  25.7312107  54.5800095  29.3087463  24.2919388  54.9204826  29.6305523
  10.0091486  53.1849289  72.8786621   9.1101389  52.8790474  72.7584457
   9.9399700  54.1396141  72.8739471   7.8461499  70.1216125   9.1503878
   7.6000018  71.0099030   8.8923502   8.7062931  70.2204437   9.5585775
  81.0276794  64.3898087  53.8163795  80.8014679  65.3062057  53.6573944
  81.1775208  64.3404160  54.7604866  84.4542847  26.6811924  27.1197529
  83.6275635  26.3598404  26.7598896  84.2676697  26.8381443  28.0453739
  67.3448639  40.6863480  69.6067581  68.1533432  41.1554489  69.4005203
  67.4560165  40.4053726  70.5150146  17.9318008  21.6204357  29.9022350
  17.2658730  21.4903126  30.5773926  17.6769218  22.4346046  29.4681873
  10.9121447  41.4852142   7.3405557  11.6553516  41.7367058   6.7922621
  11.2836466  40.8847733   7.9868441   2.8377972   9.8156748  57.1334190
   1.8985406   9.8029346  56.9493904   3.2247293   9.2792416  56.4414978
  49.9096642  28.2861233  21.2145081  49.2301369  27.9185314  21.7796211
  50.6099243  28.5397091  21.8158054  20.9954071  23.0103264  18.8065796
  20.3826847  22.5816650  19.4041176  21.8548355  22.8712902  19.2044296
  10.4734020  26.5391998  87.2137299  10.0251684  26.4533234  86.3723373
  10.7858372  27.4438705  87.2274246  11.2758322  36.4223022  33.6020660
  11.4737434  35.4941864  33.7272034  10.7095079  36.4445534  32.8306961
  32.5750275  44.9805374  45.5580826  31.7844868  44.4410591  45.5426216
  33.1319122  44.5704880  46.2198792   4.7439237  53.1887817  41.3569641
   4.8297129  53.7415428  40.5802231   4.1516776  52.4868584  41.0871887
  49.4431763  63.5951271  38.4279366  48.5707169  63.5049667  38.8112373
  49.8946304  62.7856369  38.6669922  32.8732414  47.9493027  14.4350004
  31.9707756  47.6397781  14.3576803  33.3412437  47.2226944  14.8463974
  67.2521820  58.9183998  45.8797722  66.3002472  58.9064827  45.7801704
  67.4110336  59.5415726  46.5887489  66.8714066  36.1590652  32.9060974
  65.9468765  36.1442223  32.6585960  67.3331146  36.3714676  32.0949593
  74.6761780  70.4990082   3.1370206  74.2491760  71.2528076   2.7299817
  73.9585190  69.9008560   3.3453848  32.2207222  67.7014236  77.7609787
  32.1486816  68.4063568  78.4044952  31.5866928  67.9314423  77.0817642
  16.2130280  37.1108437  34.6478653  15.4150238  36.7739258  34.2405472
  16.2716522  38.0173225  34.3460579   0.5200949  69.8587265  75.7996597
  -0.1576162  69.2586594  76.1108932   0.3252145  70.6876450  76.2368622
  76.0401306   5.3630071  59.8039360  76.0857010   4.8719735  58.9835434
  76.2183304   4.7121801  60.4828300  72.0441666  47.3402252  19.0518436
  72.1144943  47.7104721  19.9317341  72.2005692  48.0815430  18.4668522
  19.5148354  13.8919640  74.5656509  19.3702755  12.9934607  74.2689590
  20.3988037  13.8836823  74.9327469   6.4165730  46.0806389  85.0357513
   6.5355186  46.8925018  84.5428391   5.6318507  45.6837120  84.6577377
  22.6953831  17.0337448  81.8986664  22.5106773  16.1700058  81.5297928
  22.4005966  16.9741249  82.8073959  44.2473373  47.3565674   0.6771013
  44.8396187  47.9126930   1.1832209  44.7172394  47.1869316  -0.1393818
   3.2576015   1.7549593   5.8525028   2.8653996   0.9471502   6.1839452
   3.4394202   1.5722592   4.9306598   2.8737619  51.6988106   1.1618979
   2.7945666  50.7592697   0.9968979   2.0933444  51.9193077   1.6703873
  42.9871063  27.2876987  74.5134659  43.0270500  27.1311131  73.5699997
  42.1466904  27.7256298  74.6482010   2.7397442  36.0902863  38.4727287
   1.8701886  36.4055672  38.7191086   3.3403256  36.5814438  39.0333519
  35.9355545  65.7533646  14.4751949  35.9735756  66.7097092  14.4610958
  35.9574432  65.4991684  13.5526247   6.5266862  38.0527573   6.9438672
   7.2503867  38.6637192   7.0824947   6.0295968  38.4309120   6.2185163
  54.8939934  41.4113159  69.5195694  55.0890923  40.8083916  70.2369614
  54.5429077  40.8527565  68.8260345  18.9244862   4.4276128  70.0098724
  18.6794128   3.6020429  69.5920105  19.7811966   4.6388011  69.6388168
  36.6697617  51.7778091   2.4976525  37.3376312  51.3024673   2.0034523
  36.2760353  51.1159286   3.0660930  63.5757790  54.9739151  40.0017128
  63.8786125  55.7833710  39.5902481  62.6208763  55.0299225  39.9662819
  30.4771423   0.5372780  31.8513412  29.7259731   0.9801717  31.4565983
  30.3025246   0.5620071  32.7921562  51.9764786  24.6045074   9.3808537
  51.9339561  23.6793480   9.6227274  52.8754120  24.8638611   9.5830517
  44.8736610  29.1517067  63.0416679  44.1765442  28.6231441  62.6532249
  44.4687729  30.0049496  63.1974716   5.0113506  41.1221275  38.5338516
   4.4445901  40.5269165  39.0245056   5.5950789  41.4957275  39.1940918
  72.7153931  14.7891264  69.4584503  73.1269913  15.5523367  69.8638382
  72.6025620  14.1675997  70.1776199  23.4652367  37.6835632  80.6259918
  22.5498104  37.9084244  80.7923279  23.4274616  37.0191612  79.9379730
   7.6526709   1.0845746  68.9849243   7.2372980   1.4288454  69.7756042
   7.5368814   1.7759304  68.3331146  49.6955147  16.6741714  58.2301636
  50.4678001  17.2070255  58.0407600  49.0168953  17.3090343  58.4596252
  33.1319923   2.6970532  42.4665871  33.5004234   2.0523643  41.8625488
  33.6857643   2.6395991  43.2452202  72.6351318  31.1448154  71.9414825
  73.4334793  30.7840767  72.3271484  71.9391403  30.5595837  72.2403564
  60.6799622  11.7585936  36.5489693  59.8555489  11.5862436  36.0941353
  61.3490143  11.3632631  35.9901199  62.4416428  10.0986300  35.0239449
  62.7051697   9.9125042  34.1227570  63.1392784   9.7218056  35.5601730
  68.2182083  60.8304977  88.2981415  68.7833252  60.0736771  88.1428833
  68.5735321  61.5150375  87.7312317   9.7359037  60.1003952  69.5140610
   9.3160982  59.5986023  68.8153534   9.5764742  59.5874557  70.3063431
  83.1284714  43.4378662  35.2812157  83.1399689  43.2157326  36.2122154
  83.5577393  42.6972275  34.8529472  52.4533272  60.4741402  80.3044281
  51.6425476  60.6585579  79.8302383  52.7526855  59.6367264  79.9503708
  52.2922897  15.8486881  49.6651649  52.8017731  15.5419006  48.9151382
  52.9420547  15.9935770  50.3529472  34.1309700  31.5242844  43.8402939
  34.1326408  32.4799156  43.8950729  34.7764587  31.3220730  43.1630325
   1.8253969  12.9221468  35.1553917   2.1607308  12.5201159  35.9567375
   0.9157804  12.6287880  35.1027603   6.3821154  66.9466782  58.3600731
   7.1931205  66.4440231  58.4364738   6.1713367  67.1993179  59.2589493
   6.9400368  40.9453545   3.4819417   7.3464088  41.7092438   3.0725951
   6.9869537  40.2619858   2.8133328  54.2878304  64.5003357  58.6062813
  54.4489098  64.3859558  57.6696892  53.3357124  64.5665207  58.6792336
   1.3638502   6.3300099  21.2754192   0.5632468   6.1041007  20.8018875
   1.6855861   5.4945693  21.6141758  72.0347977  22.7713013  17.1767826
  72.1755600  22.3985596  16.3064480  71.4579315  22.1455803  17.6148815
  24.5518970  70.2690582  23.7661724  23.9394474  69.8088531  24.3400593
  23.9962387  70.6838150  23.1062851  33.8080063  69.8005905  71.4414902
  34.5045509  69.6113586  70.8128052  34.2366028  69.7509918  72.2959366
   3.0707514  34.1884727  41.6274719   3.5952122  33.6131325  41.0705566
   2.7514687  33.6186256  42.3271599  60.9816704  67.2501678  46.3589897
  60.2093086  67.0477753  45.8310432  61.0543709  66.5156708  46.9684639
  74.6328583  58.0542564  28.7822514  74.9117813  58.7137413  29.4174786
  73.7998352  57.7296066  29.1241646  35.2393341  60.0293312  73.5781555
  35.9294205  59.3908653  73.3982239  35.4519844  60.3738136  74.4455261
  15.1100636  42.1458054  52.7494049  15.5236101  42.4065857  51.9264793
  15.7933016  41.6684189  53.2200661  62.3492470  31.8803921  38.2622795
  63.2173462  31.9838200  38.6520653  62.5193558  31.7536182  37.3288841
  82.9398956  17.1733379  34.3055878  83.2339249  16.3188152  34.6211281
  83.4333572  17.8047352  34.8290977  17.0634899  45.1640358  19.0747375
  17.1472168  44.6441612  19.8740826  16.1538353  45.0411949  18.8033142
  69.6091461  22.3851166  34.0294647  69.5802917  22.3297329  34.9846230
  68.9177094  23.0076962  33.8046494   3.7452595  57.9431496  17.2830963
   3.9079978  58.2047462  18.1893597   3.2852082  57.1067696  17.3541603
  23.1625900  56.9848747  31.5535469  23.2609386  56.0332565  31.5848198
  23.0352879  57.1821404  30.6255856  23.3757591  15.0489330   6.5007558
  24.0442944  14.9335108   5.8254991  22.5913944  15.3112326   6.0188808
  25.9421520  31.4290695  86.6279449  25.6215973  31.8358116  87.4329529
  26.3750095  30.6271038  86.9207230   7.1808567  59.3750076  88.8517380
   7.1516252  59.5898666  87.9194183   7.2744813  60.2209892  89.2896652
  68.7898102  63.8626633  37.3606911  69.3591385  64.5639191  37.6774483
  67.9329376  64.2771149  37.2595024  55.0396957   4.8121939  42.2325706
  54.8891487   4.6086197  41.3094673  55.2384682   3.9667344  42.6349640
  50.0231819  50.6221809  23.9134521  50.9177132  50.2886772  23.8440342
  49.7903976  50.8713913  23.0190601  46.7845917  34.4857254  14.9167356
  47.2594261  35.2800560  14.6721897  47.3672371  33.7703362  14.6618395
  25.3947639  68.8323059  55.5673523  25.5224152  69.7472000  55.3165245
  25.8581219  68.7454605  56.4004097  10.3182316  22.5018005  62.7949181
  10.2300491  21.7254982  62.2419205   9.6785631  23.1206779  62.4427185
  49.5840225  41.4681549  47.1711693  49.4542542  41.1019859  48.0459900
  48.8328590  42.0467224  47.0398445  27.2584801  42.5873108  16.0167828
  26.8220882  42.0732117  16.6961174  27.3746948  41.9748154  15.2904396
  64.7362442  64.5557861  89.1102982  64.2958221  64.1548004  89.8596115
  64.3994064  64.0794296  88.3514404  79.8028793  29.1797390  22.0814304
  79.3376007  30.0037670  22.2253723  79.3976212  28.8096867  21.2971725
  60.0543938  23.7462425  83.1157227  60.1041565  24.5858631  83.5726700
  59.8277130  23.1149750  83.7986221  34.8592339  39.6481895  40.6485558
  35.4205818  39.3030281  41.3428040  35.4117546  39.6389389  39.8669739
  77.7168961   9.4162626  51.0583992  77.3834534  10.3113804  51.1201286
  77.0377121   8.8790092  51.4661980  31.1096153  48.6050797  28.0575466
  30.7624569  49.2204552  28.7033234  31.8159409  49.0849113  27.6250000
  28.9431839  21.3841705  76.9334641  29.3106556  22.2632313  77.0253830
  28.1697273  21.3877296  77.4973602  75.0875778   2.3767679  84.1049347
  75.2754669   2.9797435  83.3856659  75.4292526   1.5339440  83.8063736
   3.7490652  34.2079506  57.6391869   4.5741582  33.9938545  57.2037354
   3.0742075  33.9742012  57.0018806  56.3656044  33.5348129   0.4804848
  57.1315308  33.0308838   0.7555180  56.6881294  34.0944138  -0.2259517
  79.5731812  59.9667091  30.2856770  79.3307343  60.6984482  30.8531361
  78.8543930  59.3417358  30.3804646  39.7277451  35.9700775  17.2807713
  40.3749199  35.6764297  17.9219952  39.9512520  36.8863411  17.1172543
  32.9250755  59.5017014  32.2835770  32.9745445  59.6383324  31.3374691
  33.5308228  58.7802658  32.4533844  44.8855896  52.5792236  71.8770294
  44.4724159  52.8114662  71.0454102  45.1128540  53.4197998  72.2745361
  46.8306503  23.3530216  12.3823519  46.6503029  23.4450417  13.3178940
  46.8969383  24.2524452  12.0616074  39.5983734  64.7661972  24.5834827
  39.8162231  64.4074402  23.7232113  38.8390121  64.2584305  24.8694401
  18.7332783  50.0877380   2.9363303  19.0467319  50.9906464   2.8840353
  19.5193825  49.5711937   3.1136863  68.5843201  22.6227856  36.6101227
  68.6491089  21.6723976  36.5163345  69.2633362  22.8475304  37.2462540
  45.4409561  54.0625114   7.8628592  46.1964378  53.6185837   7.4776187
  44.9154854  54.3368912   7.1113091  42.5433617  20.9503822   3.0092707
  43.1541023  21.2716618   2.3459396  41.9016876  20.4389629   2.5163872
  54.3894005   9.1723890  75.8614273  53.9517174   8.8282671  75.0828094
  54.8572502   9.9473648  75.5503693  54.0107727  14.2392159  47.7071190
  54.3134766  14.6066504  46.8767014  54.7956467  13.8579235  48.1005898
  36.2679291  54.1785431  21.2625008  36.5921822  54.3268929  22.1508045
  35.3277283  54.0357742  21.3714561   4.2414484  25.1518536  24.9980812
   4.5882897  25.3940544  24.1394367   3.8095601  25.9453373  25.3144474
  26.9725571  61.6480675  10.7185507  26.5625210  60.8801537  11.1165590
  27.8489132  61.3514519  10.4730883   8.5866861  52.9758720  52.6106873
   8.8862171  53.3687859  51.7908516   9.3854733  52.8542976  53.1239014
   0.7242847  40.6262474  56.8527794   0.6400550  41.4297104  57.3661880
   1.6113275  40.6625748  56.4949150  47.7304115  61.9087067  62.7979698
  48.4887199  61.7086487  63.3467636  47.5566216  61.0955009  62.3239098
  11.9819288  53.1907387  44.1487389  11.0950546  52.8419228  44.2382469
  12.4138794  52.9608536  44.9714165  65.6961365  18.0984879  59.7899628
  64.9697418  17.7685852  59.2610435  66.4308777  18.1550541  59.1790733
  26.1843319  43.7037582  67.3346481  26.9331093  43.4509315  66.7946014
  26.4415245  43.4682045  68.2260513  21.3462811  34.5731468   9.1163797
  20.4485168  34.3404999   8.8794689  21.4427891  34.2676506  10.0183725
  27.7852058  35.3530769  17.1385975  27.4801922  35.9800491  17.7944183
  26.9839134  34.9632874  16.7889919  35.3087006  59.9377708  42.1063995
  35.4236870  60.3334618  42.9703674  36.1936264  59.6939774  41.8349190
   3.3768270  47.2191772  12.1787958   3.0112205  46.3430099  12.3008585
   4.3119287  47.1151695  12.3548613  63.4085350  13.7102137  76.7084427
  62.6470108  13.1494513  76.5606079  63.8803215  13.2889509  77.4269028
  20.2798672  52.8000488  31.7811756  20.0195541  53.2650528  32.5763130
  21.2350349  52.7600212  31.8289623  62.8891945  70.9392014   8.7378197
  62.2699089  70.4306717   9.2613802  62.3683357  71.6602173   8.3841677
  61.1891556  58.6642570  17.4447670  61.4476776  59.5729485  17.5986423
  61.9964371  58.2285767  17.1714268  15.2455273  33.6655312  21.9075890
  16.0490856  33.1845284  21.7096939  15.1071205  33.5255432  22.8443279
  65.7789536  23.6554661  36.0389633  66.6020660  23.3971004  36.4536514
  65.5874481  22.9467812  35.4246979  44.6650314  29.0801735  85.0476074
  44.9310074  29.9928379  84.9356613  45.2749939  28.7309189  85.6973801
   9.7798767  35.4411125  70.0147324   9.2473583  35.8664017  69.3425827
  10.0599775  34.6184883  69.6134033   2.6655307  68.1395950  65.3982925
   2.3452356  67.7081223  66.1904297   2.6445377  67.4563675  64.7282333
   4.4814587  26.1008396  22.3366356   4.6675453  26.3527336  21.4321175
   5.2468028  26.3962307  22.8298130  31.5343819  42.0588303  31.0193901
  31.1687832  42.5916214  30.3132019  32.4823380  42.1428909  30.9166965
  27.7904167  42.6518250  73.4525757  28.0674763  42.9956207  74.3018494
  28.6004868  42.5788383  72.9479065  77.4385529   1.6332220  75.5930710
  77.2236938   0.7706248  75.2381134  78.2832718   1.5103734  76.0261765
  32.9156609  46.4787445  55.8461189  33.8259010  46.5989761  55.5754890
  32.5564995  47.3653908  55.8791580  11.6493826  70.1501617  55.8374672
  11.3211336  69.6817856  56.6049995  11.0184803  69.9491119  55.1462593
  79.5376053  54.0725517  59.5845947  79.2543869  53.4587326  58.9069176
  80.4606094  54.2350616  59.3899574  67.6280899  17.9507656  77.1320114
  68.2238464  17.7185764  77.8443222  67.9072037  17.4031601  76.3982162
  82.5388870  29.9172726  74.1810074  81.9805527  30.6396675  73.8935242
  82.7671204  30.1358814  75.0845337  45.9978371  30.8313217  16.4953842
  46.5095596  31.0323715  15.7118311  45.2208252  30.3805122  16.1648540
  86.6820068  29.1846313   5.7226310  85.7356262  29.0851917   5.8261518
  86.9018784  29.9501915   6.2534847  56.0029831  70.3152542  22.7822971
  56.7598877  70.5395050  23.3236256  55.9686394  71.0060806  22.1206264
  11.6587868  28.9031868  87.2969589  12.5464096  28.6947384  87.5883484
  11.7834120  29.4769001  86.5409470   5.1459537  53.5449524   2.1921287
   5.7035809  52.8515511   2.5449424   4.3288808  53.1020050   1.9631724
  66.4375000  53.2529831  63.2075844  66.4380722  52.7524643  62.3916740
  66.4662399  52.5886612  63.8961220  55.6957321  67.5721817  26.2765369
  55.4915276  67.1682281  27.1199570  55.4050713  68.4794922  26.3688927
   0.9048454  59.3473396  81.2389221   1.1488523  59.1107559  82.1337509
   1.6414502  59.0519600  80.7037582  68.9332352  38.9514046  20.9282513
  69.1240158  39.3417091  20.0753174  68.4397430  38.1572533  20.7232571
  13.0992241  21.4368458  75.1824493  12.5715494  21.7215405  75.9285965
  12.6670132  20.6406937  74.8733063  79.6661453  13.4458208  88.1476135
  80.1580124  12.6577826  88.3784637  79.6183853  13.9456615  88.9625473
  69.6604919  21.7849522  18.7553101  69.5450974  22.6504402  19.1475449
  70.0109482  21.2455444  19.4641495   2.9596713  31.7627277   7.4557910
   3.0427983  31.7495747   8.4092836   2.0174010  31.8224030   7.2983203
  57.2400436  69.4658051  29.5413914  56.9348068  70.1405334  28.9349155
  58.1933479  69.4809647  29.4564838  49.3467598  23.8114967  57.4260330
  48.4757652  23.5596066  57.1191826  49.1821251  24.3379593  58.2083130
  83.7516174  24.3687630  12.2358751  83.5119019  23.5909996  12.7397118
  84.6996155  24.4425755  12.3458261  68.2621002  33.0885391  78.6449509
  68.4525604  33.0112190  79.5798187  69.1137619  32.9939575  78.2183838
  47.2166901  22.2378368   0.4138305  47.0678635  23.1769257   0.5242549
  48.0737534  22.0828419   0.8108807  25.8248272  56.5845070  14.6454954
  26.2250443  55.7926598  15.0047102  25.3797588  56.2888145  13.8513212
  73.8372498  49.5940323  13.7595987  73.3397217  48.8046074  13.9729195
  74.7243271  49.2786674  13.5867481  41.9678726  59.8680954  77.9418869
  41.5592690  59.1896057  78.4794083  42.6983070  60.1863670  78.4723511
  83.3039627  28.0093613  29.4220676  82.5189972  27.4873066  29.5879574
  83.5379333  28.3686581  30.2778702  25.8355904  43.1856728  23.4676037
  26.2993851  44.0228958  23.4539814  26.5288143  42.5270958  23.4234695
  16.4446983  26.2021427  85.5743332  17.0962543  26.1370087  86.2725220
  16.7249546  25.5578060  84.9243164  51.3597336  70.7073593  75.1371078
  50.5248413  70.9582672  74.7418365  51.5515518  71.4101181  75.7580490
  21.0922451  36.1702003  29.8695412  21.5586071  37.0044479  29.8168907
  20.1910458  36.3839302  29.6278954   6.2036796  47.2921066  16.3261223
   5.5538125  46.6300850  16.0902672   5.7722688  48.1268806  16.1437206
  82.1248398  26.2714615  20.3014145  83.0389099  26.1745625  20.5684738
  81.6210861  26.0062523  21.0709171  68.4654083  53.4614792  48.5944519
  67.9513245  54.1174545  48.1236534  67.9577637  52.6542778  48.5110207
  54.9890060  48.4561844   9.3273211  55.8082809  48.8526535   9.6236916
  54.8122025  47.7656898   9.9662170   0.5114941  64.1744461  71.7919159
   1.0846359  64.0712204  72.5515747   1.1090989  64.3278732  71.0600967
  10.9523354  68.9565582   9.4076033  10.9572287  69.8861313   9.1793308
  11.2323818  68.5119781   8.6075077  45.7618370   6.6644249  71.8391495
  45.8291092   7.6092920  71.9767456  44.8970718   6.5403209  71.4479752
   2.4926622   9.9138966  52.8245087   2.1566389  10.2168989  53.6680183
   1.8072631   9.3373556  52.4867783  14.1972961   9.9995918  15.3538475
  13.6851978  10.5898209  14.8010206  13.8609219   9.1272259  15.1487570
  70.3185654  61.2418022  67.6010742  69.9989700  62.1337700  67.4651108
  69.5697556  60.7725525  67.9689407  76.7768478  14.3390923  55.4629860
  76.4122391  13.6799860  56.0536385  77.3179932  13.8396034  54.8515091
  48.5739937   8.4379606  31.4165134  48.2286530   8.9414921  30.6793404
  47.8267441   7.9280262  31.7292652  63.9253006  49.8788071  32.4230919
  64.8170395  49.5605469  32.5636292  63.4438324  49.1124802  32.1113777
  40.1925697  31.8295326  27.9834805  39.9705963  31.2966232  27.2199574
  40.8213882  32.4711533  27.6531086  15.0998516  47.5491219  51.9811668
  14.3422327  46.9646759  52.0070915  15.7017498  47.1900635  52.6331100
  83.3082275  45.8022308  22.9768429  83.7526703  45.5911674  22.1557732
  83.7490692  46.5913162  23.2918530  53.2248840  26.7017651  73.1172180
  53.8212509  27.4397449  72.9908676  53.4027252  26.3999043  74.0079956
  12.5229988   5.0747366  84.5650864  13.2145338   5.7078547  84.3722839
  11.7895651   5.3455577  84.0128555   0.0396588  68.3190079  52.9257851
  -0.0023275  69.1254959  52.4119377   0.0614287  67.6196747  52.2725639
  66.6496124   0.7064775  13.4303064  66.6201706   0.5115050  14.3669767
  66.7107239  -0.1508477  13.0090094  79.6730881  24.2983475   8.2595015
  79.9286041  25.0601025   8.7797642  79.2798920  24.6689167   7.4693694
  34.2486725  41.9290314  17.9952221  33.8844757  41.0519714  17.8753948
  35.1642876  41.8466492  17.7285900  74.8396912  40.2063942  13.4655399
  74.6561813  41.0877266  13.7908287  73.9787750  39.8445511  13.2554569
  38.6013985  63.8370323  14.3587952  39.0087624  63.9343224  15.2195053
  37.7384033  64.2397003  14.4553623  44.1440392  30.2159653   1.6648279
  44.7890396  29.5089512   1.6832409  43.5852661  30.0502453   2.4241307
  24.9763908  23.1032600  79.1810379  25.8363171  23.4958324  79.3315277
  24.3613663  23.8308029  79.2740784  70.0670395  63.4861412  58.2874680
  70.7298737  63.4026680  58.9729729  69.2326736  63.4448166  58.7547569
  24.0800724  50.5248795  10.7243681  24.6284199  50.4979782   9.9402618
  23.1980991  50.6959839  10.3940945  77.3840332  59.7182350   3.7019544
  77.9611130  60.0747986   3.0266221  77.3180695  58.7864304   3.4930916
  66.3772812   3.7290990  74.4816437  67.0960999   3.8552878  75.1010056
  65.8394547   4.5153337  74.5754929  82.2748718  28.2963161  18.4704361
  81.4004211  28.0927067  18.1386070  82.4911499  27.5603561  19.0429935
  19.6966839  62.6323395  88.6765060  19.5583954  62.8387489  87.7521133
  18.8433743  62.7785416  89.0848160   2.3781087  21.7497978  20.5966320
   1.8497012  22.4570656  20.2267799   2.0205731  21.6176796  21.4746666
  49.0206947  10.3614941   5.1969919  49.5562325  10.8766346   5.8003645
  49.0334320   9.4764442   5.5613489  40.7060890  14.9167805   5.6432800
  40.8655815  15.1424751   6.5597172  41.3794136  14.2689495   5.4354773
  47.5137749   5.4698901   1.7683935  46.8462563   6.0466251   2.1399179
  48.2453613   5.5229607   2.3833690  77.7112198  27.4251823  79.5033875
  78.5526199  27.6490288  79.1056824  77.5348129  28.1435032  80.1109467
  11.2105389  24.0737572  71.0824280  10.6546440  23.4165497  70.6637497
  11.7528629  23.5747452  71.6932526  30.2297096  45.8084145   4.5073071
  30.1021519  45.4693375   3.6213107  30.5301476  45.0526352   5.0120525
   1.1845841   0.2055264  38.3648643   1.9580448   0.7603131  38.4658699
   1.2908610  -0.1991417  37.5039482  28.1139832  43.2303085  12.8126783
  28.3616352  42.3629951  12.4922638  28.8439503  43.4965591  13.3716860
  78.8928680  45.9202385  44.2568512  79.4927750  46.5491524  44.6578560
  79.1525345  45.8952332  43.3358841  73.0164871  51.4399872   8.0174847
  72.3232574  51.9786339   7.6360083  73.3786621  50.9552231   7.2758222
  47.0148392  48.7092361  61.5330772  47.2230835  49.2475243  62.2966919
  46.8229027  49.3408623  60.8399391  81.3208389  15.1664200  30.8817577
  81.2585144  14.2160082  30.7865486  82.2395096  15.3654995  30.7010880
  44.4346962  49.9274826  63.5782967  44.2595978  49.1886063  64.1610794
  44.0971451  49.6468544  62.7276878  18.5285397  35.0231018   6.1257157
  17.9430408  34.3229561   5.8372359  18.4826565  35.6765099   5.4277301
  76.4464493  13.4896736  45.8195000  76.5047302  13.0027838  44.9974442
  76.9213333  12.9501133  46.4516258  82.9068298  56.0460129  24.4850712
  82.5489578  55.3627548  23.9182205  82.2866058  56.7709274  24.4073029
  79.4231033  27.5335979  65.5524979  78.9454422  27.1999359  66.3119354
  79.9906845  28.2174530  65.9080582  19.5414219   1.9572821  86.7745895
  18.9641037   1.3193529  86.3550873  19.4688072   1.7672948  87.7099304
  14.9742069  66.3921890  30.8899059  15.5116529  66.8430099  30.2386417
  15.0948496  65.4622650  30.6977711   2.6679688  13.1421871   6.3115520
   3.5769539  12.9054604   6.1273274   2.1925626  12.3121138   6.2769437
  33.7831116  55.1917953  65.2540817  33.3553658  54.3672066  65.0231857
  33.6429443  55.2785110  66.1969833  24.1705818  13.7745771  16.0733929
  23.8957844  12.9094925  15.7695065  24.9735355  13.9561005  15.5849819
  27.7508087  28.5599136  69.6389542  27.9100647  28.5351582  70.5824814
  27.9574413  27.6751022  69.3378754  78.3703461  60.7744751  34.5102539
  77.8330231  60.0435867  34.8157387  77.8761673  61.5555153  34.7592430
  56.6845055  56.5763435  16.5030136  56.6665039  57.5288048  16.5964355
  57.2796516  56.2793694  17.1913719  29.5661297  63.4546509  19.5506554
  29.8999996  64.2391663  19.1155701  29.7991657  62.7367630  18.9619617
  54.7423439  40.6987419   4.4724684  54.4867859  40.3783340   3.6074464
  53.9929314  40.4982109   5.0331812  21.8964653  12.7057838   2.0796528
  22.7656479  12.9966087   1.8036567  21.6672230  12.0138388   1.4592553
   3.8857141  24.3272743  13.9286661   2.9730260  24.2718697  13.6455364
   4.1372304  23.4207058  14.1050282  86.0501633   5.5294046  31.8393364
  85.8966904   6.4204803  32.1534386  85.6848297   5.5210514  30.9546375
  20.1859856  42.4522247  44.5960350  20.6611271  43.0720596  45.1494598
  19.2893047  42.7866402  44.5770721  84.5581894  67.8800278  61.4772148
  83.7696609  67.8434601  62.0186195  84.4045410  67.2354736  60.7864418
  81.7226257   1.1273258  27.4548359  82.0727615   0.2730917  27.7076530
  81.0463028   1.3114154  28.1067028  35.7714081  65.7292099  23.5490456
  36.2924652  65.3554840  24.2597198  36.1793900  66.5770645  23.3731880
  11.2363358  58.8730354   2.0011241  11.3504677  58.3015976   2.7605083
  11.2792397  58.2829056   1.2487009  17.8560944  30.8248730  71.6550903
  18.1679287  31.6664295  71.9879150  17.1701450  30.5636444  72.2694702
  82.9999695   2.2986524   1.4542017  83.3914871   3.1421797   1.2274612
  83.5140762   1.6566349   0.9645675  81.1851120  68.5512619  75.2228088
  81.8721313  69.2065125  75.3448105  80.6088486  68.9292603  74.5585327
  15.0897408  66.0654068  26.5131683  14.4446535  65.7306519  27.1360912
  14.6884775  65.9270248  25.6552238  45.6026382   0.6476820  14.3032780
  46.2882195   0.1070252  13.9109783  45.0980797   0.0397633  14.8437281
  40.8049622  51.3586578  87.3512802  41.1887054  50.7022438  87.9327393
  40.2740746  50.8526802  86.7361603  65.2644882  65.0963135  61.7522278
  64.9820328  65.1759644  62.6633301  64.6295624  64.4996185  61.3559265
  66.6298981  26.4811954  44.5523605  65.8384399  26.9276581  44.2515221
  66.4504852  26.2664433  45.4677429  73.7769470  70.1727142  54.6706886
  73.7436371  70.3055038  53.7233276  74.6263046  69.7591095  54.8248482
  30.3381271  44.4849358  64.3101196  30.4986877  45.2982521  63.8316154
  30.4693432  43.7946892  63.6600647  42.5062904   7.0462885   3.3698556
  42.0634003   7.7924366   2.9656990  42.0090714   6.8773818   4.1701522
  74.8781052  49.0297623  69.7008820  75.2272415  49.6275024  69.0397873
  73.9435120  48.9723740  69.5022049  21.1991653  62.7950821   4.6755247
  21.7277317  62.4346581   3.9635260  21.0459957  62.0524750   5.2597361
  49.0320168  25.2760429  13.9839811  49.9249725  25.3526974  13.6478510
  49.1408768  25.1509724  14.9267111  45.1904259  21.1983147  86.4296417
  44.4251556  20.8662148  86.8990021  45.1505470  20.7711811  85.5739517
  51.5186958  64.2545624  16.0005379  51.0205116  64.0010223  15.2235155
  52.3236351  63.7392921  15.9476423  77.0987549  65.5445786  54.2815514
  77.3540039  64.7195892  54.6944313  77.6175461  66.2095413  54.7342300
  84.3958206  14.3842945   5.5687370  84.5504303  15.0286112   6.2595220
  83.6136780  13.9113598   5.8530293  52.7450523  18.7429562  68.7472153
  52.8297577  17.8082047  68.9350967  53.3483658  18.8967628  68.0201797
  17.1704407  48.1360970  50.2338600  16.5268726  47.7491798  50.8274460
  18.0088367  48.0198822  50.6808662  29.2113495  19.9195862  84.6661530
  29.7327843  20.2018280  85.4176025  29.3933105  18.9832230  84.5864944
  10.3093271  46.9124680  44.8761978   9.6451092  47.5727386  44.6784935
   9.9271669  46.3924904  45.5831680  74.3633270  67.3241882  66.8070068
  73.8013382  66.7556076  66.2805862  73.7951965  67.6372528  67.5108948
  61.8896255  31.0580101  14.1579285  61.3041267  31.5168171  14.7603559
  61.3059464  30.6674652  13.5075254  61.2577019  38.1061249  25.8685055
  61.7942886  37.4535027  26.3183861  60.3769569  37.7312737  25.8656158
  74.0731506  65.5372391  21.2025013  74.9656601  65.3713226  20.8989639
  74.0686646  66.4651718  21.4373684  30.6684837  34.3988571  76.3072815
  30.1024132  34.3415642  75.5375366  30.2061176  33.9018440  76.9821396
  79.9209061  56.3244133  80.6004791  80.3250198  55.4934769  80.3505554
  80.0852432  56.3974686  81.5406342  72.1546860   1.8806541  64.2660065
  71.7725220   1.7148761  63.4042053  71.7529907   1.2251486  64.8362579
  74.3814163  38.8574944  45.5765953  75.1723557  38.3862495  45.3147316
  73.7408066  38.6461563  44.8974876   0.4180729  32.1275978  89.0914230
   0.5478892  33.0699654  88.9850006   1.2829440  31.7477131  88.9367752
  64.7053833  42.1537437   1.9042913  64.7255554  42.1147118   2.8604825
  63.8437881  41.8097076   1.6686579  62.3235397  50.6813126   1.4946058
  62.1558990  51.0226479   2.3730247  62.8682213  49.9074173   1.6382797
  42.9106293  44.5107498  36.8907280  42.3478813  45.1450882  37.3347588
  42.3104095  43.8303490  36.5857315  83.8145447  21.4120522  43.6313057
  84.0074081  22.2691441  44.0113411  83.2192764  21.0006714  44.2579269
  71.6359329  21.6677475  88.5261993  71.0696487  21.1052074  89.0544968
  72.5244370  21.4287434  88.7901382  52.1759300  24.0914822  81.8973770
  52.5242653  24.9682541  82.0591278  52.7687531  23.5072632  82.3701172
  58.7727928  42.0556641  25.0014591  57.9546585  42.2725410  24.5544109
  58.5932159  42.2267876  25.9259567  45.2556458  43.2550011  88.8884888
  45.4766655  43.5582047  89.7690811  44.3405876  43.5097275  88.7701035
  36.1058311  39.1658859  38.3506126  36.9803047  39.5548401  38.3663025
  36.1380157  38.5330315  37.6331940  55.4517441  55.6150513  41.7713280
  56.0624046  54.9472389  42.0833397  54.6430817  55.4445267  42.2542534
  63.6413841  27.2845287  15.6696110  62.7995987  27.7092018  15.5044336
  64.1671066  27.9558983  16.1044788  64.7314301  57.2182655  39.1002731
  65.5393600  57.3694305  38.6097412  64.0517502  57.6471710  38.5803566
  11.3130550  19.6346226  55.5184898  11.2242746  20.5874195  55.4955177
  11.5339804  19.4365273  56.4285355  25.1062069   6.7580323   2.9923568
  25.8196545   7.0466862   3.5614831  24.5865650   7.5474391   2.8405650
  53.3769073   6.2362556  71.4493713  53.4925117   5.9209085  70.5530319
  52.4919815   5.9603043  71.6880951  79.4302216  50.1070404  64.8044739
  78.8558502  50.5396004  64.1726303  80.3052292  50.1830215  64.4239197
  65.4453125  34.1492577  25.1709137  66.2522964  34.4629822  24.7627621
  65.7403793  33.5404816  25.8480835  43.4369926  66.0001907  57.6858215
  44.0336075  65.3294830  58.0181389  43.9385262  66.4518204  57.0070534
   6.7972932  61.0747490  11.4736605   6.9426374  61.9907951  11.7102308
   6.3555565  61.1136360  10.6253748  10.2960663  48.6503906  52.4820061
   9.5994377  49.2659035  52.7102356  10.2565641  48.5870590  51.5277214
  44.7769661   4.4743781  28.7710323  45.5818214   4.6832943  28.2969036
  44.1287193   4.3166432  28.0846443  74.5398788   3.5773494  70.3281097
  73.7834778   3.9072053  70.8131714  74.3814240   3.8485854  69.4239273
  70.1663513  15.6053123  16.6767845  69.3304291  15.3222532  17.0473919
  69.9723892  16.4464417  16.2631264  78.4263000  25.3283291  18.3442574
  78.0991898  24.6933270  18.9814415  77.9750671  25.1049404  17.5301819
  30.2045155  48.4301529  22.8508205  30.4850235  47.7948227  23.5095329
  30.3946190  49.2821274  23.2435513  42.0252228  61.3718147   8.5072212
  41.3648949  60.9959526   7.9250455  42.8482971  60.9728928   8.2250118
   9.1691084  53.5025902  60.2258911   8.2493744  53.2745857  60.0904808
   9.1697311  54.0319786  61.0233727  42.2152405  22.5698757  61.0416145
  42.9014053  23.1049042  60.6426773  42.6510468  21.7465420  61.2616730
  63.9741402  52.5684624  38.9553680  63.2676582  52.0536079  39.3452873
  63.9953346  53.3748817  39.4706039  72.1209335  43.8506355  58.9878654
  71.5122375  44.1784859  59.6498566  71.7215805  44.0954399  58.1531067
  21.5619354  63.8417358   1.4656191  21.2561989  63.1432266   0.8869646
  22.5155830  63.8178596   1.3867722  73.9514160  70.1403122  63.5396957
  74.5566635  69.7911377  62.8854942  73.1046066  70.1639786  63.0940628
  67.3597031  37.0285301  81.8370590  66.9935532  36.1473732  81.7613831
  68.0236130  37.0719337  81.1488876  45.5306206  45.8413048  17.9722843
  45.3408928  46.5744705  17.3868771  45.9079170  46.2487640  18.7519341
  14.2289495  19.8824139  12.9995012  13.6416559  19.1740417  13.2631826
  13.9930363  20.6139812  13.5699282  38.7885513   5.2630482  86.7780914
  39.4624100   5.6989360  87.2997742  38.1193695   5.9338975  86.6424866
  54.5100517   8.0966072  15.7552748  53.5547256   8.1143732  15.8124723
  54.6919212   7.9697852  14.8241081  44.4679985  17.2767258  21.1361027
  44.9295540  16.8997707  20.3870335  44.9197502  16.9191208  21.9004784
  81.0701981  47.3271751   7.9126935  80.7138824  46.6381073   8.4734640
  80.3710785  47.5107040   7.2851682  18.6789455  50.2716522  52.4775963
  18.7310276  49.3642731  52.7779007  18.5327950  50.7799644  53.2753983
  15.8633251  64.5763245  33.6207771  16.2284718  65.4243927  33.3684349
  15.5949078  64.1755524  32.7939949   4.0695019   5.1457548  66.0601120
   4.1888704   4.2625527  65.7109222   4.6686611   5.6888146  65.5479355
  24.5407715  23.2319088  43.1672020  25.3098087  23.5657997  42.7053261
  23.9062843  23.0483208  42.4744186  71.7544403  59.8104706   8.0984526
  71.1054153  59.2633781   8.5408087  71.3717651  59.9889145   7.2394128
  82.7747192  17.5846634  74.8955765  81.9647903  18.0621872  75.0750885
  83.0261612  17.8621922  74.0146713  32.1778603  38.8138771  40.7788277
  33.1084480  38.9100189  40.5763435  31.7372227  39.4013977  40.1649132
  56.8768692  32.0378761  46.1078758  57.1893768  31.7690048  46.9717484
  57.6644707  32.3284607  45.6480141  48.3311157  16.4569302   1.5266958
  49.0422707  16.5792656   2.1556013  48.0409279  15.5554247   1.6656598
  72.0445786   6.2744393  67.5936356  72.6963730   6.8646617  67.9718246
  71.9447632   6.5750241  66.6903534  26.6538696  25.1469383  79.5628052
  27.6095562  25.1879997  79.5280380  26.3626709  25.8618050  78.9967651
   7.2062964   5.8685327  19.6460781   7.9070001   6.0911779  19.0331554
   6.4839392   6.4484429  19.4049644  55.0277405  20.1287823  27.4247055
  55.9051247  20.0709743  27.8029709  55.1720123  20.4423332  26.5319004
  53.1101112  14.6994448  65.9319687  53.3146973  15.5053797  65.4577866
  53.8634644  14.1305723  65.7736206  54.5521355  16.0994473  42.7766800
  53.9975281  16.8241749  43.0654907  54.1629372  15.8147850  41.9498024
  47.8747025  21.2063808  87.2832336  47.1538582  21.2197914  86.6536026
  47.5003433  21.5741043  88.0837708   5.9769745  47.9063072  36.0441437
   6.1675096  46.9683037  36.0350761   6.7876043  48.3182716  35.7451553
  75.3529358  20.0279713  20.3056278  75.5041885  19.1122608  20.5397873
  74.8116150  19.9873199  19.5172405  21.7319622  70.2619095  67.9620743
  21.8961964  71.0205994  67.4020309  21.0792961  70.5664215  68.5925674
  75.1414490  32.0781937  86.2243423  74.7010269  31.2555294  86.0110931
  75.4355011  32.4184837  85.3793716  83.6152496  33.6083679  51.9753990
  84.1656952  33.1740685  52.6270294  84.2139587  34.1874809  51.5037994
  55.7794685  39.2835655  41.8513260  55.7955475  38.4460487  41.3881416
  54.8987236  39.3350487  42.2226295  86.1499481  68.8625870  24.9707813
  85.7171097  69.2524185  25.7303276  86.0429153  67.9191666  25.0921535
  46.1149330   6.9091644  53.8465843  45.3631325   6.4796538  53.4384766
  45.8043365   7.7908144  54.0526314  61.2299690  60.3605614  74.1009140
  61.5458145  60.4492188  73.2016830  61.5028191  61.1706963  74.5315781
  61.8227768  18.2568817  11.3414288  62.0735283  18.6665287  12.1694050
  62.2353363  18.8008080  10.6704817  34.4118652  28.8038807  64.8196640
  33.5024834  28.9060574  65.1004105  34.4656868  29.2937775  63.9990921
  74.0056610  58.4719353  41.2022018  73.1328735  58.0796204  41.1782417
  74.4008713  58.2281990  40.3651657  14.7603197  36.3570404  15.6314430
  13.8376722  36.5826035  15.7500830  14.7804794  35.8499947  14.8198233
  52.4910583  31.5309086  45.5334396  52.5864525  31.1804771  44.6478157
  51.6437149  31.9760704  45.5248947  56.8925323   5.0452838  27.1306400
  55.9443512   4.9370403  27.0567036  57.0098152   5.9594784  27.3889503
  48.8645515  51.6346321  26.5402451  49.3533058  51.3609238  27.3164101
  49.1350479  51.0202637  25.8578835  81.9259567   4.5189033  15.3469343
  82.1009827   4.1209302  16.1997051  81.1292267   4.0863652  15.0397530
  80.8969879  24.4529362  63.6989784  80.0908890  24.6673584  64.1685028
  80.8032837  24.8875885  62.8513184   4.3421578  60.6591797  21.4619102
   3.7982757  61.4463539  21.4339790   5.1700888  60.9534492  21.8416061
  38.4155045  67.9654999  54.2552414  37.5153847  68.2732544  54.1489143
  38.3701210  67.0261765  54.0768166   4.1476021  64.0983124  60.9342422
   3.2674632  64.1150970  61.3101463   4.4734883  64.9911728  61.0474968
  64.9029922  57.0772896  67.2854309  64.5939941  57.1243248  68.1901627
  65.2174225  56.1786804  67.1861343  12.4054022  16.4111710  82.5023422
  13.1625404  16.3195381  83.0807724  12.5466433  15.7574530  81.8175507
  63.7318115   0.5049995  22.5268478  63.4898796  -0.2969586  22.9900570
  63.1628609   0.5179695  21.7572002   1.3376737  44.1773567  43.5086288
   2.1200466  44.7281303  43.4808350   1.0499117  44.2159004  44.4207344
  22.9519081   9.8843241  69.4802551  23.5735836  10.5154085  69.1176453
  22.4162292  10.3966999  70.0858536  10.2543507  39.1684074  56.9942741
  10.5109921  38.2680168  57.1934204  10.1017733  39.5688553  57.8501892
  82.8239899  63.9715385  28.0061512  83.6944427  63.9492836  27.6085911
  82.4124069  63.1535187  27.7274590  66.7838440  60.8821259   5.5120072
  67.0621338  61.7198486   5.8821554  65.8448868  60.8403091   5.6932015
   5.9070539  20.7350750  81.2870865   6.0072885  21.6626663  81.0731812
   4.9765129  20.5570049  81.1506424  71.0446091  24.1342049  51.1242599
  71.4631577  23.3145447  50.8611946  70.4457397  24.3386059  50.4060631
  74.1100388  65.7883224  29.1075573  73.3949509  66.4229813  29.1532764
  74.8575363  66.2411880  29.4979229   6.0727458  63.0939865  36.2745018
   5.5528760  63.6926765  35.7382736   6.4554796  62.4811020  35.6467133
  35.1473885  64.8922806  39.5052338  36.0712509  65.1234131  39.6016464
  34.6818810  65.7238998  39.5943794  14.1617517  58.6136360  48.7824898
  14.5297346  58.1768036  49.5506058  14.7073574  58.3171730  48.0540314
  54.2561760  12.5082884   1.5827428  53.7335777  11.9759483   2.1825213
  54.3210373  13.3606167   2.0135100  83.6082382  42.6993027   0.2595637
  83.0698242  43.4907188   0.2629693  83.8376236  42.5617218   1.1786299
  66.1329193  47.9383583  33.7951813  66.6578979  48.5406189  33.2680054
  66.3952103  47.0676003  33.4964828  55.8142319   1.8491840  47.8804626
  55.8802948   0.9400849  48.1727066  55.1485100   2.2358420  48.4492760
  19.4778099  35.4328499  70.5358658  19.4003048  34.6792145  71.1208954
  19.3998909  35.0625458  69.6566391  35.7851410  45.0383110   3.8284264
  35.0031242  44.6832390   3.4058075  36.3534813  44.2789497   3.9572320
   5.7379332  62.1860085  17.7794285   6.4440355  61.9873428  18.3943958
   6.0747528  62.9120789  17.2544498   8.8318863   2.6458397  82.0242004
   8.6930790   3.0758879  82.8680115   7.9824104   2.2606988  81.8090515
  31.7840862  50.1216087   2.0368814  32.3089714  50.4664955   1.3145369
  30.9412956  50.5679588   1.9549736  25.1401501  47.2085190  79.0720520
  24.9562664  47.6469307  78.2412643  24.2827053  46.9220428  79.3866196
  10.8942280  38.7943420  50.0943184  10.2196264  39.4327583  50.3257675
  11.6918154  39.3141251  49.9947586  48.7091751  65.9108963  64.5766525
  48.6114388  66.8607407  64.5097198  49.3493652  65.7847595  65.2769928
  42.3876953  41.0022087  41.7177391  43.1286125  41.2593765  41.1689796
  42.7379570  41.0024681  42.6085510  62.7847824  47.5130997  73.5856705
  62.7161636  46.5770416  73.7735825  63.4402199  47.5704041  72.8904343
  58.4822044  70.8665848  43.2014809  58.4229736  70.1765289  43.8622055
  58.5960579  70.3975601  42.3748665   9.3746653   6.6726317  17.6563549
   9.1425819   7.5359716  17.9984264   9.7973280   6.8533659  16.8167572
  13.1845646  60.4397507   6.0519266  13.2327585  61.3928299   6.1263981
  14.0960855  60.1501122   6.0902815  40.5078278  33.5602379  87.3230591
  41.0206375  33.9519653  88.0300293  39.6409035  33.4215775  87.7044296
  20.5812855  63.3378334  15.6172104  21.3623142  62.7854424  15.5841513
  20.8836479  64.1978531  15.3253584   1.8742051  68.5326691  24.1066074
   1.1322615  68.8344574  24.6306973   1.9925157  67.6181412  24.3632755
   5.6805134  47.7754555  87.1574326   5.8961506  47.0210838  86.6091080
   4.7895613  47.6032753  87.4620438  66.0673218  53.1293869  30.9911232
  66.1593933  52.5055504  30.2709961  66.8885956  53.0567703  31.4773998
  35.3516083  58.7323456  86.6890488  35.8508263  57.9973946  86.3328857
  35.4686661  59.4341202  86.0487061   0.1281778  19.7721481  36.6250267
   0.4348348  19.8050842  37.5311775   0.7128225  19.1467457  36.1968994
  36.5038071  43.8749886  21.1879940  35.5476265  43.8710938  21.2320137
  36.7356491  44.7992744  21.0975876  30.1155510  55.3155899  70.6867447
  30.5438747  55.6841393  69.9141235  29.6518688  56.0552902  71.0792694
   7.5920796  23.8589077  28.0821457   6.7418456  24.2958965  28.0334091
   7.4400735  23.1015606  28.6474342  11.1930943  52.1606178  54.2936592
  11.7784452  51.6223526  53.7608643  11.7120619  52.9346886  54.5121002
  66.7740936  57.7985916  20.1156693  67.1578751  58.2367439  20.8752518
  66.2013931  57.1288986  20.4895039  55.3952408  51.1923294  31.2954597
  56.0667343  50.8811264  31.9024830  55.4698563  52.1461830  31.3242550
  27.4199982  59.4942703  32.6553383  28.3083878  59.8489685  32.6209526
  26.9157772  60.0535049  32.0643654  77.3067322  50.4284668  88.9731903
  77.5467987  50.0048599  89.7973022  76.5907898  49.8944092  88.6290359
  15.8329802  14.3325834  31.9496975  15.5458460  15.0295763  32.5396004
  16.0623341  13.6068544  32.5301666  63.8023071  56.4309044   7.9961061
  63.7509727  57.1692085   8.6031475  63.1951790  55.7834740   8.3545256
  22.0961323  16.7298431  84.8778458  21.1698704  16.9328880  85.0083923
  22.1434917  15.7759295  84.9413757  45.9617004  63.6048470  83.5797501
  46.1982765  63.6708755  82.6546021  46.3942413  64.3528824  83.9915619
  32.9786415  55.7709160  76.5841675  32.2030258  56.3183250  76.4617081
  33.5443077  56.2829094  77.1622009  83.7124939  71.7740402  32.2966347
  84.3435974  71.7661896  31.5769997  83.4907303  70.8525925  32.4307823
  31.4497757  25.8511276  67.3059998  30.7624302  25.6175232  66.6821289
  31.3402805  26.7923107  67.4416962  59.0275383  67.4139175  30.8542156
  59.2923317  68.1891861  31.3492737  59.3220863  67.5884018  29.9603310
  66.6633224  42.1153412  86.8238525  67.1730270  42.8318977  86.4457169
  66.0121155  42.5494308  87.3749619  80.0540771  16.2514362  74.5050201
  80.4859009  16.2227173  75.3587952  79.5356903  15.4474468  74.4716415
  36.5823593  29.7250423   5.5798211  36.7358360  29.3269272   4.7229786
  35.7601700  30.2043610   5.4774079  12.2869282   0.3564738  88.9129257
  11.5040121  -0.1900650  88.9805298  12.4058008   0.4893451  87.9724808
  34.9414902  55.4889717  84.4300385  35.6445885  54.8394775  84.4365234
  35.3066139  56.2324257  83.9502563  58.8576012  25.8503590   3.0198336
  58.4013824  25.6039238   3.8244233  59.2548447  25.0361710   2.7107623
  44.8342476  66.4503250   4.5111918  44.5893669  66.1517639   3.6353362
  44.0564842  66.9042206   4.8356781   1.9402112  18.5336227  19.8085613
   2.1294913  17.9241714  20.5219860   2.0369904  19.4007225  20.2022629
   4.9771376   0.2190810  22.2551231   4.5456457   0.4847224  23.0672073
   4.3409266   0.4204666  21.5688934  20.0999870   8.2040033  79.4010620
  19.5825939   8.8400230  78.9070892  19.6749649   7.3638554  79.2286148
  62.1070366  15.3463297  10.9537010  61.9437828  16.2464752  11.2353373
  61.2360191  14.9556694  10.8833809  14.1289244  61.8189316  17.8608036
  13.9358521  62.7501183  17.7519379  14.4753036  61.5452538  17.0114784
  31.1416435  62.1772575  38.8267365  31.4475632  61.6734581  38.0725288
  30.2057133  61.9838638  38.8802643  27.6969147  36.4645233  83.6102982
  27.3858147  37.3003731  83.9578705  26.9264507  35.8967590  83.6264496
  10.1443462   2.4692774  59.4311295  10.7394619   1.7394259  59.2597046
   9.3599415   2.2632103  58.9227219  29.3852425  59.4631844  39.2363281
  29.9037743  59.5199928  40.0389061  29.5660591  58.5870476  38.8958626
  83.1619797  60.0808258  75.2032623  82.7020035  60.8230476  74.8111343
  83.8315430  60.4802666  75.7585678  58.1824684  40.5554199  32.1065903
  58.2450066  40.2599297  33.0148888  57.4545326  41.1769829  32.1065102
  78.9003983  44.3829346  57.8478203  79.3877106  45.0721703  57.3964767
  78.4736633  43.8921165  57.1455193   6.3803573  32.6298141  60.9598503
   6.7133303  32.0389061  61.6352654   6.8135586  32.3430023  60.1559219
  63.5796852  55.4724922  81.5367508  62.7450180  55.7407532  81.1525650
  63.9843864  54.9197044  80.8682632  63.2090797   7.6903653   3.6804149
  63.1326294   8.5571098   4.0793400  62.3478928   7.5268784   3.2958894
  77.7887802  61.3047256  61.5034637  77.7223358  60.6011314  62.1490440
  77.5058212  62.0888863  61.9738426  48.4270439  18.1717415  85.4347916
  48.2834129  19.0342731  85.0453720  48.3594742  18.3205032  86.3779449
  45.9896851  59.3742828  84.6413193  45.3432121  58.9829254  85.2288055
  45.4681129  59.8048325  83.9639511  30.7373714  40.9821968  39.4556618
  30.3345280  40.6759109  38.6431770  30.4059410  41.8733559  39.5662155
  43.9185181  33.7868156   4.0190549  44.0401764  33.3407364   3.1809373
  43.4745445  33.1429062   4.5708675  39.3663406  41.5356827  43.9287987
  40.0880966  41.5048523  44.5567703  39.1326218  40.6183014  43.7873039
  23.6893597  -0.3632918  64.5675354  23.0276299   0.0053386  65.1527328
  23.9980030   0.3834617  64.0543823  63.4215431  35.2215538  77.6760178
  63.8119392  35.6236992  76.9000626  63.7073593  35.7755585  78.4023895
  16.7253933  50.8653641  41.9201698  17.4976482  51.1490211  41.4308929
  16.9351940  51.0610962  42.8333549  40.1750031  49.0960121  45.8316078
  39.8486938  48.2957993  45.4200172  39.5067902  49.7538681  45.6393852
  46.9556885  10.3428154  75.1432800  46.1335030  10.7556400  75.4075012
  47.1851006  10.7719421  74.3189926  80.3117676  20.1339302   2.3705804
  80.5320969  20.5701885   1.5475599  80.6759872  19.2533894   2.2799013
  31.1514835  48.5430565  74.8293991  31.7631512  48.4836426  75.5632706
  30.5438290  47.8159332  74.9645996  85.6807785  41.2697449  12.3326912
  86.4670563  40.8337173  12.0042439  85.5221024  40.8664932  13.1861801
   4.7650337  60.1302490  30.0763340   5.3229704  59.6784821  29.4432087
   5.3568220  60.7275887  30.5337200   0.4163848  27.4486275  45.0714912
   0.1980696  28.0762634  44.3825493  -0.4227842  27.2445431  45.4842567
  77.1486053  62.1692657   8.4109125  77.7793732  62.5100632   9.0451183
  77.6705017  61.6211586   7.8248825  22.6493034  10.3552151  86.2132797
  23.1761646  11.1510448  86.1404495  22.1001053  10.3589830  85.4293137
  16.2043762  43.1044731  26.7687035  16.9428768  43.1789474  27.3731060
  16.0403118  44.0019913  26.4792595  50.9958954  24.8252697   6.4801173
  51.4942169  24.7988205   7.2969446  51.5608368  25.2996273   5.8701506
   6.8597522   1.1145550  32.4015160   7.3816261   1.8314042  32.7620811
   6.6850476   0.5450600  33.1507721  75.1524734   6.4959564  54.6191368
  75.6880035   5.7284741  54.8201714  74.2567673   6.1603136  54.5833969
   0.4347198  70.2662277   0.7092307   0.4513982  70.5547256   1.6217676
  -0.1424193  69.5025940   0.7099662  84.4616165  67.7457504  81.0819397
  83.9562607  68.0869217  81.8198090  83.8153610  67.2988205  80.5352707
   7.6772470  71.1917114  22.1615601   8.0737886  71.8288727  22.7557068
   6.7733865  71.4897385  22.0593414  17.9137001   3.3990195  63.9108620
  18.4769917   3.0667381  63.2119179  18.3172245   4.2273264  64.1702957
   8.6333981  49.3867073  74.8201065   8.5643396  50.0308342  75.5247726
   9.5742683  49.2431564  74.7181854  76.8311310   3.4275854  77.8932343
  76.9823456   2.9721522  77.0650101  76.9236298   4.3553824  77.6767426
  22.7140884  42.9326363  73.2716141  22.3677883  42.9560547  74.1636734
  22.6125336  43.8290405  72.9516525   6.3098354   8.6020336   9.5695171
   6.3938684   8.7720423  10.5077429   6.2396708   9.4708729   9.1740103
  77.4053268  62.3363533  16.8062382  77.6974487  63.0445862  16.2323914
  77.1301651  61.6415253  16.2081318  22.9993553  46.1891708  34.3481560
  22.6894474  46.8952980  34.9152298  22.5763836  46.3554001  33.5057259
  72.6780396  16.4555779  41.0009689  73.6308746  16.3772373  41.0479469
  72.5278015  17.2276077  40.4554138  53.0154190   5.4469867  84.7582245
  52.5294266   4.7292037  85.1642151  53.9112778   5.1180377  84.6843414
  52.7322311  20.6981621  45.0207481  53.2900810  21.0795593  45.6986656
  52.8120079  21.2982655  44.2793007  51.5655251  47.2817230  53.0848389
  51.8916016  48.1603813  52.8902435  50.8244629  47.4261284  53.6732330
  81.0686417  42.2559891  87.3998032  81.7068863  42.5163765  88.0639420
  81.5902176  42.1100731  86.6105652  84.0979691  15.9794664  53.6902733
  83.7545929  16.7803726  53.2942009  84.9016724  16.2556248  54.1307602
  47.9004555  60.3578835  48.6642532  48.4787140  60.9109001  49.1896324
  47.0765114  60.8433800  48.6237183  83.2951202  34.3598175  80.8644714
  82.6757660  34.9394836  81.3078918  82.9071732  34.2091866  80.0024719
  60.0202484  38.1256409  49.3587799  59.9620514  37.7136688  48.4967308
  60.7886963  38.6934738  49.3014832   2.5565369  32.1727715  39.0232010
   1.8183401  32.1299019  39.6310349   2.1773992  32.5035210  38.2088966
  47.4968643  63.2730751  66.2225189  47.6406975  64.2022247  66.4020462
  48.1948166  63.0362968  65.6117554  65.9747314  70.2528229   0.5428385
  65.0958328  69.9188538   0.3632975  65.8565369  70.8557739   1.2768117
  77.3203201  33.3051682   4.8541031  77.2890091  33.8529701   4.0697789
  77.4380569  32.4157410   4.5204983  33.1884995  49.6623878  86.0052795
  34.0410385  49.6436577  85.5704727  32.8281097  48.7870102  85.8636246
  27.8923950  45.2241325  31.1865673  28.6712856  44.7415428  30.9096737
  27.1588230  44.6928368  30.8770008  66.3930740  12.8450470  69.7686768
  65.7987137  13.1782284  70.4409485  66.1091156  11.9424696  69.6239243
  69.6062164  46.6330719  47.9654388  70.2051315  46.0654831  47.4802856
  69.5145645  47.4107857  47.4149895   5.6117964  56.0373917  83.9553528
   5.5963650  55.9533005  84.9087219   6.5422153  56.0456314  83.7306595
   4.7970080  12.0840893  78.2118683   4.0157208  12.3447666  77.7241516
   4.4835434  11.4261560  78.8324280  19.6914425  32.4243355  66.5844040
  20.4720364  32.2298927  67.1031494  19.3728218  31.5674610  66.3007126
  53.8734932  57.3353729  23.1932602  54.4208412  58.1205711  23.1829853
  53.7184525  57.1393814  22.2692585  86.6942902  44.0089912  78.7726974
  87.2402191  43.9454765  79.5563812  85.8940430  43.5351372  78.9992218
  75.8653259  10.1822290  80.7771378  76.7708054  10.4763403  80.6779327
  75.8036499   9.9004917  81.6898575  85.4718933  63.4661522  84.7920151
  84.5910187  63.8227997  84.9064255  85.3469315  62.6897469  84.2462921
  16.5421600  45.5586739  79.4718323  17.1009254  44.9834213  78.9492493
  15.8858557  44.9745827  79.8517532  20.4732170  50.6000175  14.1138315
  20.4548435  50.4796677  13.1644049  20.6110973  49.7199783  14.4641895
  55.5543900   9.6252422  62.3085861  55.0139809  10.4121094  62.3795090
  54.9612617   8.9575825  61.9641113   2.8301773  49.0146637  84.8565979
   3.2123697  49.8276787  85.1870117   2.2228062  48.7391586  85.5432053
  57.7676735  49.3296432  10.0362120  58.5867920  49.6702385   9.6766701
  57.4128571  50.0539665  10.5516644  39.4336433  24.7591000   8.3092327
  39.7197304  24.0005531   7.8003197  38.6666870  25.0870762   7.8397183
  80.7200470  24.2195377  81.3053055  80.5154877  24.5641117  82.1745911
  81.6091766  24.5270443  81.1289139  10.3774662  66.2686234  82.0752869
   9.6726208  66.6602783  82.5910645  10.4075022  66.7920074  81.2744141
  19.6049995  52.9030800  35.0523605  19.0140438  53.2666168  35.7117882
  20.4075947  52.7031975  35.5341454  68.6755676  16.3632622  47.1802788
  68.6597824  15.7548246  46.4415054  68.1164856  15.9532442  47.8402367
  18.2801876  47.9127274  53.7046356  17.6272602  47.7925262  54.3941803
  18.8109226  47.1167564  53.7359505  14.1950216  11.9486694  24.1637249
  15.0067387  11.5470371  24.4736271  13.5905380  11.8669939  24.9013977
  61.6185608   8.4579859  86.7395172  61.4487038   9.2486687  86.2274551
  62.4890594   8.5966797  87.1126480  67.0945663  33.4892845  64.0222321
  66.7723541  32.8966026  64.7013092  67.9894867  33.6972504  64.2907639
  57.1744690  59.4237747  17.3496075  57.6366959  59.0330086  18.0911465
  56.3256416  59.6845665  17.7069740  57.2450981  41.9426537  52.0979919
  56.4410591  41.4665184  51.8905106  57.8077850  41.8060951  51.3357811
  76.5757675  58.8088760  20.9354973  77.1102524  59.5670280  21.1716366
  76.5566330  58.8180351  19.9785328  69.5371399  65.8549881   8.4018955
  69.0674820  65.0581360   8.1555576  69.8364944  66.2232361   7.5706248
  37.8734360   4.1539121  78.2968979  37.0190163   4.0419602  77.8801727
  38.3522835   3.3539326  78.0801697  75.1403885  29.2601337  22.4233208
  74.2309418  28.9762554  22.3308678  75.6569138  28.5018616  22.1504440
   9.3630953  66.0068359  64.7808533   9.0952787  65.1002808  64.9314194
   9.4349546  66.3841171  65.6576233  14.5420084  27.6450443  82.8827057
  13.7350168  27.9693317  83.2825012  15.2383308  28.1432114  83.3107224
  26.6267757  30.2480373   8.8932838  26.7032661  30.7229691   8.0657454
  27.5267029  30.1736584   9.2108192  57.4339905  10.5169611  66.0867233
  56.9700356  10.2587328  66.8831482  57.1798210  11.4290886  65.9465408
  57.3447342  32.4781494  67.7570343  56.5580444  32.2292099  68.2421875
  57.1777344  32.1826172  66.8620453  68.1975784  64.4416962  31.8089085
  68.7806854  63.7432022  32.1061058  67.4551086  64.4067078  32.4120216
  42.6127853   5.4178047  48.5120468  42.1049614   4.7580090  48.0398026
  42.3567123   5.3070111  49.4276772  42.1338348  32.9503937  19.3613853
  42.9778099  32.5741272  19.6111012  41.7083931  33.1576195  20.1934242
  47.8025055  36.8482094  13.9427338  47.7034302  37.0281143  13.0078278
  48.7078934  37.0894737  14.1384363  80.4466934  41.4880142  55.1500282
  80.9901276  41.2283554  55.8940010  80.6815948  42.4019089  54.9892502
  64.5189590  37.0428581  55.9836998  64.8770447  36.3793449  56.5734100
  63.7837601  37.4206314  56.4664116   7.0465941  25.0396137  74.2250519
   6.2066298  25.2606869  73.8227844   7.7007046  25.3379688  73.5931015
  59.6651421  62.2771454   9.6992178  59.4330750  61.3667526   9.8824158
  59.1655731  62.7849731  10.3385735  30.9656506  29.2750549  15.3831654
  30.8420181  28.8208637  16.2166271  31.5577202  29.9981804  15.5899849
  81.2993393  30.1927814  38.2443886  81.1319122  30.7848930  38.9776039
  82.0577621  30.5710144  37.7994537  49.3673820  57.8126450  22.1665363
  48.5723152  58.1573486  21.7599888  49.8726578  58.5907593  22.4020538
  15.7213812   1.6726109   1.0944513  16.1356544   1.1441654   0.4122816
  16.1978455   1.4481850   1.8937299  54.8863983  66.1858521  28.4644508
  54.8499985  66.7249985  29.2545280  54.8651772  65.2852020  28.7878990
  24.9361668  52.9106712  61.3131905  24.7126865  52.5230293  60.4670067
  24.8550930  52.1886139  61.9363174  13.1006250  62.1394806   9.2912502
  13.1328182  62.7411461   8.5474777  13.1028442  61.2682419   8.8948097
  59.1709862  47.6845627  87.5962067  59.2362595  46.7978973  87.9508820
  59.8950882  48.1595535  88.0039902  61.3747978  32.3290520  21.5779114
  61.2777176  33.2757187  21.6810093  62.3210258  32.1864738  21.5543346
  81.3119431  12.6973495  48.4445190  81.3544846  11.9007502  47.9155083
  80.9641876  13.3616762  47.8495712  29.2525806  25.2108440  78.4353638
  28.9458218  25.2888279  77.5320053  29.8086891  25.9787960  78.5666046
  74.2514343  10.0719519  30.8787308  74.7541809  10.8628731  31.0734653
  73.7351685   9.9155636  31.6694546   1.7420183   9.6056261  74.6988144
   2.4170876  10.1297874  74.2677994   0.9162505   9.9926672  74.4080582
  55.0911217  12.6232729  65.0194397  54.6250267  12.3649931  64.2242813
  55.9050789  13.0153847  64.7032776  61.7271194  57.8302956  35.1486130
  60.8341789  57.6464996  35.4403496  61.7052689  58.7467842  34.8732834
  42.5690308  19.0850658  84.7981720  43.0677299  18.6040764  85.4586105
  43.2273026  19.5929184  84.3238297  24.3496819  56.6821251  40.2151833
  25.2576466  56.7555923  39.9211884  23.8446102  56.5770836  39.4088936
  68.6090775  17.0844402  50.8258209  69.3780899  16.5500546  51.0240135
  68.1620483  17.1819839  51.6665840  68.3680878  42.7975426   2.6832867
  68.5099106  41.8754616   2.8974988  68.6029205  42.8673286   1.7579674
  67.2125397  63.7763710  83.4470596  66.9399185  62.9669838  83.0148544
  67.8606415  63.4962044  84.0933685   7.5983582  23.4108143   7.9025764
   7.2099671  22.6746998   8.3753557   7.3797607  23.2482471   6.9849606
  26.9390087  29.1334324  87.8426666  27.8144493  29.5203381  87.8307953
  27.0912533  28.2011509  87.9972763  74.6894226  39.4442978   7.6336827
  74.7856369  39.9854317   6.8500047  74.0957794  38.7418747   7.3683209
   6.8336296  18.3022041  60.9782104   7.1686430  18.4042149  61.8690491
   7.5673652  17.9322643  60.4872856   8.4175730   9.3346205  65.5720215
   8.3033543   9.9557323  66.2913284   9.0439119   8.6928978  65.9068756
  63.7702370  10.1280165   4.5453863  64.3939362  10.6273842   4.0182581
  63.4988937  10.7348442   5.2341275   6.9112973  42.3137360   6.3186135
   5.9646025  42.3782845   6.4444475   7.0263762  41.5487823   5.7548456
  48.1300507  35.2661285   0.3650644  49.0231743  35.5250397   0.5920660
  48.2370834  34.4767303  -0.1656249  15.0164013   2.9667084  12.7462206
  14.0613174   2.9385285  12.6891909  15.2694044   2.0714667  12.9715281
  73.9689865  59.5596390  11.8611279  74.3879089  59.2088242  12.6470442
  74.6480637  59.5159416  11.1879387  68.2704391  22.1105785  47.2743607
  68.2712479  22.5403538  48.1296539  67.5187836  22.4879761  46.8173904
  39.7838364  70.6426620   5.4262877  39.1025276  69.9725113   5.4804797
  40.5968590  70.1493912   5.3171730  55.1523094   6.5056844  35.9427910
  54.3575859   6.4165292  36.4688148  55.7513771   7.0060635  36.4968414
  26.9683132  28.1442642  12.4259014  26.6121349  27.5108719  13.0489454
  27.8767738  28.2665157  12.7015581   6.6731105  61.8399200  22.1791229
   6.9431262  62.3975563  21.4494877   7.3742061  61.9332237  22.8240967
  59.6729774  37.1413002  46.9427643  58.9877090  36.5075150  46.7307434
  59.8040237  37.6326294  46.1318054  11.0930099  17.8799648  85.1831436
  11.3454714  18.6382179  85.7099686  11.9186306  17.4340096  84.9941788
  23.1261177  60.4854774  28.9965191  23.4886780  61.2692986  28.5837135
  22.3234749  60.7879906  29.4213486  69.2448654  14.7604036  29.3588200
  69.5118713  13.8421307  29.3174381  69.8373337  15.1534615  29.9996948
  50.8052063  71.6660309  24.5099411  51.5017090  71.5844040  25.1614418
  50.2067680  70.9455719  24.7075577  83.6262360  29.3019466  64.4788513
  82.8393631  29.3212948  63.9341660  84.3406372  29.5046921  63.8749084
  85.7490234  -0.0530652  10.6628494  85.1311417   0.3066956  10.0264330
  85.6467743   0.5018573  11.4360495  10.3692284  28.5015984   2.3770795
  10.4814262  29.0345669   1.5899404  10.7981176  29.0041180   3.0697258
  48.9452477  32.4204750   7.3947988  49.0514030  33.3423805   7.6294436
  49.8348999  32.1140709   7.2191105  75.2298431  26.9464035  35.1209373
  75.9208755  27.3524876  35.6441994  75.2774506  27.3912296  34.2747116
  46.6016579  53.5814590  19.3790531  45.8535461  53.8727150  19.9003315
  46.9885101  54.3898468  19.0427666  51.5792770  67.8687439  55.6515617
  51.0329475  67.6001587  54.9129028  51.7882919  67.0517502  56.1044121
  62.2999802  48.9956818  44.9592819  61.6085625  48.4469299  44.5890846
  62.3813744  49.7252884  44.3450470  59.6304817  18.4949341  40.3877907
  60.0447426  18.0796871  39.6313591  60.3324203  19.0002213  40.7979088
   7.1434307  65.2073822  82.2604218   7.6098313  64.7113266  82.9331970
   7.3719754  66.1204605  82.4344559  42.3574677  40.0756340  68.9201813
  41.7180672  40.4921074  68.3423004  42.8858910  39.5292206  68.3384323
  40.9889565  33.7368889   9.1276407  40.1731415  33.3151131   8.8578596
  41.1308823  33.4325867  10.0240173  14.7882032  59.1584778  11.0110092
  14.7297230  58.8651657  10.1017361  13.8864946  59.1285629  11.3307877
  66.2523117  44.4361916   2.9864802  65.5346146  43.8647232   3.2595382
  66.9274902  43.8371658   2.6678300  37.9085121   6.6720986  68.3019714
  37.4820137   5.8179407  68.3708801  37.1855659   7.2970543  68.2470856
  67.1548920  20.2388859  50.2949715  66.3253632  20.0160675  49.8725204
  67.0306168  21.1343994  50.6093636  35.3928299  46.9685783  55.2258797
  35.7202415  47.0187302  54.3278160  36.0134964  47.4884720  55.7364769
  73.2119217  42.8331680  55.5378494  72.3592834  42.9110527  55.1098671
  73.6533127  43.6602669  55.3446846  63.7280045  71.0084915  60.8045044
  64.1359177  70.1468582  60.7183266  63.0414429  71.0162430  60.1375694
   4.6804423  67.8741150  48.0123405   4.8562779  67.8975677  47.0717239
   5.4496889  68.2819443  48.4100456  69.5941467  33.9034615  52.5551453
  69.8160019  33.0287285  52.2359924  69.5333939  34.4388046  51.7639771
  62.6416588   2.3424878  39.3310547  63.2812424   2.0590036  38.6777534
  62.8877792   3.2456267  39.5310440  77.7839890  38.2272568  15.5349617
  78.1993713  38.3314095  14.6788979  78.3170395  38.7589073  16.1260967
  60.9292030  42.0624313  10.6032763  60.3834572  42.4137115  11.3068371
  60.3072433  41.6677246   9.9920425  21.3504772  32.2723465  70.9026184
  21.4087410  31.5308533  71.5051270  20.5369968  32.7146835  71.1451492
   2.2854383   0.8498950  46.6185265   2.5730679   0.1634707  46.0165939
   2.5057802   1.6675388  46.1722755  72.7545090  18.8541069  43.8942871
  73.3979340  19.5575504  43.8082466  71.9092178  19.3030243  43.9078445
  84.3623505  68.0294418  85.5157547  84.5869293  68.6032333  86.2482529
  85.1072464  67.4328842  85.4416962  44.5286980  19.1023464  82.0034943
  43.7280006  18.8004608  81.5745621  45.0458641  18.3072300  82.1321945
  60.7065315  60.0333672  12.8688097  61.1353035  60.8785439  13.0031900
  60.0983658  59.9537964  13.6036816  73.9193344  60.5940628  46.7916260
  73.8838120  61.5436935  46.6768723  74.8492737  60.4020042  46.9122734
  24.9320126  30.6898823  17.5389614  25.2963390  30.0597057  16.9173698
  25.6248531  31.3401318  17.6546459  33.1518669  45.1574974  32.2611465
  34.0940895  45.2765388  32.3806343  32.7971230  45.1471100  33.1501236
  42.1004105  52.4236259  56.2809410  42.3891449  51.5191803  56.1590958
  42.2000923  52.8252106  55.4177933   3.3484812  57.7002449  67.1437302
   2.6380727  58.2908249  66.8931961   3.0938973  56.8518715  66.7808456
  77.8235550  15.4077663  39.2764015  78.2447281  15.9996281  38.6530685
  77.4615936  14.7069139  38.7341614  63.6591301  60.8817787  44.0962868
  64.4808350  61.3691177  44.1556816  62.9819107  61.5573807  44.0620842
  12.6582241  48.4195938  27.6312828  13.4745293  48.7067299  27.2220974
  12.0119200  48.4535332  26.9260368  63.0837708   6.7223740  45.4909782
  62.1515541   6.5644894  45.3417130  63.2521858   7.5697179  45.0788155
  10.0651484  15.6888332  70.1753922  10.6808596  15.3316097  70.8153305
   9.3029289  15.9461012  70.6941071  19.8879890  66.2433929  76.9344254
  20.1998692  65.4110031  77.2895126  19.5129871  66.0154266  76.0837555
  73.2615204  70.4696579  13.0936012  73.0477295  69.5397873  13.0169716
  73.4049072  70.7575378  12.1920481  26.5694141  51.7524300  37.4823303
  27.2020988  51.6132927  38.1870193  27.0115910  52.3483124  36.8776550
  43.7405090  32.3782005  83.1269379  43.1534119  33.0077782  83.5454865
  44.2468262  32.0061378  83.8490524  64.4674911  48.5431862  23.3106594
  64.1492386  47.6628571  23.5105839  63.7763748  48.9316559  22.7743034
   4.0895572  27.4193954  74.7989960   4.1061802  26.5768604  75.2529678
   4.1646504  27.1934395  73.8718796  51.5710907  44.5195045   2.4263008
  51.7522163  45.0139885   1.6269821  50.6203003  44.5661697   2.5265419
  69.7704315  29.8204632  66.8556824  69.3738785  29.0533504  67.2686157
  69.5950165  29.7071552  65.9215393  80.4188766  47.4712830  35.6352272
  81.3437119  47.3036919  35.8163795  80.1789017  46.8115997  34.9844894
  36.2330437  65.3057480  20.7265568  35.5152473  64.7163162  20.4951115
  36.1559410  65.4164963  21.6741962  36.8141747  26.3624935  84.7890472
  37.7244949  26.6500397  84.7192917  36.3852043  26.7365360  84.0194321
  59.0187569   1.1001647  45.2926445  59.2318649   1.9934033  45.0225677
  58.8872795   0.6265288  44.4712944  56.8395996  20.2655201  49.4275551
  55.9720802  19.8684578  49.3501892  56.6654930  21.1970634  49.5622635
  45.9683876  68.2738876  19.6586456  46.5578384  68.2335968  18.9055443
  46.0922203  69.1544571  20.0128822  76.1414490  16.9760056  56.6146545
  75.8652649  16.7856064  57.5111465  76.5989151  16.1842384  56.3316994
  78.8300018  19.6666012  11.6114330  78.3330536  19.1512413  10.9760780
  79.3949280  19.0288391  12.0477238  73.3274918  29.1975117  18.9017487
  72.4401321  29.1548309  19.2581310  73.2241898  28.9803905  17.9752407
   9.3049831  61.0015640  57.2526093   8.6247568  60.4225540  56.9087029
   8.9870806  61.2565575  58.1187210  59.4341278  58.4974518  15.3855219
  60.1542015  58.5611572  16.0129490  58.6433907  58.5618744  15.9210787
  43.2878876  31.3835659  34.1448631  42.9229393  30.6428928  33.6606674
  42.5264740  31.8142223  34.5334740  13.4736280  65.6402054  77.1214523
  14.0714417  65.4191360  76.4073257  13.5596771  64.9141693  77.7392731
  47.3979225  63.3886566  59.2860107  47.3002777  62.4456711  59.4181900
  47.3188629  63.7629585  60.1634369  19.6788368  66.8933792  62.4282951
  20.3980579  66.5075684  61.9281883  19.4499149  66.2244415  63.0735474
  66.9133987   3.2760391   0.4077278  66.9453049   4.2150936   0.2249967
  67.1901093   2.8633010  -0.4103866  61.6281853  16.2177658  13.9358931
  60.8360863  15.9496527  13.4701405  62.3449173  15.9699450  13.3518486
  60.1188087  66.1824112  58.9338722  59.6561470  65.3482056  58.8546867
  59.4540634  66.8440628  58.7426491  11.7398424  34.4843178  67.5351639
  12.6692209  34.6806412  67.6532440  11.6858597  33.5310783  67.6033707
  16.5136089  55.3700562  57.0775719  16.1316395  54.8588181  57.7909927
  15.9276142  55.2208633  56.3355598  28.1580830  56.5980873  64.9514618
  27.5403938  55.8710938  65.0300369  28.9254513  56.3152046  65.4488068
  43.0950813  14.4583235  20.5862999  43.0026855  13.9963045  21.4195061
  44.0286827  14.6611071  20.5271206  67.2891769  44.8523026  41.8017769
  67.2768707  44.4823990  42.6845284  68.1905746  45.1501999  41.6794586
  38.3037987   2.4147751  10.2298594  38.3819351   3.2490215  10.6926336
  38.8916931   1.8238652  10.7004309   5.3290844  15.2507591  14.7238102
   5.9753985  15.3587751  15.4215508   5.8040776  15.4678679  13.9216394
  77.7809296  64.2237015  52.0872688  77.8102188  64.9955902  52.6525688
  78.4004135  63.6119080  52.4850006  68.4855576  55.6652603  19.6613636
  67.7566452  55.1214523  19.3627300  68.2223282  56.5593719  19.4434032
  12.3274565  58.6029167  12.3560066  12.0258980  59.5044861  12.2443447
  11.6477690  58.1869659  12.8863258  61.6145821  25.9386997  36.1660233
  62.4277382  25.8037949  36.6526527  60.9902763  26.2460289  36.8233109
  55.5483170  60.3501320   0.4161263  55.5911560  59.4096794   0.2430763
  55.6965828  60.4272346   1.3586251  78.3252258  69.5476608  33.8890648
  78.0509033  69.2040634  34.7393074  77.8475418  70.3721924  33.7985153
  78.8156509  46.1978645  27.2189693  79.5158310  45.8163910  26.6893959
  79.1881638  47.0117645  27.5581303  57.3444328  28.7542496  39.9758644
  57.4634361  29.5832558  40.4393539  56.6663780  28.9384632  39.3258324
  68.9601746  32.4358368  45.5753746  69.1671448  33.0440865  46.2849045
  68.8713684  31.5859642  46.0067253  69.1563721  34.1767426  47.7135963
  69.0198822  34.1627464  48.6609116  68.4245758  34.6917267  47.3737564
  21.7694378  40.9799690  78.5320053  22.3632431  40.2392159  78.4098892
  22.3124962  41.6587296  78.9327621  41.9261322   9.5118322  81.3239899
  41.3653374  10.0591040  81.8737488  41.8782043   8.6430511  81.7229309
  27.5016747  18.3745747   7.8218675  27.0579205  17.5264854   7.8294735
  27.0072231  18.9091873   8.4431076  34.0036201  52.8715324  47.6317978
  34.1476021  52.0466957  48.0956383  34.8346710  53.0461693  47.1901131
   3.5396559  51.7092628  79.1359024   2.5839264  51.6565857  79.1297379
   3.8009436  51.4233284  78.2605743  66.2037201  22.6479950  51.4919205
  65.7458572  22.3933735  52.2930222  65.9698029  23.5673523  51.3642540
  71.6604233   9.4229803  38.4063644  70.7888489   9.7902756  38.2590828
  72.2458725  10.1799965  38.3863029  75.5038834  20.4809208  60.9430809
  76.3498383  20.7971935  60.6259689  74.8639297  21.0757790  60.5521355
  36.9331474  25.8831272   8.1218166  36.6500244  25.3492794   8.8641644
  37.0904884  26.7498684   8.4962969  12.1095705  48.5824089  22.7638283
  12.9857311  48.3111191  22.4900131  11.8022127  49.1490288  22.0562248
  71.0174484  22.1242561  47.7358780  70.2682953  21.7937622  47.2401161
  70.6427765  22.4257946  48.5634804  32.5823135   9.0675249  70.9532089
  31.9218102   8.7072010  70.3614883  33.2771149   9.3809786  70.3742142
  30.3584366  62.2824821  13.3976946  31.0590000  62.1875839  12.7523746
  29.6944046  62.8105125  12.9544353   1.0884674  15.4032049  71.9086380
   1.6301745  14.6190004  71.9970016   0.8659460  15.4370050  70.9782715
  54.1870804  18.9756966  35.4224396  54.5058098  18.3518181  34.7701988
  54.9659653  19.2169189  35.9238205  12.4676113  44.7355042  28.3055592
  11.7081861  45.0940170  27.8462410  13.1543074  44.6976662  27.6397915
  68.2307968  35.0297012  71.6518478  68.4838715  34.4613228  70.9244385
  67.3822250  34.6906052  71.9367523  77.1788025  22.8133335  88.0342865
  77.8768845  23.3602695  87.6740494  77.3546295  21.9396667  87.6849670
  12.9193773  29.1660843  74.2869949  12.9933739  28.6678391  75.1009445
  13.1038866  30.0700760  74.5419235  58.5687065  36.0341988  28.0898285
  58.0522842  36.8042793  27.8521118  58.2724648  35.8101501  28.9720268
  49.7116089  24.6662464  20.8968277  49.4674301  24.5500259  19.9786205
  49.1426926  25.3700123  21.2087250  31.1304264  17.3326073   1.0407110
  30.8556366  16.4170170   1.0898765  30.4755611  17.8070450   1.5528545
  51.5044289  27.1325417  87.3399963  51.5821075  27.7960072  86.6544189
  51.8913498  27.5415764  88.1140823  21.1238785  63.0573540  62.1415749
  21.2776337  62.1166382  62.0541534  20.6918182  63.1515503  62.9905052
   4.7480636  35.1841164  23.8803177   4.6310129  35.5670128  23.0108795
   4.0976353  34.4831390  23.9228649   5.8675694  35.0156021  45.2891541
   5.7109799  35.1040306  46.2293091   5.3551674  35.7207527  44.8936310
   4.8720646  31.6818562  54.8962708   4.4985704  30.9773846  55.4258461
   4.2768955  31.7625580  54.1509552  60.7132607  49.9443436  29.9782314
  60.5197220  49.0276909  29.7819595  60.6391602  50.0061836  30.9305534
  36.4896851  17.8447227  21.3240757  37.4407959  17.8416748  21.2163086
  36.1773834  17.1764565  20.7140598  65.5548401  22.7644978  73.8576202
  66.1921005  23.2875957  73.3713150  65.4185867  23.2490978  74.6717682
   4.2236252   3.3848379  33.4394760   4.3098507   2.7773499  32.7047958
   4.9904151   3.2108738  33.9853706   0.6271458  59.9155159   7.3149610
  -0.0026431  59.7830696   6.6064024   1.3548969  60.3824615   6.9043884
  16.9829807  52.3143959  73.8748932  17.6368771  51.9248009  74.4552994
  16.7599468  53.1474037  74.2903290  48.3150597  64.5343170  62.2382164
  48.1621246  63.5936737  62.3278160  48.4917221  64.8342590  63.1298752
  70.8864365   5.8035460  81.1806183  71.7094879   6.1950884  81.4730453
  70.2407455   6.0942988  81.8246536  21.8833561  41.8619194  29.5965538
  22.4029064  41.9034309  30.3994102  21.1542549  41.2806702  29.8128719
   1.9126661  57.2618294  55.7435837   2.8643618  57.2989235  55.8391418
   1.6774176  56.3792763  56.0299263  61.3501396  67.2716980   5.6478586
  60.6679802  67.1545258   6.3090415  61.3486404  66.4515915   5.1542397
  46.9087296  41.5092697  12.8430729  46.1153107  41.5745888  13.3745356
  46.7228432  40.8062859  12.2205849  82.2134857  62.7923241   7.0179367
  81.7379532  62.2239952   6.4120474  81.5369186  63.1467171   7.5949078
  86.5381622  61.3307495  69.4702835  86.1963959  61.2964668  70.3637314
  86.7853851  60.4271927  69.2735748  83.5780258  71.1794662  64.7007980
  83.0853043  70.4090118  64.4182205  83.8024902  70.9986954  65.6135788
  15.7056494  36.8911438  82.9734802  16.6427498  37.0142403  82.8220901
  15.4985332  36.0659523  82.5348511  77.8968124  19.6668777  23.4321537
  78.7375031  19.4723110  23.8464203  77.5222168  18.8082199  23.2356319
   7.7500205  42.9748421  14.7842216   7.7360015  43.8187866  15.2356577
   7.6916614  42.3267212  15.4861965  54.7050171   0.4645447  32.8873940
  55.0636444   1.2614334  32.4967690  54.9511223   0.5187516  33.8108292
  19.3334408  65.4950562   1.6082436  19.8303680  64.7265167   1.3278246
  19.8236160  66.2384415   1.2570484  86.1874619  -0.0397454  33.7116013
  85.2766876  -0.2861642  33.5503540  86.1767426   0.9171865  33.7315598
  50.8558540  45.3821068  18.7021275  50.2976418  45.4118042  19.4791393
  51.3885536  46.1753120  18.7594509  62.3031273  68.9043961  53.9644165
  62.1847992  69.5914078  54.6203423  63.2513847  68.7855377  53.9104424
   8.4974251   7.7057209  84.2459717   9.3585854   7.3296452  84.4281845
   8.1321526   7.1466579  83.5602188   7.9465766  59.2301331  20.6382046
   8.4524832  58.9374008  19.8801823   7.2554865  59.7789383  20.2674789
  30.9911575  58.0361710  65.2108154  30.4094982  57.3875046  65.6072235
  30.9878082  57.8224297  64.2777939  56.1267166  50.2227135  65.6029358
  56.4417381  49.7389603  66.3664627  55.3036385  49.7931175  65.3700714
  44.2536049  59.8646545   3.3918595  43.8488617  59.4289131   4.1418900
  45.0119057  60.3187981   3.7592366  76.7396393  61.0294456  14.3019152
  75.9657516  61.5650253  14.1273298  76.5091705  60.1608810  13.9722061
   8.6512814  11.8109674  72.3945923   9.4674120  11.8921623  72.8881149
   8.6171961  12.6017494  71.8563232   4.0855308  48.9367752  19.6716938
   3.5458305  49.5285072  19.1474686   3.5384159  48.1614265  19.7970982
  35.8894386   9.7360945  82.6743774  35.4421158  10.5749960  82.5631256
  36.7119865   9.9591990  83.1101151  11.9431324  71.4318161  79.3651733
  11.0884304  71.0008774  79.3679581  12.5460253  70.7659302  79.0344849
  15.8306980  43.4068985  84.4037628  15.4302835  42.6478233  83.9798508
  15.4590616  43.4123459  85.2858582  39.9234734  14.1104078  84.1500931
  39.1800117  13.6131868  84.4910736  40.6540794  13.8697290  84.7197647
  76.7308121  53.0927315  37.4585190  77.4146805  53.2332153  38.1133652
  76.7526474  52.1511650  37.2876129  28.9659367   2.5969253   1.7846123
  29.7596378   2.8560596   1.3165081  28.2709866   3.1207688   1.3860352
  13.2462845  66.3901138  23.8238983  13.6894951  66.4747086  22.9797192
  13.2621059  67.2734375  24.1923065  30.3269997  35.0105171  62.2774124
  29.3700199  35.0200119  62.2591324  30.5509777  34.1580467  62.6507187
  27.4139080  45.3442116   0.8459934  28.3333302  45.6040688   0.7879379
  27.3166332  45.0049133   1.7357376  72.5261078  16.8852234  33.2399864
  71.7088699  17.3543644  33.4080887  72.9555435  17.3916492  32.5505295
  75.5523758  48.9622650  81.7360535  75.9063110  49.8514404  81.7181473
  75.3832016  48.7904205  82.6623840  50.0990601  12.6372032  86.8678055
  49.7483673  11.7482319  86.8132706  50.7940674  12.6612749  86.2100677
  40.9821320  67.5846024  88.8244171  40.8602257  66.6844864  89.1263504
  41.1855965  67.4993057  87.8929901   4.8676276  65.1651382   0.6949471
   5.8070765  65.3474503   0.7156523   4.5994992  65.1849442   1.6136128
  59.8257217  10.3807697  32.2740021  59.5490761   9.7545233  32.9429665
  60.7535744  10.1900015  32.1364136  38.7693024  11.2716875  17.7494659
  38.0343704  10.9986763  18.2986202  38.5839615  12.1868677  17.5389271
  72.1410751  21.0630474  22.6819096  71.7037201  20.4400349  23.2622566
  73.0748672  20.9094620  22.8257084  43.8616638  56.6277084  59.8727112
  44.4662781  56.2196426  59.2529106  43.2405968  55.9336815  60.0936890
  75.4216309   9.8703012  25.4065437  74.8637848  10.2148046  24.7091541
  76.3140717  10.0022583  25.0865955  37.9310493   2.6162877   6.9129190
  37.9887276   2.3394754   7.8274026  38.7438354   2.3029876   6.5161200
  74.5061722  27.9952297  80.7422714  73.9344025  27.9500427  81.5086060
  75.3764191  28.1659718  81.1024780  69.6459656   2.1318209  82.8864517
  69.3569183   1.2713100  83.1901016  70.4328461   2.3150563  83.3997421
  80.1579895  62.4683189  37.6495857  80.8334656  63.1329346  37.5145149
  79.9188843  62.1869049  36.7664871  51.8780823  31.3509693  53.4382591
  51.8090324  30.7999229  52.6586380  50.9756126  31.6025791  53.6344147
  45.0750237   6.5602512  17.8149719  44.1526718   6.3966637  17.6181564
  45.3317032   7.2503514  17.2033272  66.9536514  23.1770763  54.3345757
  66.8890991  23.7682972  53.5845604  66.1294708  22.6903496  54.3275146
  64.9314270   0.6079913  43.5418510  64.4729156   1.4480525  43.5589142
  64.3166504  -0.0085509  43.9395332  59.1819077  51.7062531  27.7177715
  59.6702728  51.0015488  27.2921906  58.4005966  51.2784958  28.0682087
  18.9743729   5.8507032  64.5816727  19.2687473   6.3939223  63.8505859
  19.3284245   6.2828588  65.3589249   8.9171724  11.5875635  87.3524246
   8.6648006  12.1124754  88.1120377   8.1384878  11.5819492  86.7957840
  51.3479080  52.3910408   6.5699892  50.7201424  51.8689651   6.0704136
  52.2045937  52.0840111   6.2732482   1.2576487  40.7625923  50.6633453
   0.8465911  41.6219978  50.5701408   1.3540868  40.6444359  51.6083145
  25.3362789   3.9418840   8.8725662  25.5582790   3.1389368   8.4011612
  25.3165131   4.6189895   8.1962748  47.6650047  60.6960297  59.5553627
  47.3237190  60.2274933  60.3170891  48.5787468  60.8774414  59.7753716
  28.4424305  66.1164551  26.5760612  27.6452236  66.5508347  26.2727318
  28.9522800  66.8131104  26.9895306  34.7747231  26.4089527  20.4724960
  33.9382896  26.8629303  20.3699532  35.4226112  27.1110592  20.5318356
  49.0982246  16.5586681  71.0487518  49.6093483  17.3406124  71.2574387
  49.7489052  15.9148664  70.7688141  52.4865761  63.4838066   7.0900397
  52.6597748  64.4082260   7.2680354  53.2518387  63.1872749   6.5974250
  24.4813080  69.8796844   0.9650695  23.5347977  70.0221939   0.9587859
  24.5838833  68.9635696   1.2228327  68.9757614  64.4330139  63.8414268
  68.6465225  65.2701569  63.5142860  69.9055557  64.4359741  63.6140480
   6.5044260  36.3404160  79.3592224   6.7175069  35.4090996  79.3002548
   5.6302643  36.4108696  78.9756699  46.6408043  21.5913067  24.4669971
  47.0360374  21.7788296  25.3183823  45.7131615  21.7968197  24.5830860
  52.2417831  27.3139668  30.1543865  53.1368752  27.2203445  29.8283806
  51.7965622  26.5179996  29.8637924  75.0054321  29.3817616  42.7841339
  74.9391403  29.6781139  41.8763809  74.1123199  29.1308842  43.0200157
  16.9358616  67.2052536  52.9201469  16.6422577  68.0559311  53.2463150
  16.6529541  67.1886673  52.0058594  42.1310730  34.7178764  76.2211685
  41.2466202  34.3635674  76.1292953  42.5937386  34.4123459  75.4408951
  56.8181915  38.4648666  66.1563110  57.3044548  37.8526497  65.6040726
  56.0327911  38.6722527  65.6499786  84.6808090  69.3139114   4.0619946
  84.4827957  68.3933411   3.8900020  84.7986450  69.6997833   3.1939800
  80.4142151  28.0686455  73.2301941  79.5929260  28.3227310  72.8092957
  80.7825775  28.8911762  73.5526581  52.3779984  54.6272964  83.4756851
  53.2918777  54.4522400  83.2511673  51.9010086  53.8637161  83.1506348
  51.1900520  57.7166061   1.0271385  50.2581100  57.7502327   1.2429749
  51.6318932  57.6956825   1.8760012  62.1915741  24.9568062  15.5196772
  61.5767326  25.0311203  16.2495251  62.8653183  25.6105404  15.7065716
  47.8602905  50.3197250  82.6673050  48.7623062  50.0012016  82.7010880
  47.3307190  49.5289536  82.5649872  72.6617966  66.4318924  23.6331921
  73.0144958  66.8944473  22.8730087  73.1931381  66.7385941  24.3679276
  79.7273941  20.1735973  59.5614510  80.6646881  20.1506672  59.3686142
  79.3392487  19.5611572  58.9365540  80.8745575   1.7036338  56.5580330
  81.2673569   2.3175294  55.9374924  80.1966782   2.2129395  57.0022392
  31.1206779  67.8455963  15.9246197  31.3544827  67.5025253  15.0621395
  30.1985302  68.0891266  15.8435860  45.5322151  16.3085136  82.2792816
  45.2186661  16.2398491  81.3775101  46.4786720  16.1812019  82.2141266
  19.8265553  59.6082954  45.3726807  19.7497082  60.3574371  45.9635353
  20.2991753  58.9494858  45.8814354  18.5744801  22.6056633  81.2751312
  17.9887886  22.2685452  81.9530334  18.0317554  23.2097969  80.7684708
  54.3809662  36.2117577  27.2922382  53.4293289  36.1133575  27.2616348
  54.5576591  36.9949074  26.7710037  44.6610909  69.9184570  56.7191467
  44.7809181  69.7299576  57.6499214  43.7469864  70.1928787  56.6460876
  28.6355495  43.1952057  66.1166611  29.2819004  43.3264923  66.8103714
  28.9066448  43.7934608  65.4203644  82.7174377   9.7642021  20.1651669
  83.2819443   9.2641516  20.7546673  82.0317230  10.1170511  20.7322063
  13.3247108  15.5223885  18.0900364  13.6552267  16.0072994  18.8462467
  13.8402491  15.8485193  17.3524113  59.9730835  17.2463894  86.9650192
  59.5972595  16.9328728  86.1424026  59.2491722  17.2057285  87.5899429
  60.4796600  39.0666008  37.0161819  60.1823769  39.5911560  37.7596169
  61.2488556  38.6007271  37.3440933  38.7483559   0.9458607  35.2542419
  38.7926636   1.8941472  35.1316795  37.9514275   0.8074896  35.7660942
  82.0358887  44.3415375  66.9779816  81.2126389  44.1431465  67.4242172
  81.9080124  45.2194443  66.6185989  42.1207123  52.1571465  28.9092617
  42.1071663  51.3886948  28.3387108  42.7160072  52.7677727  28.4745293
  42.8496628  44.5219498  41.5773926  42.0453186  44.3967628  42.0809708
  43.5505600  44.2722206  42.1795616   1.7633929   4.3182521  63.2108879
   1.6405497   5.1884232  63.5902901   2.6368275   4.0526357  63.4986229
  47.4642906  22.7874870  42.4629517  46.9712296  22.0956097  42.9038925
  47.4953117  23.5021114  43.0990181  27.6093559  56.0144043  74.3299637
  28.0210304  56.3465767  73.5322037  28.3400307  55.7065048  74.8661957
  40.3096390  20.3980885  14.3454685  40.6182556  20.7139053  15.1947317
  39.3906937  20.6637135  14.3106766  54.2007294  22.2491970  52.5539360
  54.0110207  21.7657166  53.3579826  54.3404045  23.1506863  52.8438301
  15.1348190  29.4371624   8.1639881  15.2442341  30.1129513   8.8329935
  14.2166319  29.1761856   8.2350903  11.8894014  65.2937088  85.0906906
  12.1035814  64.8500443  84.2700043  11.4716177  66.1110001  84.8191833
  35.7709885  40.8484955  75.6367645  35.5802040  40.4083405  74.8084564
  34.9532509  41.2891693  75.8677292   7.3389754  50.5040588  84.5968552
   8.1804953  50.6403770  84.1615448   7.1209950  51.3583107  84.9696426
  51.9634972  67.4334259  63.7022438  51.4775352  66.7695694  63.2129974
  52.8599625  67.0993652  63.7336807  53.8179512  19.6942959  66.2728882
  52.8891830  19.7028751  66.0414810  54.1553650  20.5259895  65.9402161
  81.2423935  43.6454773  12.3066807  81.7990723  43.0548515  12.8141346
  81.8266983  44.3551750  12.0399361  60.2618294  28.6902485  75.5541000
  60.5789108  27.7972355  75.4191284  60.1338921  28.7585468  76.5002441
  75.0419769  34.0563660  57.7103767  75.5219193  34.5692596  58.3606300
  75.5228500  33.2306328  57.6541901   1.8877888  48.4968071  26.6161098
   2.5212569  48.9591789  27.1648922   1.6006335  47.7578087  27.1524487
  73.9011765  51.2130013  16.3052349  73.6536636  51.2353897  15.3808603
  73.9171906  50.2818413  16.5264091  22.2387886  14.0138712  13.7712727
  22.3836327  13.3079395  14.4012823  21.8649044  13.5783167  13.0052872
  29.0615330   5.8400722   8.5809002  29.6921978   6.3681717   9.0703945
  28.3788109   5.6305151   9.2182436  71.4231033   1.8698617   8.1776934
  71.0427094   2.7279108   8.3655338  70.6751862   1.2725251   8.1712017
  55.1682358  13.8602457  76.2168655  54.4874268  14.0859632  75.5830002
  55.3021584  14.6630821  76.7206039  35.4525757  34.4844513  22.5441513
  35.7910767  34.6306305  23.4274864  35.7860718  35.2229462  22.0346050
  44.6042595  58.4740067  13.5713720  44.4635544  58.4183846  12.6262054
  44.8991470  59.3729095  13.7171335  49.7873611  24.2638702  35.2242508
  49.6319122  24.3431492  34.2830887  50.0872498  23.3625717  35.3423920
  23.4560890  25.0987511  75.2476959  23.6633377  25.7800980  75.8872604
  23.2590656  24.3256874  75.7766418  83.5190353   0.0520770  40.0132980
  82.7943954   0.3998071  39.4934807  84.3013458   0.4461518  39.6273842
  38.6737633  53.2705841  16.5499897  38.7777176  54.1402740  16.9360809
  37.7459564  53.0661087  16.6665878  74.3242569  10.1630621  35.5628853
  74.9652786  10.3874969  34.8883858  74.7243805  10.4575911  36.3810501
  55.8368645  68.5428619  38.2804794  56.1176720  69.4410095  38.1052132
  56.2695580  68.0205231  37.6050797  64.7764282  15.0478916  47.3036270
  64.3779068  14.3292589  47.7945251  65.0126724  15.6919231  47.9711952
  73.4331207   1.2690890  32.5852699  72.5529404   1.4998740  32.8823357
  74.0045624   1.9093549  33.0092392  54.1789818  14.5155087  71.6884995
  54.7717285  13.9050426  71.2500763  54.1873932  15.2965708  71.1352386
  33.6575012  67.9069366  21.4086380  32.9185791  67.4293518  21.7856503
  33.7796173  67.5153198  20.5437927  23.6622467  45.1889381  13.1840105
  23.8852749  45.1154251  14.1119576  24.3841724  44.7552414  12.7290783
  78.7062225  20.6404591  65.9092560  79.5840607  20.9897118  65.7554474
  78.8317566  19.6931801  65.9652634  34.3837929  37.9499283  82.9920273
  34.7143478  37.6792526  82.1354599  34.7546349  38.8219490  83.1272354
  29.0585575  51.0478439  44.6752510  29.8731766  51.2570572  44.2182426
  28.4543476  51.7445679  44.4188538  16.1847286  71.2649689  82.9435349
  15.7432652  70.8095169  83.6604080  17.1109676  71.0531998  83.0595779
  53.0888824  20.4519405  33.2560539  53.6710968  20.1791496  33.9651642
  52.3488617  19.8470058  33.3076248  64.2411499  69.0245895   3.4478757
  63.6662445  68.6299973   2.7921200  63.7425003  68.9766159   4.2635226
  71.4385223  31.9731007  78.7058563  71.5211182  31.4890766  79.5275192
  72.2349167  32.5019989  78.6583481  48.8217850  12.7189808  29.3547077
  49.0165482  12.7369633  30.2917118  49.4819107  13.2900667  28.9618626
  74.7384109  14.6528711  20.6250591  75.2364349  14.1612892  19.9719505
  75.3315353  14.7268305  21.3727016  83.1147308  70.5949249  58.5462341
  83.9274673  70.1482239  58.3093033  83.3060532  71.5240631  58.4184074
  75.2552948   1.8453150  36.4870338  74.4778976   1.7100629  37.0288811
  75.1900101   2.7553101  36.1974144  80.5310974  31.9877300  40.3451004
  79.7892303  32.4056053  40.7824135  81.0662155  31.6416569  41.0593224
  67.7816391   5.7756557  34.8282852  68.3495407   5.0589910  35.1113281
  68.1640701   6.5566168  35.2283859  46.9779968  56.7591400  61.7023163
  46.4043808  56.2696609  62.2918968  47.8034019  56.8365593  62.1807899
  58.0619240  32.6878967  29.5788059  58.0338211  31.7378254  29.4656277
  57.3690987  33.0178566  29.0066566  25.1752644  66.0127335  47.0873070
  25.7518272  66.5623322  47.6181030  24.4559975  66.5923691  46.8364944
  26.3948326  40.6665840   3.5496583  25.5736160  40.2156372   3.7458353
  27.0225754  39.9620056   3.3892229  75.0850525  65.6825638  72.6136398
  75.7644577  65.2970657  72.0604401  75.5664597  66.2041702  73.2558289
  68.3630295  37.9832649  16.9120865  68.6998062  38.8250160  17.2191162
  69.1433945  37.4415703  16.7945080  81.4053879  32.1413498  27.2150726
  81.3169250  32.4705925  26.3206425  81.9340363  31.3482361  27.1271572
  14.9175682  41.3932152   7.1258063  14.8861551  41.7763596   6.2491956
  15.7416935  40.9067230   7.1451716  60.0260201  37.4231644  52.2337837
  60.0780220  37.7453461  51.3339348  60.9219818  37.4894600  52.5640755
  31.7227173  62.5039711  51.7318459  31.6178474  63.3942795  52.0673866
  30.8279419  62.1922035  51.5961609  38.0145950  33.7922516   0.0287425
  38.4298706  32.9882889   0.3408679  37.0814285  33.5819435  -0.0059255
  30.3413124  15.2825804  87.7852097  31.2071629  15.6626930  87.9337006
  30.2257557  14.6616812  88.5044937  61.2490196  45.1191025  82.4393387
  60.3859138  44.7476540  82.6218338  61.1284332  46.0637856  82.5355606
  68.6351166  40.7133217  55.4815979  68.1132889  39.9804649  55.8084602
  68.3630829  40.8129578  54.5692940  79.6909485  13.8349514   1.7191690
  80.3168869  13.4895754   2.3556845  78.8455658  13.4850616   2.0004704
  51.8860970  58.3014870  64.8399429  51.7997284  59.1138687  65.3387527
  51.7620316  57.6081276  65.4880905  78.4048767  33.1697006  17.6707668
  77.5619965  32.8114433  17.3924847  78.5543060  32.7866440  18.5351582
  18.9470711  27.9082298   1.9769315  19.1693878  28.7354336   2.4041779
  18.0060482  27.8092842   2.1215630  23.1716347  59.4345512  66.2480164
  23.5801983  59.5203285  65.3866501  23.4503841  60.2166672  66.7242813
  84.2477264  51.7125130  78.6846771  84.4718323  51.2945976  79.5161514
  84.8779984  52.4277534  78.5985641   8.8016844  55.6337967  44.1349297
   9.6940956  55.7145195  43.7983055   8.4742241  54.8196373  43.7526436
  35.0307503  47.5267868  49.9268570  34.6422920  47.7843704  49.0908051
  35.0465012  48.3332520  50.4422188  25.3811359   0.5636687  48.1813431
  24.8831711   0.6687468  48.9920349  26.2270164   0.9722343  48.3651695
  16.2428913  12.8851376  12.9069910  16.2680874  12.4279938  13.7475958
  16.9949627  13.4766779  12.9334116  45.1913948  20.7681446  83.8201218
  44.9181633  20.1572933  83.1356964  45.2111588  21.6210155  83.3860092
  82.2271271  53.5712738  73.3356171  81.4456558  54.1231079  73.3674088
  82.0687714  52.8937073  73.9929352  52.0668640   7.7300882  67.4903946
  52.0859756   7.2401838  68.3125000  52.5685768   7.1912093  66.8787384
  62.5125122  52.2441978  10.9049778  61.7753525  51.9463425  11.4379959
  63.0344543  51.4557533  10.7561083  68.7268066  15.4974384  82.2450790
  68.7861633  15.9242039  83.0998230  68.8065491  16.2128258  81.6141357
  11.9263744  45.7304077  14.7077866  12.1102848  46.4488029  15.3130283
  12.1538582  44.9402237  15.1977835  61.5198135  23.0413132  87.9115601
  61.1793594  23.8617077  88.2683105  61.8161392  22.5512924  88.6785660
  21.0073910  27.2277584  68.3594437  20.1760426  27.3473663  67.9003372
  20.8806877  27.6641273  69.2019196  59.4246864  56.7105179  56.2252922
  58.8204117  55.9750748  56.3263359  59.3560524  56.9517212  55.3015251
  72.6532974  42.3747635  18.4014626  72.7454071  41.4646835  18.1195068
  73.5264053  42.6202354  18.7074928  65.7807388  56.4766006  73.8198013
  66.0125732  57.3620262  73.5396118  65.8978500  55.9391212  73.0364609
   7.1267815  45.2467728  25.1663761   6.9937363  44.5066948  25.7586727
   7.2567806  44.8455048  24.3071213  72.5241013   6.6053877  76.8933411
  71.8843079   7.0081868  77.4804077  72.6027451   5.7043729  77.2067413
  69.6138382  22.6732407  63.2740211  69.9119034  22.1117516  62.5583954
  70.2084579  23.4230690  63.2537270   7.1463509  11.5004215  22.0741920
   6.9625206  12.4391632  22.1088772   7.0379572  11.2016134  22.9770737
  32.8337517  62.7550926  17.9940109  32.6546860  63.0283623  17.0942936
  32.1213646  62.1524925  18.2075787  80.9733429  25.8641872  29.3268166
  80.8244934  25.0907688  28.7828484  80.1203842  26.2967415  29.3666668
  59.1439095  38.7774124  30.3334808  58.7572136  37.9045334  30.4026623
  58.5582047  39.3397141  30.8404312   6.4874425  57.8738289  43.9622993
   7.4046936  58.1014595  43.8104248   6.3639898  57.0497932  43.4911804
  71.4303894   9.8008471  85.3552246  71.0386887   9.1066751  85.8852463
  71.5018692   9.4218712  84.4791565  71.5942841  62.1767807   5.6786981
  71.3978653  61.2400055   5.6891623  72.3701019  62.2526436   5.1231937
  64.3540497  32.8959122  62.7947769  65.0169220  33.5770226  62.9084587
  64.6184235  32.4348946  61.9986610  39.7476234  55.2918854  18.1580524
  39.0297318  55.9231453  18.2067699  40.5401611  55.8280525  18.1834087
  40.7680931  43.1573677  34.9223595  39.9134865  43.5832253  34.8550797
  40.5838699  42.3149529  35.3378448  11.2861223  44.1973953  63.6572723
  10.6653595  43.5589409  64.0083618  11.0487728  45.0212784  64.0828400
  35.4832687  59.0857391  53.1014519  34.9252739  58.4866142  52.6055527
  35.3198204  59.9441032  52.7106476  84.4145050  37.1199799  50.6191978
  85.2291183  37.6224480  50.6063728  84.3456726  36.7528114  49.7379036
  24.2441673  59.8661728  26.3934956  24.0367603  59.8413467  27.3276253
  23.5972424  60.4649048  26.0203438  74.3802109   2.2343683   8.0751076
  73.4740067   2.0348704   7.8400917  74.6874542   1.4508115   8.5310345
  38.1436043  28.6751575  74.8227310  39.0429420  29.0024719  74.8057861
  37.7322922  29.0649166  74.0512772  56.1849594  54.7004128  46.8238182
  55.3182526  54.8131752  46.4335175  56.7401810  55.3265724  46.3591805
  67.0194855  60.4493942  31.1683006  66.9317322  60.3778458  30.2178211
  66.5923157  61.2777100  31.3865929  23.2604580  65.7529526   6.7219644
  22.7442417  66.2288742   6.0713868  24.1700363  65.9234924   6.4773903
  67.9363174  34.3893776  67.3942261  67.0816498  34.0581245  67.1184845
  68.5496902  34.0346336  66.7506638  61.0992470  10.6373005   6.6792555
  61.9883347  10.9067144   6.9098325  60.9949150  10.9106493   5.7678676
  85.1510391   7.6124921  76.0995941  86.0913773   7.4390459  76.0559158
  84.9237671   7.4707155  77.0185547  56.2115860  27.8644047  51.7961769
  55.9202957  28.6670341  52.2288055  55.4215126  27.3282032  51.7290726
  42.0043221  15.2808609  78.1928787  41.6203003  15.4739676  79.0481415
  41.6227455  15.9337654  77.6060715  68.3899307  40.5278854  52.5272560
  68.1303329  40.9758606  51.7221718  69.3269501  40.3649139  52.4191971
  65.6512070   9.8573828  72.0517044  66.0474777   9.0100975  72.2549591
  65.9594193  10.4388523  72.7467804  32.0753441  47.8823624   3.4735100
  31.1993885  47.5070915   3.5635521  31.9283600  48.7414017   3.0776823
  54.7307968  31.4101067  68.6135101  54.1941948  32.0108070  68.0963593
  54.3800964  31.4796009  69.5014343  44.2149620  47.3308678  21.4189949
  43.9694061  46.4070930  21.3682766  44.6134071  47.5197754  20.5694160
  24.6519947   5.5431843   6.6830559  25.2361660   6.2897758   6.5504813
  23.8196774   5.8192058   6.2992702  45.2850227  15.8341846  18.6947575
  45.6069183  15.1628056  19.2963104  45.6408615  15.5826540  17.8425007
  43.8567085  20.1020641  12.2240953  43.0613060  20.5941048  12.4277182
  43.9338074  20.1549854  11.2714739  49.0729332  14.4788704  48.6901779
  49.7228584  13.8766546  49.0523415  48.8496780  14.1057835  47.8374176
  11.0717535  18.2588310  80.1778641  11.2334309  17.3577366  79.8983612
  10.1277990  18.2960377  80.3321304  59.2008057  24.3425694  64.1313019
  58.7867088  24.3632851  64.9940491  58.4714508  24.4004307  63.5141106
  83.5649719  19.7212639  84.1602173  84.0437698  19.0674381  83.6508102
  82.7723007  19.8886185  83.6504211  53.3774757  34.5936050  68.4705963
  54.1459312  34.9516754  68.0261917  53.0665665  33.8994026  67.8895187
   3.6709001  17.5234032  57.7511559   2.7710781  17.5291119  57.4247818
   3.8995993  16.5955944  57.8068428  79.1876526  24.5473232  86.5998306
  79.8917923  24.1742668  87.1301575  79.1008224  25.4467793  86.9155426
  29.0472813   2.0370345  15.7143078  29.3889828   1.2183121  15.3549128
  28.9368534   1.8608215  16.6486454  26.9775982  35.1352272   5.2006063
  26.7043514  34.6824188   5.9984365  27.3477440  35.9622040   5.5093703
   6.2448578  53.8365479  60.0590935   5.9652228  54.4033546  60.7779579
   6.0931201  54.3573914  59.2704697   0.4594070   6.7049127  47.3691025
   1.2663912   6.9324813  46.9073448  -0.2385796   7.0723834  46.8268738
  69.0912323  61.9581108  84.3766327  69.9581909  62.1838341  84.0394897
  69.2171936  61.8697128  85.3213806   2.9823165  41.0693512  10.2968407
   2.4113512  40.4853477  10.7960110   2.4307189  41.8235092  10.0889482
  62.0564804  10.0572386  52.5843506  62.4323997   9.2441759  52.2469444
  61.5050049   9.7805452  53.3161659  49.2828789  26.8065338  78.8411407
  48.7441940  26.0491943  79.0702438  49.7923317  26.9859486  79.6313934
  61.0805855  41.8827400  65.5517960  61.6929359  41.2007942  65.8278503
  61.5826225  42.4225807  64.9412537  59.5841446  68.3016586  19.2077904
  58.9782677  68.8093109  18.6679459  59.0800591  68.0814590  19.9911423
  78.3957825  54.4601250  12.8556900  77.6666183  54.1210785  12.3364563
  78.5511627  55.3375473  12.5060921  65.1862564  25.3920670  82.6012268
  65.1248627  26.1542454  82.0254288  65.9862671  24.9458828  82.3234787
  39.4368515  66.8499832  33.4881248  38.8793068  66.8990631  34.2646332
  39.9700737  67.6440277  33.5255547  61.3075867  54.6646881  85.6199036
  62.1866188  54.3344612  85.4342117  61.4267998  55.6062355  85.7444458
  57.6409798  64.9111786  17.1082745  57.4128227  65.3382568  17.9339752
  57.2772789  64.0292130  17.1862965  52.7163162  20.3658772  10.1220541
  52.3644562  19.4819202  10.0169477  53.5285149  20.3621616   9.6155472
  49.5483627   1.7654426  17.3749199  49.8619003   2.4064293  16.7369061
  48.9814034   1.1824994  16.8699780  40.2237625  29.7158718  67.4076233
  39.6195068  29.1132412  66.9740982  41.0916519  29.3521805  67.2323227
  62.7140198   0.4020341  87.1411209  61.9739380  -0.1800650  86.9688721
  62.3739967   1.0436388  87.7647858  86.0650558  29.8559437  48.2206879
  86.3933258  30.5847416  47.6940689  85.1334991  29.8060932  48.0063553
   1.8244203  65.2341461   5.6104269   1.7863023  66.0831604   5.1700168
   1.8138018  64.5943604   4.8985372  42.4853592  27.9108753  23.7192020
  41.7022781  27.4965286  23.3568039  42.3700447  28.8431053  23.5351315
  56.4777870  56.5389481  25.0754566  56.5082741  55.8421631  25.7310410
  55.6865654  57.0337563  25.2884521   3.0408907  29.2126579  78.2011795
   2.5874610  28.3702927  78.1686935   3.1234565  29.4043522  79.1353455
  13.9035425  40.6474457  46.8916130  13.5226688  40.1400528  47.6083527
  13.3014736  41.3818626  46.7717171   2.8657675  34.3107376  76.3628464
   3.2813842  34.2509460  75.5026627   3.1551948  35.1542664  76.7105789
  71.8413162  35.9063187  26.1157894  71.4496460  35.0329437  26.1092453
  72.0840759  36.0531006  27.0299854  64.2983627  47.3227196  64.0031891
  64.0738373  48.2531738  64.0117874  64.2071152  47.0458717  64.9149170
  77.1019592  19.1900806  36.4580803  77.7576599  18.8843288  35.8313408
  77.4766083  18.9866390  37.3150940  63.7687645  41.4942856  73.2117996
  64.5705261  41.3002090  73.6973343  64.0669174  41.6792412  72.3212204
  83.2385178  45.5134201  57.6887283  83.8480682  46.1061058  58.1285019
  82.3806839  45.9214554  57.8064957  74.5669479  67.8429031  58.9913177
  73.6282501  67.8027954  59.1742668  74.8168716  66.9346619  58.8214149
  50.1097946  47.6412201  13.3889017  49.2062187  47.8722076  13.6043711
  50.6417198  48.2196083  13.9354868  20.0766907  66.6267014  54.3886909
  19.8057594  66.3503036  55.2641487  20.5706043  65.8824310  54.0446892
  78.0561676  69.1798172  16.8823757  77.6420288  69.4481277  16.0621758
  77.6981277  69.7779465  17.5383377  80.6298141  17.2925758  17.8263779
  81.1599579  16.9615440  18.5513611  80.3078613  16.5058422  17.3863506
  63.8185692  51.3833427  81.5782166  63.9669075  51.3762398  82.5238266
  63.7990150  52.3116951  81.3458099  46.0260620  69.6835327  68.1928329
  45.2547569  69.1317215  68.3225327  45.8617134  70.4558792  68.7338562
  46.8442459  39.5328293  40.4323120  46.5569801  40.3455734  40.0161934
  47.1019325  39.7944107  41.3162804  80.3271255  69.6561356  21.3823891
  81.2449875  69.9275589  21.3728657  79.8517990  70.4063492  21.0253677
  29.3414173  42.5200424  69.1236877  30.1393414  42.6885071  69.6248550
  28.6529598  42.9738541  69.6098099  85.8595886  46.9669075  11.7866507
  86.1126328  46.8509789  10.8708115  85.2475433  47.7027664  11.7747278
  34.6290779   2.8437793  18.8169479  35.1277275   3.6579421  18.8856354
  33.8164520   3.0968492  18.3789673  43.4611816  70.5492706  29.0106449
  43.2286263  69.6877670  28.6642914  43.0988503  70.5570145  29.8965836
  12.6274757  30.2121029  13.2091866  13.0378313  29.4709930  13.6548281
  11.9214039  30.4832630  13.7958450  29.6365814  46.2597008  74.9953232
  29.4458351  45.5215378  75.5740814  28.9739933  46.2017822  74.3069534
   4.9555144   2.2244766  78.0736084   5.3646555   2.1610155  77.2105865
   4.3497844   1.4840453  78.1065369  37.4851875   0.8897189  44.3851013
  36.7369614   0.5166334  43.9190598  37.3679810   1.8365210  44.3072548
  24.4613514   5.7444100  18.1570969  23.8126507   5.7057753  18.8598976
  24.1286087   5.1432128  17.4907074  16.3684998   1.3148581  55.6298637
  15.8576965   2.0844600  55.3788185  15.7140760   0.6351208  55.7908554
  41.7944489  68.5177231  73.0249710  41.9274902  68.6320114  72.0839767
  42.2789612  69.2399368  73.4248276  52.0134506  27.4913025  52.0850143
  52.6183510  27.9711857  52.6507378  51.3313866  28.1273670  51.8695107
  22.8146591  38.8637772  55.1952400  23.5200405  39.0621681  54.5793571
  22.6730137  37.9217377  55.1017990  11.9829369  43.0030174   4.9349780
  11.0563583  43.2034721   4.8026867  12.2612162  42.6021690   4.1115007
  37.3126564  24.8183384  78.2331390  37.0402794  25.4971390  78.8506088
  37.5623779  25.2988033  77.4438171  51.4468307  50.1174202  51.9807663
  51.0606537  50.9476852  51.7019157  51.1965714  49.4954376  51.2975845
  69.1776733  33.4354897  69.5106735  68.7267303  33.7211571  68.7161484
  70.0859528  33.3066826  69.2374039  52.4770088  69.3353806  66.0442657
  52.1568489  68.5438385  65.6116180  53.2477226  69.0462723  66.5327759
  63.2782631  18.9686260  61.2105522  63.8403435  18.2384510  60.9514351
  63.1361809  18.8404102  62.1484261  28.6582508  64.1756210  47.8003464
  28.1229649  63.4323730  48.0783424  29.5418892  63.9589348  48.0977707
  70.9624405  61.1662636  53.0054703  70.7765732  60.2368469  52.8717918
  70.8164673  61.5654793  52.1478310  31.3285370  38.1469421  23.2516384
  31.2751217  37.3544579  23.7858181  30.8609505  37.9250031  22.4464436
  79.7797089  51.3773651   2.0180566  79.7611008  50.7534103   2.7437065
  80.5196533  51.0965729   1.4796553  65.2806244  33.3096352   8.3274136
  65.3592529  34.1804161   7.9378085  66.1721420  32.9613075   8.3172436
   8.7887239  44.7781029  43.0039825   9.1254826  45.2443314  42.2388306
   7.9260516  45.1630173  43.1584702  33.3343620  47.0916634  47.6666794
  33.3393173  46.6756363  46.8046303  32.4169273  47.0681572  47.9386978
  44.6578979  57.8821602  11.0717573  44.9522514  57.1832123  10.4877520
  44.3201294  58.5584908  10.4846325  61.0217972  18.3145657  43.5864639
  61.2876701  18.4498863  42.6769409  60.3571548  17.6271782  43.5419693
  71.4779739  55.3124313   6.4712105  71.5745163  54.4176102   6.1453247
  71.8390579  55.2849083   7.3572645  27.6585121  50.3904953  47.8058357
  28.1954155  50.1628151  48.5648689  28.2816467  50.4538040  47.0820084
  85.6887894  37.0478172  44.8452721  85.8376694  37.9592285  44.5934868
  86.3170853  36.8882065  45.5495491  17.0327721  41.1508942  43.8832550
  17.0027828  42.1069489  43.8473434  16.9373913  40.9430161  44.8127289
  44.5239410  48.2233353  16.2011032  44.3968010  48.5682869  15.3173180
  44.8520927  48.9686165  16.7041950  51.3451958   7.5270085  45.3221474
  50.9394455   7.8771133  44.5290375  52.1694450   7.1448398  45.0208282
  70.8162766  18.7688198  72.4447708  69.8865433  18.8322601  72.2261429
  70.9218597  19.3355827  73.2088852   8.1779060  34.3487434  34.4474564
   7.6111608  33.6144180  34.2112465   8.3807058  34.7726707  33.6135559
  64.8080444  16.2132454  13.5226440  64.9923019  15.2847261  13.3807507
  65.2304230  16.4164333  14.3572350  62.0369949  13.8117609  60.5824928
  62.2716942  14.4357443  61.2693672  61.2175446  13.4200144  60.8845978
  57.7856293  37.4332771  60.3511467  57.8539658  36.5630417  60.7438927
  56.8753815  37.4944916  60.0614319  53.4868317  53.8524666  39.8394852
  54.2961693  54.0845566  39.3841400  53.7791290  53.4322586  40.6483231
  46.2496529  25.8111382  35.7663765  45.9571495  25.1826382  35.1063271
  46.9199486  25.3420925  36.2632980   4.1163626  41.2728119  13.5027494
   4.7442188  41.9586449  13.2754612   3.2597289  41.6784363  13.3690472
   4.6288524  50.3449631  59.2741928   4.6734414  51.0606422  58.6401215
   3.7121584  50.3251991  59.5489922   6.3170962   2.3552547  50.1415939
   6.8667650   2.0085759  49.4388046   5.4954171   1.8703767  50.0643387
  60.5496521  42.7599411  13.2401924  60.4973946  43.7143097  13.1883926
  59.7769814  42.5047722  13.7442760  25.4982948  38.7271042  56.2745323
  26.0503750  39.0985565  56.9626198  25.9638252  37.9395485  55.9929810
  34.4230881  38.1918602  11.2848825  35.1617050  38.0761032  10.6871538
  33.6515617  38.1734009  10.7186327  24.4990501  61.5910835  84.4277878
  23.7308846  61.8932457  83.9431686  24.2541714  61.6860619  85.3482437
  36.4703407  62.0274544  79.1478882  36.5086060  61.2134590  78.6457138
  36.4227562  62.7160187  78.4846725  79.0378036  23.4568043  75.5200806
  78.1538849  23.6494808  75.8327942  79.0476837  22.5072269  75.3999329
  76.2815933  53.3670197  75.4249802  76.4360580  53.9556503  74.6861343
  75.3903656  53.5689888  75.7098541  45.3591537  35.8118248   9.3879442
  45.5735207  36.2885170   8.5860453  44.5486984  35.3466148   9.1806421
  79.0294266  51.0155907  43.2560844  78.2480850  50.5613403  43.5713463
  79.4062805  50.4215698  42.6069679   7.6020007  35.6166801  22.9253597
   8.2451115  35.2556343  22.3152084   6.7547321  35.4013329  22.5354977
  52.7417297  37.7520447  39.3253670  52.1579475  37.4944916  40.0388794
  52.1686516  38.1813393  38.6901360  41.5969086   3.7087219  80.8866577
  41.0881157   3.2431192  80.2229004  40.9735527   4.3176308  81.2827530
  46.3149223  60.8658333   4.3860931  47.2343788  60.6134911   4.4706850
  46.3169479  61.8171768   4.4918251  69.7813187  12.4979687  52.8990898
  69.9890747  11.6623745  53.3172417  70.6248245  12.9440126  52.8230591
  86.1980057  43.5564995  54.4404793  86.4396057  42.9399757  53.7492752
  87.0263596  43.7732811  54.8683395  80.0403595  64.1227951  75.6335449
  80.7151871  64.5760803  75.1281967  80.5284653  63.5527000  76.2276611
  84.8113480  19.5479965  63.1933289  84.2135849  19.4799194  63.9378281
  85.0229645  18.6410103  62.9723625  68.7577438  21.3020153  30.6903114
  69.2980804  21.8124371  31.2934151  69.2570877  21.2890396  29.8737831
   2.9043851  34.1305733  29.4600353   2.2401350  34.2977715  28.7914181
   2.7613330  34.8131027  30.1157188  77.6695328  63.2520790  68.0240784
  77.3737869  64.1401138  67.8236618  78.3716660  63.0858002  67.3951111
  56.3801231  60.4929543  51.9001923  56.3884811  60.1789513  50.9960022
  57.2994804  60.6673927  52.1016655  75.4508896   7.7818041  38.1266556
  76.3562546   7.6240301  37.8589706  75.1836395   6.9700027  38.5576859
   8.4935265  27.8284130  27.3247852   8.6059666  27.1261101  26.6841908
   7.5458293  27.8981991  27.4398174  65.6087036  10.1499109  51.4427261
  66.2057648  10.6563282  51.9934502  66.1662750   9.4926949  51.0262947
   0.5328898  52.8890381  18.2289162   0.0547778  53.6708870  17.9525967
  -0.1079413  52.3790283  18.7243538  34.1539726  54.9484138   4.8558159
  34.8744316  55.1139870   4.2477393  33.9023590  54.0403519   4.6874681
  55.0838699  30.9679661   1.8654172  55.1645355  31.7968826   2.3372490
  54.9910316  31.2229271   0.9474801  77.5099869  68.3173981  58.4198570
  76.6074982  68.4221725  58.7211266  77.8212814  69.2117538  58.2803650
  80.4092407  25.4003429  83.7337799  80.7469559  26.2957020  83.7564468
  79.6730042  25.4064960  84.3454514   4.5480576   5.2088013  12.7169886
   3.7743137   5.6281352  13.0934334   5.1310592   5.9353752  12.4969177
  70.3950195  60.7592773  25.7108002  69.6034470  60.4276161  26.1346455
  70.9168243  61.1207314  26.4272518  13.2630997  24.7097492  15.3629408
  12.6922503  24.3282452  16.0298862  12.6638603  25.0225601  14.6852293
  22.6653824  42.8478737  55.4223671  23.3928814  42.6592636  56.0151558
  23.0640316  43.3353500  54.7014809  85.2125244  33.1534882  23.3404331
  85.0212021  33.5304031  22.4816189  84.7834778  32.2979279  23.3274803
  57.9301453  44.9218063   1.7264522  57.5517159  45.6758156   2.1786623
  57.5796013  44.1625328   2.1921277  10.6510067  40.2148056  67.5795670
   9.9629230  39.5961227  67.8245239  11.1885729  39.7373314  66.9476929
   6.9445658  69.7212830  43.8744621   7.5491328  69.8864365  43.1509590
   7.3898473  70.0753860  44.6442490  34.1477089  71.6129303  67.5783005
  34.1373787  72.0422897  66.7228622  33.5321045  70.8854599  67.4886093
  54.2332077   9.6738157  65.8249893  54.5472336   9.1671085  66.5738983
  54.6808014  10.5164700  65.9013138  30.5828876  37.1157951  20.6674709
  30.3529205  36.1924324  20.7711506  31.4745827  37.1029549  20.3196983
  65.4632034  60.4778900  22.3648739  65.0989685  60.4875679  23.2500134
  65.0865479  61.2498436  21.9424343  63.6528511   8.3273983  36.7860603
  62.8387680   8.1094036  37.2399101  63.6341667   7.7942395  35.9913139
   6.3512731  30.8810120  68.2188187   5.6457162  31.3008442  67.7267151
   5.9266171  30.1528416  68.6723251  59.6339302  29.2937737  85.1339493
  59.1052208  28.9069424  84.4360580  59.3593750  28.8321991  85.9262924
  25.2309875  46.8389740  52.6367722  24.4535027  47.3774300  52.4890747
  25.7541275  47.3401680  53.2623596  57.2600937   8.5783691  49.7379227
  56.8743744   7.7248807  49.9354286  56.7383652   9.2001743  50.2452583
  58.0113144  39.1282806  70.6111298  58.6042023  38.4641418  70.2595139
  58.5795403  39.7190247  71.1054764  76.8041840  52.7390671  20.4834805
  76.2165527  52.2812157  21.0845604  76.7019730  52.2779617  19.6509132
  74.8442612  64.2046890  17.5678482  75.6080246  64.4215088  17.0331669
  75.0751038  63.3777313  17.9910355  85.7054520  71.5362854  70.7600479
  85.0397339  70.9608459  70.3833237  85.2066956  72.2402802  71.1746140
  23.6907024  21.6751976  19.0114346  24.5238667  21.7027836  19.4818668
  23.9351311  21.5095673  18.1009102  82.3265381  53.6789627  23.0542145
  81.5799408  53.4700089  23.6156120  82.0068512  54.3745499  22.4795933
  73.8284378  43.0625267  75.5428467  74.2024841  43.3036499  76.3903046
  74.3094711  43.5942459  74.9087219  20.4288731  58.9719734  66.3275757
  20.2238026  58.0608902  66.1175613  21.3847256  58.9984856  66.3708496
  75.3415451  44.1510086  86.6774216  75.5407791  44.1145477  85.7418976
  74.7444916  43.4173241  86.8239288  32.3201332   8.2871170  79.6534271
  31.5799198   8.3849277  80.2523804  31.9246712   8.0086737  78.8274002
  72.5383530  36.4227295  28.7288132  72.5040054  35.7366791  29.3954411
  73.1384964  37.0760918  29.0882187  86.1771698  63.9832916   6.9021292
  86.0645523  64.6857452   7.5425229  86.9281693  64.2572784   6.3756633
  46.1304626  49.0444374  48.2819824  46.0734596  48.5898819  47.4415283
  45.6258926  48.4980049  48.8845215  37.5470772  21.3138237  89.1707764
  37.5715828  20.8972759  88.3093109  36.8612251  20.8435555  89.6447830
  65.2455673  16.8323936  16.5732899  64.3083954  16.9634933  16.4292564
  65.6553268  17.6201763  16.2158966  69.7524185  15.8438110  35.1118736
  70.1059036  15.6652555  35.9833069  68.9002457  15.4079237  35.1051445
  65.7871780  56.1924477  34.2025490  66.3159103  55.5861053  34.7212296
  64.8887787  56.0359802  34.4934387  83.1262054  71.6293640  50.8699188
  82.6697922  70.7881088  50.8842049  83.5068207  71.6804962  49.9931335
  48.8179817  56.4358139  11.4996691  49.5227203  55.8208504  11.7031250
  48.9224930  56.6195221  10.5660963  18.4074135  63.4316139  10.9928246
  19.3207970  63.2055702  11.1685247  18.0508938  63.6703262  11.8484774
  37.9552231  70.5537720  13.3833389  38.4084015  71.2506409  12.9087505
  37.3924522  71.0145416  14.0056019  71.3481369  33.0962715  35.1936417
  72.0367355  33.7446022  35.3410645  70.9330673  32.9889107  36.0494537
  61.3101044  42.2784081  46.1344452  61.5379486  42.7600098  46.9296684
  62.1280746  41.8608170  45.8646851  82.7059937  44.4153900  63.7234573
  83.1092682  43.7987366  63.1124420  82.1905518  43.8654594  64.3134842
  11.4061251  49.5491829  17.2455559  10.5870905  49.0896149  17.0605927
  12.0801592  48.8725700  17.1815052  78.4553452  13.8148737  74.7817078
  78.4535751  12.9188061  74.4451218  77.5291595  14.0354633  74.8804626
   2.6240265  16.4961872  17.9338436   3.5498445  16.7391605  17.9262886
   2.2045076  17.1678638  18.4715099  25.3236351  32.6251183  88.9641876
  24.7111969  33.2842102  89.2909164  26.1371670  33.1070251  88.8153076
  42.6568489  53.6589699  53.8569984  43.5239830  53.9653397  53.5915756
  42.3813362  53.0769157  53.1488037   7.5557475  19.1712933  67.7237778
   8.4937220  19.0824623  67.5548248   7.3557200  20.0785255  67.4932251
   0.9720381  51.4330750  87.5156403   1.8545800  51.5778427  87.8568039
   0.9167292  51.9998093  86.7462311  78.6548386  16.3879433  28.5114479
  79.0885620  15.5346775  28.5041656  78.4294052  16.5341969  29.4301529
   2.9460797  61.5184250  51.9689941   3.5373807  60.8775253  51.5742226
   3.5100901  62.2587852  52.1925812  75.3357086  69.1928101   5.5799704
  74.9367676  69.8709259   5.0347714  74.5931320  68.7262802   5.9635878
  35.5429916  47.6421051  23.8944569  34.7223129  48.1343422  23.9149132
  36.1668625  48.1970520  24.3624897  85.5084991   4.2800756  16.6520538
  85.0003891   3.4710524  16.5925674  84.8706207   4.9450178  16.9112701
  19.9334717  63.0522537  56.7905922  19.5889282  62.4821129  57.4779472
  19.9544907  63.9222450  57.1892204  35.8359528  33.6801758  26.9661789
  36.3606415  32.8797760  26.9490471  36.2591476  34.2576256  26.3308144
   3.8744485  13.0526838  88.4397125   3.9710348  12.1841755  88.0490799
   4.1621056  13.6565952  87.7550430  18.1589546  61.8191643  32.1279373
  17.7597237  62.6878357  32.1754417  17.4167442  61.2170029  32.0754242
  81.3577957  30.9096222  15.1816053  81.6981659  31.2075558  16.0251789
  80.6402206  31.5123215  14.9865036   5.3930159  39.8487854  15.4296856
   6.2338467  40.2311096  15.6808090   5.1840720  40.2596703  14.5907898
  37.1365700  54.7315826  69.6347504  36.8721237  54.1607475  70.3561707
  37.7403984  55.3579216  70.0339050   6.3413510   9.9610395  15.1325912
   7.0450373  10.3325891  15.6645765   6.5245862   9.0216999  15.1153183
  83.0866241   1.4122934  62.3669090  83.3687744   0.9883697  63.1774101
  83.5511475   0.9405546  61.6755981  72.1653595  57.1253815  83.6500320
  71.3128204  57.1558266  83.2158890  72.6556244  57.8524666  83.2663345
   9.6011496  46.5112915  47.8370018   9.9770994  45.7340622  48.2502975
   8.6556664  46.4043198  47.9411774  44.7532310  68.7089767  32.7120628
  44.7968636  69.4697495  32.1327972  45.4495163  68.8552551  33.3523941
  64.2901459  28.3424168  89.2327728  63.3968277  28.6844940  89.1981583
  64.4862213  28.0928802  88.3297119  84.5400391  65.5923691  68.3768387
  83.8431015  65.7413864  69.0158234  84.6504745  66.4376068  67.9413910
  11.2379007  58.6283760  64.4691010  11.5424490  58.1945076  63.6720848
  10.7296705  57.9588585  64.9270172  44.1786461   4.5042233  87.0595169
  44.8924789   4.1939149  86.5024033  44.6096725   5.0420585  87.7237320
  12.2370520  35.3986893  23.6396198  12.0557756  34.5394897  23.2586403
  13.1511717  35.3487244  23.9191189  10.2053452   2.7043672   8.8369751
   9.4549980   3.2947001   8.9056616  10.9232025   3.2631049   8.5391073
  17.2616806  35.6270409  77.3915939  17.3865604  36.0082550  78.2606812
  16.7940178  34.8078651  77.5543213  50.4066811  52.4233856  67.1362762
  51.3469734  52.2645226  67.0535583  50.3288994  53.3756218  67.1948700
  73.1127319  59.5885773  44.2832985  73.4075470  59.9159164  45.1330986
  72.9931412  60.3756447  43.7518311  69.2261505   1.4555327  78.1565399
  69.7815323   0.7293895  78.4402542  69.5451050   2.2091928  78.6530228
  69.0161133  28.7758980  56.0259438  68.7908554  29.6892090  55.8488808
  69.7311630  28.8242474  56.6604576  75.3815155  26.9099503  40.4077454
  76.3207626  27.0929108  40.3839073  75.2335052  26.5295353  41.2735481
  60.8602943  42.7358170  32.0764236  61.8014145  42.6148720  32.2025146
  60.5333595  42.9877586  32.9400635  68.6954498  22.7469006  75.1417694
  68.6696854  22.8057556  76.0968094  68.3289337  23.5782776  74.8405914
  72.5857315  38.9908714  32.3916359  71.6487961  39.0681000  32.2115593
  72.7699432  39.6982155  33.0096703  22.2333202  71.3591537  25.7151699
  22.5176010  71.1332474  26.6008224  21.5865288  72.0534592  25.8410206
  74.1361618  64.3168030  86.6277695  74.2448425  64.3106079  85.6767807
  73.4469452  64.9619446  86.7858810   2.5049870  22.2328053  80.6322250
   1.9025339  21.5227890  80.4105072   3.2474399  22.1104736  80.0405960
  44.0570717  54.7762794  19.1531544  43.1570168  54.9494400  19.4290943
  44.0459824  53.8659935  18.8573742  53.8324852  50.6847572  14.9669552
  54.7011909  50.2842369  14.9327803  53.9560051  51.4809685  15.4836960
  70.9459991  45.9025345   5.0673375  71.7720261  45.5334969   5.3799448
  70.2968979  45.2220650   5.2458220  76.0079193  25.9304981  69.5865402
  75.6621704  25.3634415  68.8972397  76.8952942  26.1442013  69.2982254
  86.3372345  22.1590462  87.7001190  86.3437729  23.1126347  87.6173096
  87.2554245  21.9044094  87.6088867  31.8558559  34.0972290  20.7084465
  32.4414215  33.9865532  19.9593830  32.2764130  33.6079826  21.4155579
  37.1024857   7.7573857  86.6206131  36.3641205   8.1841383  86.1859436
  37.8759079   8.1907578  86.2597198  71.5425797  44.2857323  20.1530361
  72.0372238  43.8509369  19.4584064  71.8974762  45.1743126  20.1796093
  62.5278320  30.3731861  66.2779388  62.2637520  31.0170574  65.6207352
  62.6945610  30.8900471  67.0661621   9.7463779  26.4720726  73.1934052
  10.3645220  27.1818752  73.0193024  10.1591101  25.9602814  73.8890686
  44.7373962  52.6424942  12.9957390  43.9830360  53.1350098  12.6723156
  45.4639511  52.9251022  12.4403276  82.8867188  51.4360008   0.3810458
  83.2991486  51.0626640  -0.3978987  83.3028641  52.2916412   0.4856093
  14.9662676  39.5567131  10.2916088  15.3934107  39.7704124  11.1211357
  15.6370449  39.7184181   9.6281776  85.7229004  12.0326109  12.7197084
  85.9446945  12.0501385  11.7887220  84.9289017  11.5000916  12.7667847
  63.2069206  63.9253731  70.2635040  63.6706848  63.3338432  70.8561707
  63.8480873  64.6039886  70.0522690  46.1119461   4.8273802  19.9206944
  46.0183029   5.3805828  19.1451759  45.2289925   4.7767839  20.2868404
  62.4987144  49.0753555  49.4773064  62.0561218  49.4182014  48.7009048
  63.2863579  48.6515007  49.1364250  44.4151344  49.3670731  82.5135880
  43.6272850  49.3233566  81.9717331  44.1706963  49.9321442  83.2465134
  12.2947760  39.5833931   9.1542044  12.0172749  38.6722870   9.0587664
  13.1485195  39.5299988   9.5837412  48.7335167  38.2442474  59.1841278
  49.3125076  38.6239853  58.5232201  48.1103210  37.7183151  58.6828766
  49.9780998  50.8768539  69.7214890  49.2641945  50.2664490  69.5371475
  50.1824951  51.2696724  68.8728714  65.0460587  69.9360962  64.7649918
  64.9536819  70.8839722  64.8610382  64.1467819  69.6107712  64.7237091
  16.3349285   5.1416740   4.5676231  16.7972431   5.8482080   4.1167259
  15.5518904   4.9915414   4.0379610  71.0633316  12.0315237   0.8750136
  70.7987595  12.0376921  -0.0448756  71.7804718  12.6637564   0.9222229
  56.7742882   2.8703570  38.2030067  55.8461914   3.0116906  38.3897972
  56.7815704   2.3910844  37.3744659  64.3264160  29.6482964  40.3626060
  64.5210114  29.9671555  39.4813042  64.7299652  30.2920818  40.9447746
  72.8183746  70.2585144  19.8478031  71.9593124  70.1882858  20.2641182
  73.1811905  71.0780029  20.1840134  58.5487213   3.5852380  48.4013329
  58.2608604   3.0308034  49.1265717  57.7471771   3.7793174  47.9154396
  74.0575409  15.5167370  36.6039352  74.3931885  16.2988930  36.1659813
  73.2553406  15.8098679  37.0361252  66.2192459   1.5706954  47.9743080
  65.8635864   2.3038073  47.4720306  67.1431656   1.5363816  47.7264442
  30.4771309  71.2368774  28.8136902  29.8716984  71.5447159  29.4881668
  30.2025127  71.6938477  28.0187092  47.5790291  43.3882484  87.0235443
  46.8470116  43.5977478  87.6036224  48.3249702  43.2713165  87.6118698
  86.3820953  39.5380402  69.8664627  86.1192245  38.7651520  69.3666840
  85.7188644  40.1956787  69.6570129  40.1534996  14.8161516  18.6919498
  40.6396484  14.2570486  18.0859032  39.3558464  15.0481319  18.2163754
  37.4291344  42.8609924  69.4822693  38.1158524  43.4750175  69.2222290
  37.1140366  42.4908104  68.6577072  56.5171814  42.9353523  75.0875168
  55.5939636  42.7312431  75.2366486  56.6276932  42.8658829  74.1392593
  75.8292999  68.7908630  65.0534592  75.1154404  68.8211060  64.4164963
  75.5658798  68.1135635  65.6764450  48.4351730  67.9185257  78.1081238
  48.8915939  67.7640457  77.2810593  48.0062294  67.0855789  78.3041840
  18.1824551   0.7226533   7.9126377  19.0103226   0.7349318   8.3929644
  17.9300499   1.6436269   7.8468275  53.1666527  66.5503159   5.4633865
  53.4491882  67.1041870   4.7356286  53.6977692  65.7581787   5.3817334
  82.1753616  16.0777340  70.8398819  81.3726959  16.5279312  70.5766754
  82.4539185  15.6061602  70.0548630  82.5232925  39.2309151  15.6007195
  82.1798019  38.7689590  16.3654709  81.9746399  38.9335899  14.8749037
  57.3471184  24.4310074  62.2160950  57.3058624  23.4771881  62.1471252
  58.1679611  24.6671104  61.7840004  59.2659492   7.0337601  63.6133003
  58.6376228   7.7364111  63.4468079  58.7767220   6.3919754  64.1280823
  32.2447357  70.2651215  36.7150421  31.5073357  70.8248978  36.4718819
  33.0101318  70.8364716  36.6520424  61.9027977  63.1268578  67.6406631
  61.8933296  64.0361252  67.3417053  62.3581238  63.1561241  68.4821243
   3.9610407  31.7090073  78.6054916   3.1736040  32.1381645  78.9401550
   3.6366751  30.9245205  78.1632233  68.8684540  14.9390039  25.2174187
  69.4431915  14.3642302  24.7119026  68.1332932  15.1183128  24.6312351
   6.0848999  37.2810898  43.1394882   6.8468261  37.5246658  42.6137810
   6.3181987  36.4351082  43.5217438  48.3288078  32.6938324   1.9515542
  47.8823662  33.4209061   2.3854711  47.6455688  32.2679787   1.4338034
  81.0240631  35.5992699  17.4143600  81.1541214  34.8265457  16.8646202
  81.2539062  35.3071136  18.2964306  44.6617851  41.7095299  36.7399559
  44.2528801  41.3744049  35.9420090  44.3825989  42.6239357  36.7862968
  66.2589798  33.2547722  13.1035671  66.9077606  32.8530464  12.5256977
  66.6831360  34.0512733  13.4227953  83.4271393   7.6302357  11.5691576
  83.1585388   7.0712633  10.8400259  83.6227112   7.0194788  12.2797632
  40.8461876  64.2641373  52.8117638  41.1920967  63.6187668  52.1952591
  40.1679802  64.7263794  52.3192177  81.6917572  28.3714752   7.5815907
  81.6271896  27.6528473   8.2105875  80.7879791  28.6595592   7.4534607
  18.8875179  31.1496487   1.0505214  19.7653046  30.7831059   1.1571407
  18.9584923  32.0429535   1.3869804  23.1064396  18.2655392  68.5069580
  23.9638100  18.1596375  68.0947266  23.2132187  17.8910904  69.3813858
  11.3140678  40.1176338  43.6066322  10.8053722  40.1202126  44.4174690
  10.7618237  40.5797005  42.9759560  69.8783035  43.8392792  83.4484558
  70.3087387  44.4513016  84.0454407  70.2551575  42.9868584  83.6665955
  20.5218830  14.7258377   1.0250831  20.8967266  14.6493301   0.1476604
  21.1227760  14.2352352   1.5858576   1.9452056  43.0500336  47.4541092
   1.5841475  42.2765160  47.0210495   1.3568600  43.7619095  47.2024918
  50.0659828  29.9396400  84.6096802  49.2828369  30.3777428  84.9428253
  49.9038162  29.0090065  84.7641296  28.8341389  67.5278244  63.9553528
  28.2998142  67.0619965  63.3121300  28.2002296  67.9034729  64.5663147
  53.5020561  40.0747910  46.3109779  52.5990181  39.7790985  46.1955719
  53.5498085  40.8955917  45.8208351  59.7117920  68.0557022  55.7320595
  59.4878387  68.9856262  55.6957664  59.6356010  67.7554703  54.8263626
  60.5348473  55.6559868  24.8520947  61.3449173  55.4012184  24.4103775
  60.6916351  55.4548035  25.7746849   7.4529781  58.2299385  52.7901535
   6.9229670  57.5392036  53.1879005   8.3215494  58.1178398  53.1764793
  63.1129379  19.5223427  37.3291321  64.0023422  19.4736958  37.6795921
  62.7547836  20.3306141  37.6960869  16.8471069  36.8607750  70.0221252
  16.6484966  36.0532227  69.5481567  17.7981434  36.8475990  70.1297531
  74.4277420  45.3031807  38.8463326  73.8395538  45.8516884  39.3653717
  74.2745056  45.5766945  37.9419327  32.6346397  62.9810867  31.9243736
  33.2862167  62.3663712  31.5870323  32.4950943  63.5996284  31.2073193
   1.8361783  10.1481724  19.3892136   2.3868172  10.9024763  19.1793251
   1.2502344  10.0627069  18.6371517   5.5912657  42.7127380  43.0674629
   4.7614064  42.2777481  42.8716316   5.3604064  43.6366196  43.1642952
  68.1501617  35.6288681  42.2917976  67.4270401  35.5032654  42.9062424
  68.7002716  36.2959366  42.7024460  69.1800537  38.0428352  44.7049446
  68.4141159  38.3980865  45.1559029  69.7902451  37.8204689  45.4081230
  12.9080706  63.7272873  29.8753223  12.3904963  64.2981033  30.4432297
  12.5323181  63.8519936  29.0038357  78.4632645   0.6866978  67.7093124
  77.8975449   1.3767155  68.0558167  77.8633270   0.0814981  67.2733688
  82.6690598  19.8289661  87.0634537  82.9417877  20.1824608  86.2167587
  83.3899384  19.2574024  87.3277969  75.3317719  24.3087025  36.4108200
  74.7298813  24.6007919  37.0953979  75.5152435  25.0975628  35.9006577
  14.9072781  30.7977753  58.0974045  15.1782675  31.3991680  57.4037743
  14.2222919  30.2627506  57.6964378   4.7104421  71.0433197  10.0561399
   4.3824801  70.4728165   9.3610106   3.9402070  71.5295944  10.3502531
  41.4397202  39.6430054  30.9748459  41.0913963  38.8560753  30.5557461
  41.3077011  39.4941292  31.9111366  52.9515533  10.6380405  23.6779270
  52.3690491  10.5068903  24.4260693  53.4117508   9.8040428  23.5835972
   5.9629121   8.4701862  28.4716148   5.7032404   7.5547991  28.5758686
   6.5748568   8.6289005  29.1903400  72.2381210  59.1176491  67.5405807
  71.6171646  59.8459473  67.5557556  71.7907028  58.4116707  68.0071030
  67.5996857  16.4054718   0.7039060  67.9494019  15.6875372   0.1761762
  67.8266602  16.1734486   1.6043949  38.0090752  67.1182632  25.0416241
  38.3794022  67.7724075  24.4490108  38.5830078  66.3579636  24.9479027
  70.2211685   0.4014580  56.7993889  69.8784485   0.9829218  56.1206589
  71.1717224   0.4474353  56.6965866  17.2691078  46.8699570  71.0555573
  17.3045864  47.7228699  71.4885788  17.8943005  46.3297844  71.5388565
  19.3661060  20.4802094  10.5669651  20.0534077  20.8350906  10.0031309
  18.5866470  20.9889278  10.3436222  36.4395561  17.4090214  74.4949646
  36.2210732  18.0833187  75.1382523  35.6293488  16.9112911  74.3851318
  37.5544853  59.2152023  83.2667770  38.1142502  58.7203522  83.8651199
  38.1554260  59.5591202  82.6058502  78.7811356  15.7950411  24.6196251
  78.1263504  15.0986795  24.5689888  78.6895752  16.1459503  25.5054646
  49.9291840   5.5323472  69.1658936  50.1942482   4.6741443  69.4967422
  49.4485397   5.3405976  68.3606339  26.1092377  24.1609936  17.7230778
  25.3401756  23.5940838  17.7812881  26.1398182  24.6106224  18.5675488
   3.5632491  42.2757835  30.8562241   2.7901170  42.3163300  30.2933254
   3.2298985  41.9684410  31.6992226  49.1445427  62.0323982  44.6047325
  49.7287712  62.0580864  43.8469429  49.7253723  61.8785858  45.3498573
  39.4862251  42.3431015  73.6651993  38.5360489  42.2364082  73.7100601
  39.6242561  42.9606705  72.9470215  40.9546585   9.7791739  88.2549133
  41.8007431   9.9024410  87.8245926  41.0147438   8.9129190  88.6576843
   3.0845768  19.7754498  86.9056931   2.7128699  19.7961674  86.0238571
   3.0266969  20.6806908  87.2113419  10.2954874  66.0780487   0.1133378
  10.6541500  66.5523148   0.8634439  10.9007492  65.3486862  -0.0205531
  51.3883972   1.7718863  40.5735130  51.7726631   1.8403077  41.4475212
  51.1961594   2.6760371  40.3249435  14.0178232  65.5959549   8.8373547
  14.6806412  64.9223404   8.9894981  13.6570549  65.7773285   9.7052155
  37.3698730  30.8807964  11.3261480  37.3443375  30.8291721  12.2816143
  36.4538727  30.9812813  11.0671530  68.5534821  28.8804226  64.4143677
  68.1566544  28.6598396  63.5716934  69.3562775  29.3489227  64.1857376
  38.6414490  46.2769737  23.4700966  38.6084480  46.3250046  22.5146732
  37.9157982  46.8283005  23.7628365  16.5277901  67.3056717  33.9761391
  16.3017063  67.4117203  34.9001884  16.1067638  68.0464554  33.5400124
  61.3604164  67.5167389  23.2059078  60.6605606  66.9766083  22.8389053
  61.3477898  68.3156662  22.6788502  42.5207253  39.0700226  39.7422867
  42.4059601  39.5233994  38.9071159  42.1550446  39.6697044  40.3925858
  80.7116699  15.7258825  61.2832832  81.3802261  16.3522701  61.0059624
  80.6695404  15.0890255  60.5699310  29.8208866  26.0101566  74.0254669
  30.1561737  25.1243286  73.8871918  30.5133247  26.4547253  74.5144653
  76.5348129  54.2115555  80.7209930  76.6060944  54.3235512  81.6689377
  76.4335022  55.1008492  80.3816910  15.6269932  64.2958374  52.4775658
  14.9864006  64.0600891  53.1486053  15.2610083  65.0758362  52.0605659
  66.4225540  64.7410965  36.6799355  66.2802505  63.8397827  36.3907814
  65.8982315  64.8226700  37.4765892  51.4370117  52.6428413  54.1335258
  51.4416161  52.8835297  55.0599594  52.3327103  52.3555717  53.9562454
  85.4804306  24.9336224  56.3522301  85.8302002  24.6790428  57.2060928
  85.3093796  25.8718967  56.4335518  77.6384811  30.0112343  83.4827271
  78.2543411  30.3278580  84.1435547  77.1945038  29.2744598  83.9025803
  50.0527496  52.3929329  21.5616837  50.5828133  52.1911316  20.7906189
  49.4790230  53.1048050  21.2783012   2.5501382  27.4594975  41.7208519
   3.1930056  26.8399220  42.0659332   2.7778513  28.2940350  42.1306381
  26.6503010  10.9804869  67.1447220  27.5338326  10.8939781  67.5026627
  26.7219200  10.6527519  66.2482300   4.3410563  22.0848541  60.3472061
   4.2268434  21.1537037  60.1570892   3.6718702  22.2791576  61.0034599
  20.2947960  55.3209839   6.4414434  21.0462036  54.8582649   6.0706205
  19.5334816  54.9007607   6.0413866  31.9824677  67.1684875  38.1388779
  31.3274975  67.7189102  38.5681496  31.5016651  66.7247391  37.4402046
  18.9109077  47.0664139  20.9733238  19.6466789  47.5298996  20.5732574
  18.9166393  46.2040825  20.5578957  70.3013916  50.6818619  21.2586670
  70.7278366  51.5380898  21.2233410  71.0098495  50.0694237  21.4567471
  17.8118057  68.1166229  23.3341160  18.4827290  67.9269409  23.9899464
  17.4948349  68.9906998  23.5616093  77.1309738   5.7069364  71.0237198
  76.7456970   4.8372431  70.9168243  76.4670792   6.2061939  71.4993439
  61.5806160  61.7142181  22.8382111  61.4832268  62.6664505  22.8360481
  61.9803162  61.5162621  23.6851368  56.2933273  33.5774345   5.8831248
  56.8913345  33.1338997   5.2815452  55.5876350  33.9017448   5.3236132
  53.1167984  49.3582687  85.7284088  52.2307053  49.3078842  86.0869217
  53.1601143  50.2216110  85.3173218  48.0185852  30.8266525  14.5036983
  47.4586716  30.4664879  13.8159389  48.4824944  30.0675316  14.8569031
  40.1031952  19.9991302   2.1954954  39.7194557  20.6788387   2.7495472
  39.4951096  19.2630405   2.2635725  57.6495857  53.4365234   2.1118660
  56.8377457  53.6375771   1.6463288  58.2315865  54.1678276   1.9052233
  60.0695457  32.9209938  63.4903526  59.9894753  31.9782543  63.3452263
  60.7821655  33.0061531  64.1237183  58.5637321  66.8074951  40.4226112
  58.0138206  66.1450424  40.0043030  59.1960335  66.3045654  40.9359169
  78.4392700  36.2052498  63.1110039  78.1935959  35.3853035  62.6825638
  79.3958435  36.2155762  63.0778313  49.5618706  43.3897324  32.0329628
  49.0120239  44.1713715  32.0872421  50.3669090  43.6309090  32.4911995
  38.8091087  64.1400909  20.3481236  38.6861267  63.6436195  19.5390358
  37.9400139  64.4859085  20.5513840  42.8711929  58.2917976   1.4064121
  43.6066093  57.7223053   1.1804217  43.2485504  58.9501343   1.9898704
  33.1180458  46.5277977  74.3449402  32.5916710  47.3078957  74.1699905
  32.9937630  45.9767532  73.5721893  20.2679615   7.6151738  59.0328369
  21.0498257   7.0990858  58.8364334  19.5438652   7.0949302  58.6846123
  85.9987335  42.2219238  86.0398483  85.3454895  41.5513687  86.2394867
  85.7620697  42.5343895  85.1665878  57.7973022   1.3225894   5.0552058
  56.9133339   1.0055240   4.8700004  57.7941284   1.5057167   5.9947195
  12.0770330  55.0376282  85.6659622  12.4277334  55.4379692  84.8703690
  12.4710016  55.5388222  86.3799820  41.2257538  59.2180176  83.8266602
  40.9473572  60.0814400  84.1319962  41.6972237  59.3925591  83.0121155
  81.1275330  58.1020279  65.4897690  81.9205475  57.9508057  64.9754715
  80.4204330  58.1042137  64.8446045  57.7897606  14.8836737  18.4261723
  57.6001129  14.2295265  19.0987453  58.4444275  14.4676685  17.8652935
  76.2288208  18.1290417  62.4309692  76.3159943  17.3284245  61.9136238
  76.0795746  18.8177433  61.7831688  52.7032890   5.8759489   6.5316124
  52.3750000   5.1224284   7.0221896  52.2577629   5.8237872   5.6860251
  31.7029018  67.4681244  25.2525654  31.3990059  68.3014679  24.8928204
  30.9489861  66.8837357  25.1729946  23.6780643  65.7294617   9.5556393
  23.5010300  65.9372787   8.6381950  24.1777840  64.9136581   9.5243101
  19.4869061  54.1932182  83.8460464  18.7425213  53.8110733  83.3811951
  20.2417889  53.6861496  83.5472641  40.3777122  50.6550751  65.1682892
  40.8464088  51.4626846  65.3788147  40.2897491  50.6706772  64.2152634
  -0.1034539  29.5205708  22.6908913   0.6366490  29.0826454  22.2705345
  -0.0832036  29.2095757  23.5959339  66.5834274  62.6499557  33.0814934
  65.8427811  63.2510376  33.0016479  66.6537857  62.4800186  34.0208549
   7.9992104  59.2343864  80.1031036   8.1056242  58.3106155  79.8760452
   8.8224497  59.6431046  79.8357925  12.1369991  42.4133453  67.2740784
  11.4343939  41.7895775  67.4570770  12.6927643  41.9673767  66.6349564
  60.6766396  43.7895851  41.0878792  60.5502815  43.3861656  41.9466667
  61.2319031  44.5500679  41.2598610  48.7462883   8.9208307  53.9449463
  48.2754593   8.1490583  53.6304283  49.1539497   8.6359005  54.7627831
  23.4271107  44.6864243  28.0944767  23.5421257  45.1256409  28.9371452
  23.4253635  45.3964729  27.4525585   8.0106049  43.3578148  51.9182358
   8.2388525  44.2464066  51.6452179   8.8472672  42.8936920  51.9468498
  39.0495605  18.3733196  74.8023453  39.2512817  19.2545815  74.4878387
  38.2093048  18.1605663  74.3962250  62.3955460  55.0707626  49.1936684
  62.7135887  55.4979439  49.9890289  61.4487000  55.2103195  49.2090836
  45.0937920  42.1268425  19.8258648  45.1104126  41.7616959  18.9412060
  45.2388229  41.3737259  20.3985920  19.4718666  68.9283981  27.8209972
  19.7915726  69.0334167  26.9249001  18.5552692  68.6718216  27.7197514
  38.7083702   0.2501418  40.6353035  38.9039497   1.1562233  40.3965645
  37.7522354   0.2058350  40.6441574   9.2409401  42.5843887  64.7596817
   8.9024372  42.7453651  65.6404419   8.5158234  42.1638069  64.2975693
  63.0483665  20.0859890  32.3681526  62.9653702  20.0785046  31.4145889
  62.8443947  20.9868622  32.6192627  53.7681122  64.7950439  76.3895950
  53.9332695  65.5014343  75.7651215  54.0520515  65.1491241  77.2323532
  57.7955132  19.3347759  22.9964333  58.7274857  19.3687325  22.7807808
  57.7685356  18.9885979  23.8884354  66.2732849  42.5661545  48.3884010
  65.7853775  42.1933670  49.1227112  67.1925812  42.4591217  48.6326714
  86.8419189  53.3647346  29.9396706  86.3185196  53.5976372  30.7065086
  86.2994995  53.6192245  29.1931820   8.9324303  67.2230530  10.2119532
   9.3965559  68.0568542  10.1371479   8.0246582  67.4693222  10.3895245
  64.6716309  49.6225204  27.8664894  63.8889389  50.1399155  27.6769371
  64.4037704  48.7169533  27.7101955  84.5606308   2.6943216  72.3785553
  84.9237213   3.1866159  71.6423187  83.6124649   2.7821679  72.2810745
  63.7858200  20.5961571  76.2940979  64.2554245  19.7639980  76.3508224
  64.0878220  21.0938778  77.0538940  62.4312553  59.2688637  26.0339413
  62.8756523  58.7635460  25.3532085  61.5310402  58.9436684  26.0244484
  23.8011074  50.1846008  25.8663788  23.5184326  49.8230782  26.7063942
  23.8057594  51.1320229  26.0027714  43.3855743  30.1701775  54.7674065
  44.0681190  30.5589523  54.2203979  42.6224556  30.7323647  54.6338882
  70.8323212  55.3186913  39.0815544  71.1990433  55.7320023  38.2999382
  70.8611298  54.3808022  38.8924408  35.1351395  40.4657593  83.2395020
  35.2462616  40.6919289  84.1629333  35.9100380  40.8274040  82.8094101
  74.4409027  49.8037415  35.1627693  74.3185349  49.0795670  34.5489044
  74.1901245  50.5830917  34.6668282  47.8015633  21.5165482  30.1626682
  48.2108574  20.9521332  30.8185234  46.8614807  21.3892517  30.2902279
  62.3914032  51.0722389  71.6573715  62.4905853  50.1202888  71.6438065
  63.2129402  51.4038315  71.2949295  66.2021027  47.8747787  25.7738113
  66.9292526  48.4795265  25.9213448  65.6074753  48.3518715  25.1949940
   6.0331964   1.8194309  43.7019119   5.5889707   2.6590142  43.5836105
   5.9013872   1.6068126  44.6258469  82.4933548  55.1830292  27.1388702
  82.7497711  55.6326180  26.3336639  81.5369644  55.1607208  27.1065788
  61.4918060  62.7316322  61.8578911  60.7585716  63.2771606  62.1424904
  61.0999107  62.0983429  61.2565613  56.4967575  10.8604956  79.6006775
  55.6978874  10.8878632  80.1272507  56.5839348  11.7474442  79.2514572
  61.7819290  53.0836716  41.7904129  61.9953461  52.3242455  41.2482338
  61.4835243  53.7463989  41.1675301  34.4061508  62.1707039  39.7182083
  34.6631165  63.0485687  39.4361534  33.8711777  62.3168144  40.4983940
  74.1253815  20.0854931  83.3199768  73.6608276  19.9073009  84.1376953
  73.5314941  19.7779255  82.6351929  15.0177689  32.6848145  15.8711586
  15.2876034  33.4456711  15.3568420  15.1171379  31.9440289  15.2731667
  86.2571716  65.9850082  51.4144783  85.3896561  66.2575150  51.1155090
  86.7683792  65.8894577  50.6108780  22.2112637  52.4765625  21.8136101
  21.7887077  51.8572693  21.2185020  21.5344353  52.6919708  22.4552746
  76.9214020  47.8321609   9.3513145  77.1392975  47.3769341   8.5379763
  76.7062225  47.1319504   9.9674559  54.5265732  41.7094498  19.1392879
  55.1427231  41.2315903  19.6944809  54.9158669  41.6759415  18.2654705
  48.9233208  18.0922070  75.3301392  48.1969223  18.5028381  75.7991333
  48.5940475  17.9681282  74.4399567  42.5247421  22.0434284  71.0878372
  42.2639084  22.6467152  71.7837143  42.4494781  22.5578918  70.2841644
  85.1349792  61.2099190  49.2864876  85.0638657  62.1407204  49.4981041
  85.4930725  61.1927490  48.3989601  84.9487457  54.7691383  22.0672188
  84.9623718  54.3600769  21.2019348  84.1303177  54.4678421  22.4617214
  26.6758995  57.2109985  47.1443367  26.4844303  57.1498985  46.2084770
  27.6273785  57.1228180  47.2004051  21.8885822  39.8493805  13.0900135
  22.3665066  40.0585899  13.8925409  22.0461121  40.5984268  12.5152569
  26.1604824  53.7181320  75.3019333  25.9303513  53.9759064  76.1945801
  26.5302715  54.5101089  74.9117279  30.8522167  49.5868378  36.0465469
  31.8083687  49.5758476  36.0899620  30.6031799  50.4135361  36.4598122
  14.8167448  15.3440886  15.8447056  15.3516035  14.6926880  16.2983952
  14.8461237  15.0797415  14.9252005  59.8277283  32.9692879  76.1075516
  60.5250816  32.7558861  75.4875565  60.2709885  33.4383965  76.8144379
  65.0947037  31.1944199   1.9173268  65.1287994  30.2418804   2.0052965
  64.3472900  31.3551540   1.3413337  26.3808022  51.6003227  51.2726326
  27.1387310  51.0296555  51.3995552  26.6948318  52.4723358  51.5118217
   7.8182082  11.9085569  11.5558615   7.3325582  12.7272635  11.4553862
   7.6740952  11.6549253  12.4675274  25.8963261  32.7346954  61.9217644
  25.0005226  32.5946960  62.2286339  25.9190807  32.3280182  61.0555534
  64.3101654  65.6026993  81.0618134  64.2196274  65.5479584  82.0131454
  64.4080582  64.6938477  80.7778397  50.7509651  65.9578552  66.3507385
  51.5837059  65.5024261  66.4746704  50.6996307  66.5676727  67.0867538
  52.3228149  35.6035690  62.7662048  52.9576225  36.2628441  62.4858284
  52.7548065  34.7668343  62.5944901   0.8212877  46.4126053  16.8171291
   0.9487181  47.3612251  16.8066483   0.3448072  46.2259941  16.0081940
   2.6156845   4.8938947  47.4797592   1.8870054   4.8313942  48.0972977
   3.3984647   4.8760738  48.0303688  48.9756508   0.3484875  84.6222000
  48.4604721   0.9815775  84.1221848  49.6799927   0.0900398  84.0277786
  10.6464605   6.6272225   5.4645267  11.5103874   6.4977283   5.8557987
  10.0436134   6.1876850   6.0642056  17.3953285  21.1252422  18.2433968
  17.3955746  21.8644257  18.8515396  16.5910492  20.6478424  18.4470062
  10.8152580  48.2046700  62.8768768  10.3454533  47.5146561  63.3452797
  10.3861694  48.2490273  62.0223923  85.2611389  45.8351479  66.0324020
  85.0677261  44.9025764  66.1279755  86.2135620  45.8913727  66.1096573
  53.9044685   4.3833151  51.8523788  53.5399284   3.9310801  52.6131859
  54.8361053   4.1640759  51.8671150   7.6984277  53.5062408  23.7603283
   7.3253512  54.1673470  24.3434143   8.0067768  52.8158150  24.3472404
  74.7891541  25.2568417  76.2224197  74.7214127  25.5053501  77.1443100
  74.3166504  25.9447136  75.7535858  73.8233185  39.3810844  22.9933090
  73.7877731  40.1171837  23.6041508  74.6858521  38.9918060  23.1372833
  66.9640579  39.5280876  24.6508312  66.7728271  40.1733055  25.3315353
  66.4815292  38.7462921  24.9195118  57.8704453  39.3995705  62.9249611
  57.9187241  38.9673386  62.0722733  58.6622543  39.1163864  63.3822098
  11.8136120  60.2488060  78.7491074  11.2454224  60.5279007  79.4670944
  11.5409060  59.3502922  78.5632553   7.2338786  49.0187988   5.2725406
   7.8148398  49.6196861   5.7390738   7.7033496  48.1846390   5.2708907
  60.7326469  45.3108940  85.9183502  60.0112228  45.5195999  86.5118332
  60.3346100  44.7651901  85.2401123  28.7708111  46.4667892  66.7622070
  28.3922825  47.0572014  66.1107788  28.1238899  45.7676010  66.8563538
  56.1325073  51.9263496  46.9057159  56.8362045  51.7017250  47.5144730
  56.0809746  52.8815079  46.9411278  13.1365633  41.0089035   3.3902550
  12.3358402  40.9622574   2.8678579  13.8416138  41.0538597   2.7444112
  30.0559845  22.2727528  88.8976212  29.9633121  22.4198818  87.9563446
  29.9977531  23.1467724  89.2835312  82.1555862   9.0790682  56.2103004
  82.9555435   9.2463703  55.7119942  82.2071075   8.1517000  56.4417419
  61.4923782  64.8118057   9.6548100  61.6594887  65.7423248   9.8046303
  60.6954384  64.6284485  10.1523008  16.2257347  30.5457573   2.2443933
  16.9085846  30.3773804   1.5950885  15.5081148  29.9640617   1.9936287
  68.0771866  24.9886723  66.0630722  67.5169449  25.1376057  66.8247681
  67.5698395  24.4002514  65.5039749   7.0761189  60.4320564  40.4947739
   7.2689004  61.1658516  41.0783920   7.3286705  60.7443237  39.6259041
  66.6360092   8.7399168  20.0844231  66.2039413   8.8844786  20.9262409
  67.5599136   8.9232273  20.2547970  19.0270748  67.4103165  79.4504547
  18.8952217  68.2476959  79.0058823  18.8708820  66.7523117  78.7730560
  68.2529221  55.3230705  75.0802612  67.3105469  55.1772308  74.9972076
  68.3281403  56.2131691  75.4242096  31.6144981  65.2765198   8.9277592
  31.7096863  65.2885895   7.9753799  32.1157722  64.5110626   9.2088833
  53.1892357  57.0548439  68.5288391  52.5480270  56.3540802  68.4104538
  53.7030792  57.0482521  67.7212753  22.7647076   2.7236547  86.3681870
  23.5260296   2.4792507  86.8943863  22.0229454   2.3185728  86.8175507
   8.3312826  30.1154881  18.9802761   8.1095314  30.1208115  19.9114208
   9.2280025  29.7820549  18.9495220   3.1425202  64.3924103  37.1661186
   3.5230637  63.6193085  37.5829239   3.8753211  64.8014908  36.7058029
  17.8864670  46.3780212  45.0102577  18.1368504  46.1391068  44.1178131
  16.9329433  46.4557152  44.9788284  52.1620522  29.2387009  32.0810661
  52.9656830  29.6737347  31.7961960  52.0562782  28.5081024  31.4717484
  13.2384558  36.8044205  88.6913452  12.7177877  36.5711594  87.9227600
  12.9748974  36.1722641  89.3600388  81.3456726  28.8655148   4.3786368
  81.7992325  28.3183670   3.7374358  81.3158112  28.3303757   5.1717110
  40.7714005  10.2228346  70.2485275  41.2060127  10.9824038  69.8607101
  39.9743538  10.1123734  69.7301254   1.4335551  33.1449280  36.6421661
   0.5111511  33.3996277  36.6652069   1.9119422  33.9716644  36.7045212
  64.7689514  68.6519547  52.7530556  64.5773697  68.8858719  51.8448639
  65.6848450  68.9012070  52.8764877  61.7241631  33.5465851  57.4561157
  62.4860649  33.4949532  58.0332413  61.2816887  32.7051620  57.5677376
  42.2439270  56.4653130  47.0602493  42.8054543  57.1299057  46.6612129
  42.3374977  56.6069031  48.0022812  18.6581306  59.5342598  22.9752159
  17.7866344  59.2760696  22.6751080  18.5504303  60.4367485  23.2754612
  45.7984314  19.2428951  27.5876446  46.6249924  19.2168827  27.1056137
  45.3612328  18.4229755  27.3578148  73.5023575  45.5252838  69.7847137
  73.9819412  45.9501038  69.0735474  72.8374252  46.1645432  70.0405426
  57.4488754  35.5647278  46.2031059  57.0293312  36.0186310  45.4722252
  57.8037720  34.7644348  45.8160515  76.3019333  42.1131897  43.4598007
  77.0794754  41.9473763  42.9267273  75.8573456  42.8358040  43.0166283
  60.6576462  25.5418491  10.5730562  59.7635803  25.2905426  10.8048429
  61.1822166  25.2883625  11.3325310  52.6019592  57.9868774   3.3101408
  52.6143074  58.9179840   3.0885091  52.6407471  57.9677467   4.2663636
  73.7664490  70.4206314  33.5675087  73.5705490  71.2961960  33.2339783
  74.4886398  70.5542068  34.1813736  40.5130043  38.1442146  74.7151794
  40.9399338  37.3974419  75.1350555  40.4698830  38.8115997  75.3999939
  70.9233322  26.9842434  29.1483250  71.0870361  26.0417519  29.1821251
  71.4751358  27.3481636  29.8406487  62.1033821  69.1039200  48.6612968
  61.5882721  68.9136581  47.8772736  61.9534340  70.0347824  48.8263359
  46.2195396  29.4224815  31.4250641  45.8820496  28.8073139  30.7739868
  45.9299622  29.0654373  32.2646446  64.6570206  60.5844765  38.0664177
  64.0110855  59.9072571  37.8654861  65.5004654  60.1769371  37.8695641
  64.6258698  41.7283897  16.1752567  64.2509766  42.4051666  15.6116486
  63.9488792  41.5605507  16.8308067  43.8617020  61.9626961  21.1423111
  43.5635948  62.1339607  20.2489834  43.3625679  62.5749626  21.6828918
  83.4562073   8.5475454  53.7576637  82.8481827   8.0914183  53.1758728
  83.5075989   9.4348707  53.4023514  45.7526321  66.7736588  16.6700649
  45.1551323  66.8359756  17.4152775  46.5407982  66.3655396  17.0284882
  70.2563400  68.2394638  46.8868332  69.3506317  68.3445282  46.5954933
  70.5069580  69.1059647  47.2071381  56.9129791   5.4002705  31.3369350
  57.6210403   6.0361919  31.2345467  56.2222404   5.7149544  30.7537651
   8.7214708  47.2830772  64.6175995   8.5466433  48.0038528  65.2227020
   8.1623859  47.4637718  63.8619537   9.8390121  64.4502869  62.2550697
   9.9325275  63.5543251  62.5787010   9.2710047  64.8782883  62.8957062
  14.9429455  26.6219177  67.3705978  14.0450802  26.8276672  67.1103287
  15.3344612  26.2292233  66.5903778  15.5185165  48.5423622   5.9143252
  16.2093849  48.0407372   5.4815373  15.9824371  49.2434540   6.3720150
  56.0490608  14.2140293  68.5721359  55.1620941  14.5325289  68.7397232
  56.6103439  14.7764406  69.1058884  73.1882706  45.9715271  51.5040894
  72.3252563  46.2702904  51.2174377  73.1128540  45.8992119  52.4555702
  59.3500938  21.5845070  78.4006424  59.2759399  21.5398083  79.3539200
  58.8125916  22.3370399  78.1536179  81.4678879  64.5221252  56.6321030
  81.7622910  65.4286957  56.5443954  82.2564545  64.0365906  56.8742867
  79.4580078  43.9433594  67.9672012  79.5555344  44.3888588  68.8087769
  78.5429611  44.0861053  67.7252502  30.1339893   3.2961745  19.9715900
  30.0981884   2.3571515  20.1537590  29.2455254   3.6076965  20.1442757
  57.3260193  50.4712372  58.4819489  57.3018379  51.1861038  59.1180420
  57.3734741  49.6777077  59.0151329  41.5882721  50.7895088   2.9502840
  42.1699295  51.1028099   2.2576432  41.8933716  51.2366257   3.7397344
  29.7890511  43.6887054  29.7461433  29.3575306  43.1454926  29.0866413
  30.0281372  44.4888229  29.2782993  27.7637196  12.0139389  77.7526932
  27.3489418  12.8097591  77.4197311  28.4349937  11.8040676  77.1034012
   2.4930661  22.1688271  16.3081741   2.2114460  23.0470200  16.5644913
   1.6789223  21.6746140  16.2124863  65.3672638  24.0403481  13.0188570
  64.9645844  23.9858398  12.1521912  65.0273819  23.2790985  13.4891872
  40.0405121  50.0495605  62.5850105  40.3725281  49.1962585  62.3059540
  39.7513199  50.4704742  61.7754211  11.2324810  15.3209982  79.2459488
  10.5037012  14.9259844  79.7245636  10.9722824  15.2672195  78.3263626
  40.5597992  60.5596313  34.9833450  39.7881660  60.5084419  35.5474281
  40.5974808  61.4766960  34.7116776  63.4225883  25.5170975  87.4212723
  62.6722221  25.3420658  87.9892044  63.3363495  24.8840046  86.7085342
  57.3531647  -0.0405491  27.8703785  57.2710228   0.8082053  28.3052349
  58.2826500  -0.1089023  27.6521568  67.7337494  50.7659225  25.7735806
  68.6012878  50.5566635  25.4274406  67.7437897  51.7163887  25.8864708
  69.9179230  34.0096741  81.3656540  70.4800110  34.2059326  80.6161346
  70.0500031  34.7456284  81.9632797  49.1351509  56.7798729  14.3014975
  48.7972527  56.4888000  13.4545422  48.3825378  57.1836243  14.7336874
  79.0523758   5.1724744  21.6155376  79.2825089   5.3180928  22.5331802
  79.5592957   5.8267727  21.1347466  74.4870758  54.1591034  53.4446602
  74.9607086  54.9670601  53.6424332  75.0923767  53.6532364  52.9024887
  50.7009201   9.9197989  36.4281616  50.4573441   8.9971571  36.5032234
  50.4158173  10.1721001  35.5499306  83.3620758  36.9817963  86.9236374
  83.9320297  37.2801170  87.6324387  83.9092941  37.0302277  86.1397781
  37.8823357  44.4888573  48.5676193  38.1923370  44.5449257  47.6637459
  38.5081711  45.0121307  49.0683632  28.8461971  39.3357620  11.4040747
  28.0671711  39.4933968  11.9374590  28.9558926  40.1400261  10.8967714
  72.4464111  30.6610813  66.2701340  72.2424850  30.3675728  67.1581116
  71.5948486  30.8665276  65.8843002  73.6166687  21.5118713  48.9102783
  74.1231003  21.7346134  48.1291618  72.7253647  21.3782959  48.5878258
  27.2875175  70.7118835  76.3271561  27.7578259  71.3164597  75.7531052
  26.7003345  71.2717514  76.8350983  25.6459255   3.1873603  74.9112015
  25.2526569   2.8770039  74.0955734  25.0341263   3.8480594  75.2358704
  78.5807266  10.6755447  15.7620668  78.2525406  10.6540661  16.6609917
  78.2482452   9.8698568  15.3663940  83.5581284  57.5737648  57.9414177
  83.5398560  58.4799423  58.2492180  84.2794952  57.5488510  57.3127403
  26.8681030  56.3484573   3.4565561  26.5404930  57.2265816   3.6509881
  27.7244892  56.4957619   3.0551400  70.4471741  23.8357677  27.2708931
  71.1096802  23.8361282  26.5800133  70.9341431  24.0378113  28.0698109
  60.3608971  27.1639462  42.2900505  61.0002975  27.7338028  41.8626556
  60.8626823  26.7026482  42.9620972  32.3109856  21.1429615  74.1579666
  31.6302395  20.5361328  73.8671494  32.3239975  21.0496597  75.1105194
  23.5274429  12.0192766   4.6333432  22.7129822  12.2473745   4.1851721
  23.9192219  12.8621874   4.8619118  71.8528748  52.6656952  23.4339428
  71.2267838  53.2675018  23.0313625  72.2399368  53.1673622  24.1514015
  20.5803032  23.4493160  72.5884552  21.2057915  23.0859089  73.2152939
  20.9408569  24.3059654  72.3595734  32.3131943  27.1661606  14.5003166
  31.8115807  26.3703938  14.3232012  31.6526527  27.8191414  14.7316837
  79.0073013  12.1492424  12.2150898  78.0979767  12.4447470  12.1699362
  79.2895355  12.3772402  13.1008635  43.3360176  69.0263062  61.8801765
  42.3788185  69.0273819  61.8813095  43.5768776  69.8981400  62.1934357
  62.4601250  26.9313564  49.4342308  63.1510124  27.4234161  49.8778343
  61.8260498  27.5967236  49.1669006   4.4549694  24.8564377  34.3171883
   4.1737242  25.2314587  33.4826279   5.2921166  25.2825127  34.5012436
  61.1035233  39.2111206  67.7841339  60.4824333  39.5140343  67.1217728
  60.5823593  38.6578064  68.3659134   1.2404249  50.4902878  14.4869089
   1.2294915  51.4026680  14.1976461   1.3050761  49.9832115  13.6776333
  76.0196762  34.8785667  81.4042358  75.7179794  35.7256889  81.0762253
  76.5967941  34.5470848  80.7162857  40.2147789  49.3488159  24.0629444
  40.7835884  48.6290474  23.7897739  39.9124451  49.7395668  23.2431011
  70.2039185  47.5157814  87.3184814  70.3206100  48.4382133  87.0910339
  70.8143539  47.3681374  88.0408401  30.5279160  51.0834236  19.6124668
  30.9062767  51.4081383  20.4295559  31.2386837  51.1529579  18.9751225
  30.0872517  49.2879219  33.4895592  30.0364017  48.3548584  33.2821045
  30.0135059  49.3256226  34.4431686   3.8639367  41.8307991  17.9419479
   4.2150030  40.9404564  17.9254189   4.3240900  42.2828636  17.2347507
  77.9200974  34.3112564  29.6038074  78.2058945  34.0427895  30.4770050
  78.3787613  35.1362190  29.4447689   5.6032662  40.3007698  79.3493423
   6.4241109  40.4151993  79.8282547   5.8711123  40.1975822  78.4361954
  74.9794312  32.1992836  32.3401031  75.0546799  32.9812737  31.7932358
  75.5095596  31.5409508  31.8908882  46.2431564  55.0437584  73.1361465
  45.6732483  55.7898407  73.3226852  46.9502449  55.4094887  72.6046371
  57.4089546  21.5789051  52.4522743  57.4103127  22.3799629  52.9762383
  56.8831406  21.7969551  51.6827240  61.4147415   5.2397704  11.1209097
  61.6463928   6.1310601  11.3820076  62.2217560   4.8809032  10.7518892
  49.1874428  28.5425072  15.3096218  49.4108047  28.2726021  14.4188404
  50.0284500  28.5862560  15.7646189   6.3832521  22.6365471   4.8821583
   6.1431642  22.3754711   3.9930973   6.1856513  23.5724201   4.9185662
  11.3484116   5.4981165   0.8358285  12.2078199   5.1198764   0.6498601
  10.8132524   4.7534146   1.1101555  36.2627335  52.0542870  33.3181648
  35.3446236  52.3248329  33.3286858  36.2978249  51.3511963  32.6695747
  44.8465347   1.6521361  57.7654610  44.2605553   1.7477608  57.0146484
  45.6103973   1.1930631  57.4161797  23.7280159  27.6074142  76.9507523
  22.9832840  27.3058472  77.4710083  24.4359589  27.7151356  77.5859222
   9.8194017   9.6441565  10.2406988   9.9051304  10.5814457  10.0664272
  10.2735558   9.2223911   9.5112534  61.7922020  21.9352798  64.7371368
  61.9099350  21.0871487  65.1649704  62.6243782  22.3888206  64.8713608
  73.5365295  16.6968117  60.9338646  73.5336533  16.7125130  59.9767990
  73.5813141  15.7673082  61.1580276  65.4187164  69.7951889  38.9750175
  65.0220413  70.4928818  39.4966583  66.2266922  70.1799393  38.6353378
  81.4751282  42.7967834   9.1000395  82.1914291  42.2066345   8.8658104
  81.0499420  42.9998779   8.2668514   0.2169783  35.7723274  47.1714058
   0.7544984  35.1513252  46.6798172   0.8493090  36.3354912  47.6177673
  66.6460648  39.0119133  61.2927895  66.9864349  38.4821625  62.0137215
  67.1157684  39.8429298  61.3636742  64.6129837  13.6995211  10.4186087
  64.2667542  12.8131094  10.3155041  63.8360100  14.2509098  10.5108967
  28.6700439  48.6619148  65.1863937  29.2115288  49.3564873  65.5613556
  27.9255924  49.1217155  64.7983093  13.9401550  63.6980553  35.8083191
  14.4914160  64.1545486  35.1727448  13.4716434  63.0423965  35.2917519
  51.0395851  14.6061401   1.2537440  50.9476051  15.5145702   1.5410174
  50.7951317  14.6216364   0.3284146   7.3665872  62.8888741  59.1946716
   6.8222241  62.7548180  59.9705124   6.7428136  63.0828705  58.4950256
  79.9720230  55.9312096  61.4241753  80.0793991  56.5954552  60.7433853
  79.7137680  55.1412010  60.9493904  74.8665924  62.1496620  26.6091766
  75.0387955  62.3984299  25.7010517  75.6028671  62.5134506  27.1009026
  80.2195816   7.4911799  44.1431618  80.7094269   8.0327120  44.7620544
  80.8793564   6.9192224  43.7509918  10.8083839  60.8529205  42.3486252
  11.2899046  60.7106857  43.1635704  11.0872402  60.1370926  41.7776070
  66.0339279  22.9001102  88.0989304  65.9144211  23.8498173  88.0967789
  65.2031021  22.5534286  87.7736893  72.0030823  38.1863976  71.7449722
  71.0861511  38.3078270  71.4985428  72.4506760  38.9534264  71.3878174
  19.3514175  30.7295341   6.5096474  18.6427059  30.2914314   6.0384507
  19.1360092  31.6605530   6.4545569  21.6984882   5.6107283  81.4887009
  21.9074650   6.4632535  81.8704910  20.7691422   5.4840565  81.6797562
  40.0155945  38.0814056  36.7826042  39.3280830  37.6850052  36.2474136
  40.7822380  37.5271645  36.6366463  79.7274475  53.5452042  82.2079391
  79.7752304  52.8123474  82.8218384  78.7972336  53.7681732  82.1730728
  58.2054100   2.2609043  41.1265373  57.7101021   3.0752649  41.0386887
  58.1489410   1.8518788  40.2629738  34.0134506  42.4847145  71.9722366
  33.5557365  41.6465569  71.9072647  34.7905540  42.2931709  72.4972610
  66.2771149  25.4747829  52.4180412  66.3847198  25.6584187  51.4848022
  66.7683945  26.1691875  52.8569908  26.7980404  43.4419594  70.1617737
  26.3398743  43.8181267  70.9133148  26.7068958  42.4958267  70.2747192
  80.3371048   7.8185325  59.5394745  79.7531815   8.0595732  58.8203354
  79.7807388   7.8423467  60.3180122  80.4483032  10.9004202  -0.1221970
  80.3463211  10.0300360  -0.5072439  80.2141418  10.7839203   0.7985787
  55.3141708  11.3937778  57.0684319  55.3073921  11.2595539  56.1207123
  56.2278748  11.2635460  57.3222427  23.3194675  47.1768150  26.5244579
  22.9553127  46.7091713  25.7728367  22.6158752  47.7611809  26.8067856
  59.8402481  63.4159088  16.6257324  59.1354408  62.8525352  16.3062172
  59.4050217  64.2367630  16.8559704   3.2724771  48.1805267  35.4181824
   4.2018571  48.3215904  35.5987015   3.1310103  48.5835342  34.5615616
  14.0166674  60.1243896  26.5855923  13.7290049  60.2995987  27.4815731
  13.2055473  60.0660934  26.0806980   2.6006801  38.3195686  23.7612438
   3.2684879  39.0047607  23.7333813   2.4431028  38.1012039  22.8427029
  56.8111992  59.3924141  25.2620907  57.7548332  59.5370407  25.3318729
  56.7251205  58.4566040  25.0802002  35.1015015  53.4300652  42.9323311
  34.5490150  52.8557243  43.4625397  34.9853439  54.2979469  43.3190155
  76.2476349  48.5194397  22.2405090  77.0894470  48.6053658  21.7930775
  76.2087860  49.2763367  22.8251686  32.0121956   5.2227349   2.0206637
  31.5087471   4.7195320   2.6606319  32.8989792   5.2482452   2.3800976
  39.3376198   0.8020009  52.7740021  39.4160690   1.1668684  51.8925552
  39.1061821  -0.1161040  52.6334610  78.8294449  45.4719238  33.9757195
  78.9832077  44.5374413  34.1147537  78.1660995  45.7047615  34.6253242
  42.5311012  56.8113747  84.5894241  42.2398529  57.7013206  84.3909073
  43.3224525  56.6954384  84.0635376  51.1869392  57.9583740  83.6946259
  51.4413109  57.1681862  84.1712112  50.2299004  57.9407272  83.6951294
  41.1176186  70.2390213  46.7418709  40.2453461  70.0178604  46.4155922
  41.0575523  71.1647949  46.9776001  63.9230690  25.7145195  66.2828598
  63.6373863  24.8927288  66.6819534  63.6383400  26.3909187  66.8973846
  42.9515953  58.0802002  44.1560555  43.0465012  57.4744987  43.4209709
  43.6380730  58.7329712  44.0186958  25.5819511  58.4551392  58.1025124
  25.6067429  57.5897675  58.5108566  26.4394588  58.8349648  58.2939415
   8.6258497  16.5739269  30.0798092   8.0340586  16.2605247  30.7637634
   8.0513840  16.9957752  29.4408531   1.1456473  49.0092888  12.2586327
   0.5214842  48.4727135  11.7700262   2.0014203  48.6407928  12.0393257
  29.9637585  35.1846962  84.2242432  30.5674839  35.9239349  84.2968597
  29.1123505  35.5868073  84.0520782  28.7290211  33.8628807  20.4888573
  29.5012245  33.9324684  19.9275265  28.8136978  33.0062981  20.9075775
  71.7527008  21.3794212  85.7528534  71.3488922  21.6559067  86.5754929
  71.5504379  20.4460449  85.6885910  33.9788666  54.0328178  52.1076431
  33.8854218  53.4548912  52.8649445  33.2886276  53.7531548  51.5063171
  78.3291168  36.4548302  68.9891968  78.8350296  36.9775848  68.3670883
  78.2429886  37.0163918  69.7595596  84.6306915  30.1229782   8.2055311
  84.3707733  29.8384838   7.3293247  84.5691223  31.0777225   8.1754522
   4.2331848  37.9811249  72.9996109   3.2958207  37.9505959  73.1910477
   4.6431952  37.5302200  73.7377243  39.6548538  40.5808182  40.9136086
  40.4657364  40.8830376  41.3227081  39.2065277  40.0914497  41.6033554
  78.3979645  19.9114227  51.0735626  77.4994202  19.9892464  50.7529564
  78.3048325  19.6018600  51.9745216  60.7200623   3.2664902  42.8172913
  60.2956200   2.6315329  42.2403107  60.0533371   3.4800720  43.4700508
  55.2041245   8.5829525   9.4777842  56.1538696   8.4664383   9.4525471
  54.9197235   8.4274397   8.5771379  65.5933075  70.6867828   9.3755836
  64.7452469  70.9029236   9.7632780  65.3817444  70.1038589   8.6464272
  76.1370087  66.3659210  48.0745049  75.6729507  66.3322754  47.2379990
  76.9835434  65.9566193  47.8954124  42.2597084   2.7129796  84.6212769
  41.6177139   3.3574033  84.3232880  41.9092903   2.3924119  85.4523392
  49.3677559   2.9681225  64.3366928  48.6865349   2.3917279  63.9903755
  50.0748558   2.3761024  64.5931168  20.1528606  55.8060760  49.9525032
  21.0847950  55.9038773  50.1478615  20.1307526  55.4320107  49.0716972
  42.8834496  50.7908325  14.5963316  43.5375214  51.4856339  14.6716471
  43.2461586  50.1899757  13.9454489  15.8694572  19.4096661  57.6681633
  16.4326611  19.9137669  58.2554588  15.1060982  19.9701042  57.5287933
  14.4980392  56.7136421  32.1067429  14.5814285  56.0068054  31.4666958
  15.3965139  57.0071220  32.2578888  51.6394920   8.5548782  16.7196541
  51.6604424   9.3004408  16.1197128  51.8494759   8.9297533  17.5749950
  12.1787653  35.5769272  83.1457367  11.4433784  36.1830292  83.2356262
  12.5198326  35.7428322  82.2668839  69.2091751  57.3714943  65.7394257
  69.0475388  58.0014076  65.0370636  70.1462326  57.1846237  65.6826019
  72.6924438  59.4673386  34.2187538  72.5158539  59.8898315  33.3781891
  72.1159744  59.9153442  34.8377876  35.7426453  35.0408020  37.7894020
  35.0400963  34.7699013  38.3803902  36.2812767  34.2567978  37.6824074
  22.2175083  20.1310673  13.0948620  21.3113003  19.8767147  13.2690048
  22.2434006  21.0691795  13.2832928  14.3767166  66.8685226  21.4504471
  14.9801769  66.1377258  21.3162918  13.9952555  67.0257950  20.5867424
  35.5015640   5.0517173  39.5708542  35.8804665   5.9261990  39.4816971
  34.7287598   5.0668316  39.0062561  85.2084885  10.0734634   6.2320480
  84.4401093  10.0690489   5.6612511  85.7705994   9.3821011   5.8823614
   3.3047597  71.4501495  77.4478607   2.8365042  72.1774521  77.0379868
   3.1735680  70.7138214  76.8504944  48.8440590  21.2926960  12.1750183
  48.2301140  20.5782127  12.3447781  48.4140396  22.0685425  12.5347052
  60.3318367  34.5358162  41.4817696  60.3536301  33.8268394  40.8390350
  61.2528610  34.7340202  41.6510658  20.2010136  53.7635040  29.0849895
  20.0241661  53.3881874  29.9475994  19.3438339  53.8034668  28.6608696
  75.8264923  25.6038322  81.7046967  74.9007034  25.4026089  81.8413239
  75.9078979  25.7264194  80.7588806  75.4199219  35.5944557  46.1346397
  75.0134583  35.7138672  45.2762909  76.2491913  35.1544113  45.9478264
  27.6301594  37.1679306  29.5660362  27.9246120  37.1492882  30.4766312
  27.8318386  36.2941933  29.2311630  84.6558762  60.2909546  89.1527328
  85.2302704  59.9316216  88.4765778  83.7950516  59.9208183  88.9572296
  40.0936050  43.2369461  67.7610321  40.8093681  43.4595718  68.3563080
  39.9351311  44.0406494  67.2658768  14.8847437  60.1174812  15.0665045
  14.6341848  59.2879982  15.4732094  15.7956038  60.2480125  15.3301811
  32.4481125   4.1968908  11.4465771  32.1649895   5.0480571  11.7806253
  33.3900986   4.1747289  11.6151237   1.1870729  34.7777824  73.8508453
   0.8630965  35.2265091  74.6318207   0.9950489  33.8534279  74.0087357
  35.5971565  32.4825096  74.5586166  35.0286789  32.0645714  73.9117813
  35.0013313  32.9931946  75.1067276   5.6195478  48.4264870  83.6884918
   6.1000156  49.0435410  84.2404251   4.7427683  48.3952751  84.0712662
  63.8814011  61.8383904  29.1386700  63.5348358  62.1586723  29.9714622
  63.8559570  62.6002769  28.5597782  37.9762115  44.3293571  36.2265701
  38.3996048  43.5999832  36.6793213  37.4001999  43.9118042  35.5861855
  23.7962513  66.6150360  23.3833542  23.5003643  65.8323288  23.8481712
  22.9902287  67.0311279  23.0777035  38.6890640  51.6158409  52.4055672
  39.5919266  51.3325500  52.2612801  38.7642136  52.5361481  52.6577873
  40.0127907  67.8290176  83.2514801  40.3724594  68.6757507  82.9870682
  39.2281685  67.7235413  82.7134552  75.1605606  24.8384571  66.8996658
  75.2537918  24.5289955  65.9986801  74.2647171  25.1723480  66.9467392
   8.7085123  51.5418625   5.3864131   8.4880342  52.1796227   4.7075286
   9.6655016  51.5316544   5.4037275  58.9141922  21.9727535  81.0409927
  59.1686478  21.1641617  81.4855881  59.2693787  22.6706944  81.5914078
  78.2580338   6.5424914  16.7042904  77.8302078   6.0238605  16.0229568
  77.6278305   6.5581317  17.4245930   9.3792706  27.4214211  17.0407600
  10.1963253  27.0585003  17.3827286   9.0495453  27.9766121  17.7473545
  40.6554680  29.7891903  14.6471214  40.0841446  29.0267544  14.7393770
  40.2054672  30.4850559  15.1261864  41.5737686  28.2060890  85.4805450
  42.3049736  28.6721230  85.0751038  41.3616829  28.7230434  86.2577286
  64.3771896   2.4184191  11.8520107  64.7203522   2.5162904  10.9638147
  65.1193237   2.0920918  12.3609047  43.3490906  26.0491104  76.7696838
  42.5681534  26.0366688  77.3230438  43.0733643  26.5086994  75.9765930
  47.8952332  49.3830338   8.8089409  47.3029938  49.9625168   9.2881908
  47.5657883  48.5023880   8.9882774   8.3385897  44.5084114  10.8409672
   8.9023266  44.6782417  11.5956793   8.9322367  44.1727219  10.1693068
   0.8590995  18.9719810  51.9496841   0.5717599  18.0645084  52.0504684
   1.8148898  18.9209251  51.9401894  16.9179401   5.5896845  67.3355331
  17.6064548   5.9360366  67.9031754  17.1066532   4.6532841  67.2741089
  39.1647110  31.7018547  63.4594040  38.6334686  32.1851730  62.8266182
  38.8672905  32.0177002  64.3126450  18.2185841  35.0353775  40.6283493
  18.6257420  35.2371941  39.7859001  17.3240891  34.7769394  40.4062614
  60.9867210  55.3782120   5.6753139  60.7667809  54.4912949   5.9603395
  61.5611534  55.2515793   4.9201808  54.1744919   6.6666408  26.4782982
  53.9151802   6.2088051  25.6786880  53.3538437   7.0023923  26.8389034
  84.7552338  36.2098846  73.9647446  84.8526382  35.2577095  73.9542618
  84.1730118  36.3992043  73.2289429   3.6934087  42.5911446  33.8017006
   3.0983760  43.2907715  34.0713158   3.7725954  42.0327530  34.5751114
  61.7033844  30.1529236  82.1525345  61.9394493  30.5490417  82.9913406
  61.9696465  30.7995472  81.4989166  86.4530563  42.9071465  50.2948837
  85.5778503  43.1924400  50.5573006  86.9288559  43.7200203  50.1243706
  60.3954620  53.5103798  66.2591705  61.2994995  53.7284355  66.4858932
  59.8848877  53.7831726  67.0214844  39.9556923  13.2014065  87.4870377
  40.7918663  13.0787115  87.0376053  39.7247124  14.1148195  87.3180466
   7.4358139  29.6162605  59.9749527   7.7909656  28.7329273  59.8758545
   7.3941870  29.7528820  60.9214363  54.4931831  40.6142845  82.7903442
  54.2496033  39.6938820  82.6915512  53.6849098  41.0961075  82.6149139
  36.2006035   6.8887367  82.6280365  35.9516830   6.4920826  81.7932053
  35.8668098   7.7843771  82.5766296  80.8902817  10.2607288  33.5108185
  80.1646652  10.0175152  32.9358749  81.6730042  10.1377420  32.9737473
  31.0300503  60.6992569  79.1149597  30.6269588  59.8312950  79.0952988
  31.0308933  60.9837074  78.2010040  85.6463852  52.5763626  26.4963303
  86.0960617  51.7739792  26.7612896  84.7159882  52.3708992  26.5878925
  60.5959969  24.3741817  77.5064316  60.5275040  24.7967262  78.3625870
  59.7053604  24.0828476  77.3111877  77.7601395  49.7754097  35.0072861
  78.4609756  49.5370293  35.6141129  77.2814789  50.4723396  35.4560738
  44.2013512  69.9460831  87.2020035  43.2694664  70.1152649  87.3405609
  44.4394150  69.3328247  87.8973236  49.3365707  32.6031837  42.3229828
  49.3275681  32.3647270  41.3960075  49.1554718  31.7834911  42.7829208
  83.2250824  14.6225090  74.3734436  82.3736496  14.4459772  73.9732742
  83.1988678  15.5542669  74.5910873  45.3550873  11.2737770  15.7703056
  45.8324738  10.9678335  16.5414944  45.8428116  12.0431509  15.4763336
  24.0305901  35.6140213  26.8407612  23.8130283  35.3926163  27.7462311
  23.8698730  34.8070793  26.3516350  31.1951580  53.2657204  31.9328308
  30.9432354  52.3503838  31.8106575  30.9641113  53.6900673  31.1065254
  62.6536713  26.4321461  56.8826485  63.0121269  25.9939671  56.1108055
  62.6293564  25.7512245  57.5549507  83.0086365  51.5061150  42.3413010
  83.2598724  52.4283180  42.3928833  82.2649918  51.4938087  41.7387505
  42.5467415  31.7137260  59.4467697  42.0959282  31.5420589  58.6200104
  42.1611061  32.5300217  59.7648544  75.6961899  32.9996758  54.4035339
  75.0865860  33.6890182  54.6670113  75.4297943  32.7719650  53.5127945
  61.9536247   6.6743870  74.0597382  61.2043686   6.6558819  73.4643326
  61.8316460   7.4727817  74.5734634  17.0847645   0.6532145   3.2743444
  17.8280830   0.2066002   2.8690729  17.4804478   1.2416446   3.9173186
  66.5049515  29.8615894  58.2293816  66.1453705  29.9788647  57.3500748
  66.6043854  28.9141922  58.3230896  53.5445023  54.1835022  31.7088242
  53.2958908  54.2983894  30.7916412  54.4967308  54.0881653  31.6887341
  62.8764572  24.2123680  84.6028671  63.1794701  24.3826408  83.7110062
  62.4100914  23.3786602  84.5423050  72.3329620   6.6675949  71.4020920
  72.2945557   5.8500390  71.8984375  71.4636841   6.7508731  71.0101089
  78.1638565  70.0177994  27.6150799  78.4895935  70.3120499  28.4656925
  78.6754684  69.2323380  27.4213448  62.8743324   0.9071011   1.1794770
  62.5693169   0.1902582   1.7356546  63.7909851   1.0287817   1.4268060
  39.2974777  42.9344559  64.3110733  39.0063438  43.5849686  64.9500580
  39.2019501  42.0958252  64.7625275   0.5017890  71.1708221   3.3533535
  -0.1825433  71.8308945   3.4639490   1.2971710  71.5939331   3.6767409
  62.5895615  54.4335709  23.6601467  63.0727310  53.7360878  24.1031990
  62.5342064  54.1452103  22.7490940  23.2028465  32.8954773  81.8924103
  22.5300541  33.3627892  82.3875885  23.6468163  32.3532104  82.5443802
  43.4835434  69.8910980  70.8324356  43.4978905  70.5898743  71.4864502
  43.6239738  70.3402557  69.9989090   8.2037220   4.2001123   9.3527250
   8.3301764   5.1397333   9.2209930   7.2716789   4.0583358   9.1871109
  59.7614517  44.6135139  30.5210953  58.9868202  44.6481972  29.9598713
  59.8915634  43.6807938  30.6923656  82.6113586  35.6762009  13.0328751
  83.1168823  35.1158371  12.4440851  83.1765289  35.7927475  13.7965717
  83.1932678  71.0626755   1.9623113  82.4749451  71.2020493   1.3452057
  82.7954788  71.1844864   2.8243742  37.3690948   2.0186014  84.8548126
  37.0033455   2.9031274  84.8462296  37.9012108   1.9871587  85.6498566
  68.1173248  25.2127991  33.3111992  67.9519196  25.0948429  32.3758049
  67.5284653  25.9212780  33.5710793   5.0194716  18.8655205  75.4391022
   5.1810994  19.2976418  74.6004257   5.5680423  19.3408527  76.0630951
  36.9069862  67.3554840  60.1049843  37.6194649  67.9936447  60.0680733
  36.2814064  67.7305145  60.7248497  16.2949524  16.1104527   0.8194928
  16.5662670  16.9641151   1.1569546  17.1114197  15.6875801   0.5534225
  29.8186512  56.6645660  24.8015327  30.0963364  57.5799904  24.8350353
  29.1214256  56.6017303  25.4543419  70.9619522   0.4255866  11.3603277
  71.3633423   0.2278567  10.5141487  70.8075409  -0.4311908  11.7582245
  30.5632954  48.7006493  42.8173866  29.7759228  48.7341270  43.3606682
  31.0746975  47.9778709  43.1811028  81.6636734   1.9218631  39.4012756
  81.9016342   2.8269904  39.6021423  81.0175858   1.9943427  38.6987381
  57.4358368  51.9016418  85.4726562  57.6638031  51.6788521  84.5700836
  56.6234322  52.4022827  85.3978958  26.6894665  32.3319626  74.9559326
  25.7847195  32.5728416  74.7568207  26.7222176  32.2933083  75.9117889
  57.3126678  11.3779297  82.2045517  57.6417198  12.2004881  81.8421249
  57.1558228  10.8247681  81.4392776  65.4883118  52.4112396  16.6532993
  64.8572464  51.9658585  17.2186546  65.0049820  52.5857124  15.8457232
  69.2312241  47.8190727  17.4840527  69.0534744  47.0543709  18.0316525
  69.3340302  48.5399132  18.1053829  48.5513611  68.5237732  16.5567226
  49.4547958  68.8153000  16.4340324  48.5003815  68.2848511  17.4822216
  50.1206970   8.6075411  72.1728745  50.3101120   9.0604324  71.3511429
  50.3358154   7.6916246  71.9966583  40.2879906  29.1276894   6.3240285
  40.1809006  28.2053471   6.5565052  39.8244095  29.2202930   5.4917126
  51.3712463  31.8409176  24.4622631  50.5655212  32.0686035  24.9261608
  51.6849060  32.6717377  24.1050701  30.9211731  61.2574272   9.0544758
  31.1103096  60.5812225   8.4039316  30.3706017  60.8185959   9.7029591
  24.2541847  67.4570999  18.1782990  23.8310719  66.5994263  18.1383209
  25.0720978  67.3434753  17.6942120  27.5702686  54.4854393  57.0109177
  27.1954002  54.1618233  56.1917839  28.4519291  54.7729263  56.7737389
  60.7727661  48.4164467  72.0782166  60.7609787  47.5753441  71.6214447
  61.3303757  48.2666054  72.8416595  78.9043274  51.8112259  12.2070513
  79.3140488  51.5126343  11.3951359  79.0681992  52.7541161  12.2253551
  13.2044802  47.3347588  63.8172226  12.4120874  47.8468628  63.6556778
  13.3504972  46.8556900  63.0014992  83.3037949  57.2609367  52.2135162
  83.4827042  57.7896194  51.4358788  82.3915024  57.4539261  52.4296455
  28.3018742  37.6573944   3.1147602  28.9131165  38.0045013   2.4650438
  27.4617691  37.6203995   2.6575015  22.3719387  63.8768005  23.8633842
  22.0614204  64.2500534  24.6883049  22.4771309  62.9433670  24.0474110
  64.0756378  51.1789970  58.3877907  64.1600800  52.1106911  58.1851921
  63.6584625  51.1580200  59.2490425   0.1633900  57.2021370  33.9539871
  -0.3454572  56.9235687  34.7153702   0.2933164  58.1416016  34.0834351
  77.4904404  68.2153931  72.3398590  77.8718033  67.3903122  72.0398102
  76.8246841  67.9541779  72.9760742  73.7933807  67.5232620  32.7745247
  73.5332718  68.4430161  32.8257599  72.9667435  67.0426559  32.7306938
  57.8942795  23.3456631  29.5916767  57.7378235  22.9245987  28.7464199
  57.2804184  24.0798588  29.6107941   7.6902285  51.0214462  38.8647270
   7.6535711  51.8871346  39.2715034   8.3486996  50.5463295  39.3715897
  62.0005913  50.8236847  40.2444191  61.1496086  50.4308662  40.0501175
  62.2695503  50.4171715  41.0682144  43.7641411  43.8614883  10.0823240
  43.5776062  44.3071213   9.2559757  44.6221161  43.4586411   9.9488430
  13.8628826  52.0443306  22.3999596  13.5078058  51.7954941  23.2533245
  14.6847439  52.4908257  22.6034660  22.9143600  59.5949097   2.5259073
  23.6437263  59.4536133   1.9223403  22.1582050  59.2111816   2.0818231
  85.4646301  26.2644062  64.9646301  84.9144592  26.1931190  64.1845856
  86.3175354  26.5433350  64.6314926  47.0698357  34.7638283  40.8218651
  47.1667747  34.6492615  41.7672272  46.5676422  33.9998856  40.5382690
  31.7500057  22.8009300   9.3946495  32.4600410  23.4021168   9.6197147
  31.6432152  22.8998852   8.4485865   2.1674840  44.1194916   7.7255139
   2.2240679  44.8536873   7.1139684   1.2597187  43.8229294   7.6603684
  11.3619108  54.7137489  34.2928734  11.8238001  54.6353340  35.1275864
  11.5684662  53.9030533  33.8277550  30.6973019  38.7305603  33.7065926
  30.0288467  38.0562172  33.8276787  31.5069942  38.3231621  34.0142517
  33.0821915  34.7677078  80.7541580  32.2910194  35.2996140  80.6684113
  33.7112999  35.1766243  80.1598129  48.1720848  11.2516756  12.1116781
  48.2670822  10.4212313  12.5781221  47.2356758  11.3150072  11.9236393
  35.1268463  55.2506256  26.0905304  34.6665916  55.7200165  26.7862835
  34.4306755  54.8417015  25.5763664  38.3699722  39.2973061  72.6007004
  38.3256645  38.8265152  73.4329453  39.0649109  39.9432106  72.7276077
  31.5533333  15.0002708  17.1630058  31.0624866  14.5874338  17.8735447
  31.2467060  14.5578766  16.3714886  68.0540695  12.2921648  48.4769554
  67.5649643  13.0438232  48.8116455  68.8206100  12.6756783  48.0508537
  52.4858284   3.1922634  64.1105042  52.1403885   2.4178188  64.5545044
  52.6465874   2.9018595  63.2126961   1.5048394  67.1901016  67.7351456
   1.8467356  67.6033936  68.5279388   0.5593325  67.1448898  67.8772888
  35.1192322  14.3078508   5.3879056  36.0580635  14.4303074   5.5287328
  35.0611572  13.5500154   4.8060598  46.8412514  52.5666885  74.1947098
  47.5697098  52.1853561  73.7046509  46.7078514  53.4263039  73.7953415
  81.3457260  20.9026527  35.0579910  80.6217880  21.3326759  34.6027603
  81.8480225  20.4785824  34.3622246   6.0426159  69.3046646  15.3575039
   5.2487226  68.7958832  15.5221386   5.7620387  70.0008774  14.7635393
  70.1033630  16.5437317  26.9296474  69.4664230  16.6572361  27.6350956
  69.7574158  15.8188744  26.4089413   8.0223598  11.7273054  67.6605759
   7.4830122  11.5740385  68.4363632   8.2533970  12.6549444  67.7089462
  83.1681595  61.7960892  79.9248199  82.8872757  62.5418091  80.4551468
  82.3782272  61.2657890  79.8198242  70.6237640  39.3738136  56.9848824
  70.3254395  40.1791534  56.5621986  69.9088745  38.7522659  56.8476067
  65.7605286   8.6966162  48.8596687  66.6044846   8.9387321  48.4784279
  65.9718094   8.0109882  49.4933167  44.2355347  48.8961449  58.7563057
  43.7533493  49.1113815  57.9579315  44.6857376  48.0768356  58.5506783
  30.2592335  69.6198883  83.3708649  29.5515022  69.5466080  84.0111618
  30.1623745  70.4996872  83.0064468  51.4252930  62.1008186  62.3236389
  51.8199043  61.2322807  62.4020691  50.9445648  62.2203293  63.1426926
   3.5636320  55.9465027  46.7774429   3.8572986  55.0619392  46.5594063
   2.8798921  56.1369858  46.1352196  18.1355228  34.9698410   9.9042444
  17.9723873  34.6831665   9.0056696  18.1041870  34.1652145  10.4217691
  44.6497307   9.5335236  81.1010361  44.9581985  10.3274727  81.5377502
  43.6978760   9.5611362  81.1981964  48.6830101  67.1952972  14.1344938
  48.5510178  67.6754684  14.9519577  47.9055786  66.6428528  14.0530128
  38.9959488  68.0044403  73.6328583  39.7176743  68.5518341  73.3235016
  38.4539490  68.5955429  74.1554031  11.2916994  10.8262424  86.0942307
  10.5078249  11.1133003  86.5625992  11.9795437  10.8198423  86.7598648
  60.8697510  17.2790508  33.3810387  61.6180229  17.7226944  33.7804184
  60.1204300  17.8359261  33.5923157   7.4753909  18.1355133  81.3503647
   8.1898174  17.8048401  81.8948593   7.4277058  19.0685844  81.5585327
  57.0812721  34.5864105  62.1122780  57.4949608  33.7236023  62.0867081
  56.2920647  34.4895210  61.5793686  76.8387680  43.3761520  80.8358841
  77.7607117  43.3123550  80.5865021  76.7541962  44.2491570  81.2192154
   6.7898602  24.0429630  14.5693741   5.9536695  24.1461620  14.1150970
   7.1815748  24.9161568  14.5513773  56.6142616  20.2070408  20.7202301
  56.7621841  19.4621544  20.1375675  56.9154358  19.9044838  21.5769596
  51.8650970   5.8102341  57.8785591  52.7605171   5.8842435  58.2086716
  51.5277786   5.0087848  58.2787170  29.1767025  28.5822563  76.9304199
  29.5609226  28.9977798  77.7023926  29.7486191  28.8429298  76.2084808
   3.6349237  45.3324432  42.6769104   3.4375372  44.9277496  41.8322220
   3.2939885  46.2236404  42.6010170  84.8506393  52.2546539  24.0389404
  83.9859924  52.6502228  23.9287243  85.0160828  52.2991142  24.9806862
  34.6716423  71.0629196  30.4896278  34.2250214  71.6493149  31.1002827
  35.3941154  70.6934891  30.9973545  27.1907825  13.0913839   4.7238245
  27.6634731  13.4872828   3.9916637  27.5149670  13.5541420   5.4964762
   2.7389295  58.9358826   8.7649632   1.9386880  59.4221611   8.5665226
   2.6336412  58.6630974   9.6764097  35.4848785  45.6465607  44.3732071
  35.0779839  45.2077827  45.1203003  35.3881607  45.0271568  43.6498718
   7.8375773  43.7704315  79.5037460   7.5573668  43.9601402  80.3991394
   8.4648447  44.4633255  79.2971954  83.1514969  67.3496475  76.6620789
  83.6393433  67.0849838  75.8822174  82.4038315  67.8408966  76.3216324
  84.3006821  46.1566544  49.8772163  84.0215988  46.2446823  48.9658508
  84.2412491  45.2182426  50.0563354  74.8716736  21.3936577   7.2551394
  75.3620682  22.1019077   6.8378577  74.0365677  21.3728561   6.7878113
  71.7929306  64.2162933  80.1194153  71.5709229  64.9890137  79.5999603
  71.0971069  64.1599350  80.7743073  73.6994629  19.6481590  67.7259216
  74.1942368  19.2593765  67.0046158  72.8037338  19.7125549  67.3946304
  18.0201187  35.8331223  84.0892487  18.4831448  35.3705940  84.7877502
  17.2479362  36.2026062  84.5175552  36.5052109  54.2245522  18.5639763
  36.8032951  55.1202202  18.4053898  36.5193481  54.1325569  19.5166397
  73.2229614  19.0322609  38.6838951  73.8263550  19.6102695  38.2169304
  72.7566681  18.5633125  37.9918747   2.4163549  12.1385527  23.6437874
   2.3973057  13.0674334  23.8741150   1.9139010  12.0829840  22.8309631
  65.6171112  60.0202522  55.7706223  65.7944031  60.9256821  56.0255623
  64.8655319  59.7637444  56.3050003  63.5379868  39.8409081  25.5760670
  64.0733719  39.1682396  25.9969120  62.6454582  39.4975891  25.6179886
  80.0502777  33.9599380  69.9968796  79.8555527  34.8375092  69.6679688
  80.4782410  34.1096115  70.8398972   6.2531505  56.2700729  54.2761612
   6.6183372  55.3917122  54.1695900   5.3207593  56.1665001  54.0860252
  76.3667374  42.7165565  45.9792404  77.2535324  42.5788803  46.3122330
  76.4046860  42.4238586  45.0686798  21.1128254   6.4701037  25.0817165
  21.3538246   7.3915224  24.9861221  21.9395733   6.0241365  25.2656593
  60.1796761  21.0338058  50.8124046  59.3367081  21.3329029  51.1532516
  60.0042877  20.1543140  50.4777908   3.0286243  29.4185371  27.6684189
   3.5131514  30.2167778  27.4579945   2.1957440  29.7302303  28.0225239
  70.0404892  66.6168213  75.6197052  70.1296387  65.9731674  76.3225479
  70.9393921  66.7970505  75.3445358  47.8348999  20.5252457  81.3849716
  48.2812958  21.0222759  80.6994629  47.4342766  19.7881432  80.9240875
  80.9259644  68.7272949  35.6010551  81.5237732  68.1226959  36.0407295
  80.7741165  69.4221649  36.2416229  59.1330414  36.3443527  34.8665848
  60.0781937  36.4440002  34.9805336  59.0338554  35.9988441  33.9794426
  50.0133400  53.7305832  74.8771439  49.4183922  53.3349190  75.5140991
  50.2569122  53.0094337  74.2967606  85.0505295  17.1785355   8.7727451
  84.1749802  17.4988537   8.5558453  85.3869629  17.8117695   9.4068270
  19.4272461  30.5925903  87.3505936  19.2719784  30.4757805  88.2878723
  18.8875275  31.3457603  87.1104507  58.0444412  26.9416103  66.7990875
  57.8879471  27.6034222  66.1254807  57.4064560  27.1415501  67.4840927
  63.5714874  11.6687775   6.8497319  63.0379257  12.4475288   6.6913366
  64.4051056  12.0111580   7.1723557  33.5303497  25.7613697  85.4207840
  33.9225807  25.6695137  86.2890854  33.2139168  24.8836842  85.2068481
  16.7204037   5.5268016  89.2219925  17.6125755   5.5567183  88.8764954
  16.3911095   4.6668282  88.9607544  82.3548050  53.7284164  11.3885021
  81.4800720  53.9287453  11.0554295  82.8870239  53.6019630  10.6030197
  84.0180740  56.4300690   9.0251799  83.7443848  56.9373894   9.7893476
  83.7892685  55.5265160   9.2430735   0.0616086   1.7750649  30.6864033
  -0.0070924   1.0408336  30.0761452   0.8239413   2.2680905  30.3830776
  56.0483093  71.1012497  41.7968521  56.9956894  71.2379761  41.7939110
  55.9404526  70.1678772  41.6140289  59.9779282  70.9556885  58.5608902
  59.5573006  70.4547424  57.8620605  59.9008102  71.8679352  58.2814484
   8.5814142  65.6275253  57.1672440   9.0105953  65.9122620  57.9740677
   8.3471174  64.7138596  57.3301659  85.0992050  23.4046154  51.5088882
  85.4087296  22.5026665  51.4257317  84.7088852  23.4443531  52.3819923
  85.7241516  38.1054230  88.4117432  86.4254761  38.4376106  87.8513641
  85.1151505  38.8393364  88.4937363  78.4146347  10.0009260  45.0317307
  78.7141342  10.2381372  45.9093781  78.7399445   9.1103592  44.9001999
  85.9233932  37.1426010  23.1641445  86.5671921  36.8729553  23.8191662
  85.1134109  36.7081795  23.4314098   2.6827488  71.2078857  25.3865509
   2.2941287  70.4031677  25.0435619   3.4865096  70.9201126  25.8194351
  71.5134583  19.6865540  74.9854050  71.8349838  18.8428059  75.3031158
  70.7478027  19.8713226  75.5293350  65.5540314   2.6627371  22.7119579
  64.9795761   1.8998525  22.6468277  65.8976898   2.6282682  23.6046753
  40.1282806  60.5096207  87.1379395  39.3448143  61.0473862  87.0229645
  39.8514099  59.8052254  87.7239456  69.4657288  64.6505280   2.1991909
  69.2242889  63.7812424   2.5190165  68.7460251  64.9010468   1.6199722
  83.2012863  37.1147423  78.0940247  83.9949036  36.6136703  77.9060364
  82.5016556  36.4615211  78.1011200  28.5911522  69.0987396   1.7882982
  29.3513966  68.6917877   2.2038150  28.8857555  69.9807434   1.5613436
   7.9089909  37.6284142  41.1359558   7.5770059  36.7478943  40.9607391
   8.8215857  37.6019287  40.8483772  81.6715164  64.7903290  30.3694057
  82.2212524  64.5310364  29.6299515  82.1102600  64.4202194  31.1354046
   4.6524897  24.9128361  53.8709412   5.5722198  24.6481991  53.8537521
   4.2472839  24.3292255  54.5123749  16.2447834  27.8145885  64.1984177
  15.3254261  27.7548523  64.4581223  16.6425438  27.0135231  64.5394669
   9.6508636  64.7507477  33.2361946   9.5784512  64.3218536  32.3835297
   8.8711014  65.3029404  33.2935371   3.3848100  66.5458527  40.1314278
   4.0805721  66.8078537  39.5285149   2.7704096  67.2797775  40.1216011
  21.9255943  31.5168724  68.1824951  22.4258595  30.7008133  68.1857147
  21.7415047  31.6886024  69.1059952  23.9375896  39.1189766   3.9422939
  23.3464832  39.7941856   3.6092479  23.8040924  39.1300583   4.8900743
  30.7504311  62.6006699  71.5024490  31.2262516  61.7949982  71.3006516
  30.0165577  62.6057281  70.8879242  55.1235809  28.9342442  71.0869904
  54.8648453  29.7890453  70.7426071  55.1141014  29.0461502  72.0375824
  83.6702271  61.6448784  18.7698555  83.7112732  60.7128067  18.9838333
  83.2813721  62.0515022  19.5442467  17.2097015  12.3407698   1.9341838
  16.7839832  11.4935293   2.0652556  16.7994614  12.9172392   2.5788682
  43.6327095  66.6797867  34.0984383  44.1882210  65.9341583  33.8711166
  43.9441490  67.3902588  33.5376625  53.7674599  38.3419914   2.7229474
  54.3304291  37.7237244   2.2570667  53.9652443  38.1958313   3.6480157
  43.6647224   8.5679865  75.1834412  43.8846054   9.3702984  75.6569214
  43.3912621   7.9546466  75.8655472  72.2615204   9.3646450  70.6555557
  72.1884155   9.3891191  69.7014618  72.4724579   8.4528122  70.8562927
  22.4670849  11.8507013  15.2935095  22.2254753  11.0495415  14.8287516
  22.1843319  11.6989861  16.1953220  19.2866611  39.1076584  63.8281975
  18.3754101  38.8268967  63.9120064  19.7981815  38.3236122  64.0278168
  78.0592880   8.2674847  85.9840088  78.6137314   8.2673082  85.2037354
  77.3219986   8.8328552  85.7537994   6.1611695  21.3830643  89.0783310
   5.7768092  22.2593346  89.0528336   5.9503279  21.0041161  88.2249985
  68.6483612  37.3719444  55.9020882  68.2089539  37.1567459  56.7247887
  67.9408035  37.4262199  55.2597084  68.0671692  21.5894413  82.8100281
  68.7574615  21.1351089  83.2930603  68.2754517  22.5181980  82.9113235
  21.2256832   7.9870663  86.6247101  21.4968719   7.4678907  87.3817749
  21.7738228   8.7708435  86.6630325  59.7203369   6.9788852  42.6886292
  59.8643837   7.6082749  41.9819794  58.8027077   6.7222385  42.5974236
  39.9446030  20.6477871  73.2648392  40.8997955  20.6908817  73.3093643
  39.7615776  20.2760201  72.4019852  80.4384460  16.0752697  33.4752159
  80.4894257  15.5025702  32.7099380  81.3458176  16.3273430  33.6465988
  44.8391571  15.2256813  39.1111946  44.8164139  15.0984316  40.0596237
  45.5441742  14.6528215  38.8095131  40.3129539  47.0109482   4.3555183
  40.2121353  46.1024094   4.0715742  40.0213203  47.0107231   5.2672095
  34.2636185  36.6780319  78.8366623  34.5581512  37.4564171  78.3637924
  33.4035988  36.4828415  78.4645081  14.5305433  28.9413776   3.9643884
  15.4117537  29.2759285   3.7977314  14.6684933  28.0444984   4.2690382
  25.2501640  38.7547722  53.5998497  25.5061646  37.8595161  53.3780136
  25.4352551  38.8318596  54.5358162  72.6365356  11.8214931  32.6941223
  73.2419510  12.3364716  32.1607285  71.9705734  12.4493790  32.9742622
  70.1655350  65.0114670  11.0636005  69.6060028  65.3066406  10.3452530
  70.1956482  64.0595169  10.9681320  66.6724472  10.8073111  45.9546242
  66.1991043  11.5937176  45.6830673  67.1298218  11.0672207  46.7543030
  61.6772423  17.4930382  38.6189957  61.8443832  16.6236153  38.2551231
  62.0703735  18.0962715  37.9882889   6.2842612  54.1864738  10.7853994
   6.6405721  53.3117371  10.9406805   7.0461054  54.7649651  10.8196211
  46.9152603  70.7042542  22.8177681  46.5846825  71.1943283  22.0649242
  46.1358147  70.5107269  23.3385811  13.3120356  65.5057526  73.4458466
  14.0659370  65.2099533  73.9561081  12.5549555  65.2917862  73.9910812
  42.1905823  48.6685677  80.6431808  41.6345482  49.3283081  80.2286987
  41.6005630  47.9364967  80.8225708   2.1580629  30.2598953  31.2879429
   1.7889631  31.0200329  31.7375946   1.5241365  30.0574799  30.5999050
  23.8634472  25.8515339  43.6201515  24.5460320  26.2363815  44.1698799
  23.8552189  24.9253540  43.8617134  84.0811005  46.4566460  77.0885544
  83.4449921  45.8025665  77.3779984  84.4376450  46.1003113  76.2748337
  25.7757225  15.9262953  29.2889786  25.8908539  15.8870449  28.3395386
  25.1996517  15.1890488  29.4910698  53.0720367  10.7580795  52.4096642
  52.3477325  11.3586607  52.5855026  53.4162521  10.5380316  53.2752991
  67.6407166  35.4236183   7.8411450  68.2757797  35.8465652   8.4191055
  67.9217529  34.5093307   7.8047328   7.7006168  61.5910187  38.1244774
   7.3175654  61.6981354  37.2538300   8.3907776  62.2529984  38.1655998
  75.4477081   7.2112136  45.6750069  75.1385727   6.4396114  46.1496620
  76.0065918   6.8584757  44.9825821  77.8609619  11.0308361  47.9540291
  77.6301346  11.8580770  48.3766670  77.0228424  10.5883341  47.8199539
  82.8729782  52.3900604  26.8780212  82.0845795  51.9978561  27.2533016
  82.8260727  53.3117905  27.1318779  77.5972977  37.2958870  41.9760628
  78.2118912  36.5718231  41.8567276  77.0682526  37.2949333  41.1783524
  78.1031952  67.6996536   1.0339532  78.5583115  67.0941010   1.6191084
  77.3614426  67.1963501   0.6982188   6.4336452   4.0026727  57.2964745
   6.8611932   3.2915742  57.7737312   6.8192449   4.8002377  57.6590157
  54.2679024  43.9721947  30.6980801  53.4062729  43.6690750  30.9843464
  54.2684746  44.9096336  30.8915806  13.5864592  45.6010246  61.6607857
  13.1371536  45.7845688  60.8357620  14.4256983  45.2233429  61.3976021
   2.4502282  31.0927639  83.9982452   2.9919188  31.4973183  83.3206406
   2.9348917  31.2380543  84.8107834  20.4910202  13.1680603   9.0393763
  20.9015121  14.0146379   8.8632097  21.1769142  12.5263252   8.8551016
  50.1798363  41.3582802  19.1758804  50.1740456  41.3834572  18.2190285
  50.8054390  42.0368843  19.4295521  73.6754608   6.6670623  11.7354851
  72.9667130   7.1458645  12.1652069  73.2944870   5.8150520  11.5229540
  64.8405533  12.7933588  61.0069122  65.3760071  13.5610390  61.2073746
  63.9481354  13.1336946  60.9436607  63.0415840  19.6376915  44.4483643
  63.6439781  18.9448299  44.7190971  62.2807274  19.1716385  44.1017723
  63.9920769  62.2638321  62.5459366  63.0616264  62.4158630  62.3804741
  64.0314102  61.9957619  63.4639893  34.3042946  51.7859688   9.5254698
  33.9261398  52.1574211  10.3224964  33.7045212  52.0528755   8.8288631
  68.1753006  16.5157375  21.2953892  67.3107605  16.3403301  20.9238548
  68.7537231  16.5812931  20.5355453  61.9857216  19.9239483  55.4692116
  62.8398628  19.5012741  55.5587692  61.7645340  19.8232117  54.5433807
   3.9458616  21.0394478  26.7479343   3.6830254  21.3339520  25.8759155
   3.8147249  21.8040924  27.3086090  64.5093079   8.3988771  54.6486740
  64.3299255   9.2997684  54.3795128  65.2548676   8.4709110  55.2446442
  84.6152802  61.1887703   8.4883928  84.4286880  61.7916260   7.7686839
  84.6568680  60.3268394   8.0741730  19.9688873  54.6934547  20.0603523
  19.9712772  54.8584671  21.0032177  20.5633240  55.3517609  19.7004795
  79.8917313  60.2225609  88.2435150  80.2791824  61.0353279  87.9186783
  79.4345016  59.8559761  87.4866943  76.5667953   5.7055473  62.9230843
  75.9561996   5.3013964  62.3065948  77.2320480   5.0345044  63.0759888
  71.8388824  36.5579185  50.0474701  72.3517838  37.2531166  50.4596176
  72.2266388  36.4574623  49.1781120  40.1441269   4.6159234  84.3629913
  39.9113808   4.5742631  85.2905273  39.3315430   4.4064169  83.9025116
  69.0553436  30.2905502  49.0806694  68.7694397  30.0660744  48.1951752
  69.1444931  29.4472084  49.5245819  39.5449142  33.6092873  24.3188095
  39.4992065  34.1984482  25.0718250  38.7275543  33.1123466  24.3535480
   5.9126644  62.4366074  88.5970840   5.5380297  63.2617302  88.9053879
   6.2142253  61.9983482  89.3928375  69.0946808  10.5260620   6.8617673
  68.2889481  10.7726116   7.3158932  69.3267365  11.2999668   6.3484893
  41.4753952  38.4100456  88.8761978  40.9651566  37.6068420  88.9799042
  40.9720078  39.0757713  89.3448486  50.9599266  69.9591370  27.3150654
  51.0133781  69.6080627  28.2039547  51.5181122  69.3808670  26.7951927
  56.9004173  37.8127441  51.3790550  56.7686157  37.4062500  50.5225372
  57.6927414  37.3987961  51.7212563  81.6807861  43.6266747  74.3307953
  80.9523773  44.1750374  74.0393295  82.3526459  43.7440720  73.6591873
  62.6928406  28.9349003   4.1259971  63.6369820  28.9116421   3.9701512
  62.5765457  28.4804306   4.9603615  18.8925953  29.9777584  65.2802200
  18.5314770  29.2600975  65.8005905  18.3673534  29.9812737  64.4800034
  79.3831406  54.0288124  45.8196030  78.8426971  53.3116570  46.1510277
  79.3231812  54.7053719  46.4940681  75.5847321  17.7422352  34.7144966
  76.1920700  17.2029190  34.2080231  76.1084442  18.0708714  35.4452171
  44.7803650  43.2812920  83.8064194  44.6113319  42.4931679  84.3226776
  44.2249603  43.1845856  83.0328598  79.2813568  55.5745964  65.7424469
  80.2103348  55.6739731  65.9506683  79.1197739  56.2199936  65.0542679
  11.3468399  44.4290924  79.1534119  10.7021675  44.7658310  79.7756958
  11.4265480  45.1187134  78.4943924   9.1216631  56.3913612  -0.0944215
   8.9199467  55.9313354   0.7203901   8.2816172  56.7491112  -0.3817736
   6.0833163  34.0479164  20.4560013   6.8296070  34.5109253  20.0753384
   5.8228116  33.4192276  19.7828617  37.4842415  61.3158798  38.5763206
  36.6035767  61.1450653  38.2424355  38.0129623  60.5931664  38.2381325
  34.3926163  12.1207275   3.5415394  34.7357903  11.3122921   3.1608915
  34.1525383  12.6578970   2.7865257  25.2077522  24.6346722  12.6504745
  24.5238552  24.7700672  13.3063593  25.0092010  25.2701283  11.9627218
  11.2471504  56.1141396  72.9366379  12.1912508  56.0554199  72.7901459
  11.1321735  56.9221344  73.4367905  61.5374107  20.0878391  66.9625015
  60.9282379  20.7109642  67.3585510  61.9660683  19.6657619  67.7070312
  15.8126888  43.2957001  63.1971817  15.2403612  43.5036354  63.9357185
  15.4706659  42.4701233  62.8541451   7.6595216  30.3892174  21.7776928
   8.5057945  30.4008369  22.2248135   7.3443627  31.2910328  21.8380146
   2.7826467  54.3326302  19.4279842   3.5378129  54.2425003  18.8467503
   2.0608826  53.9270668  18.9475613  51.0101814  66.2004395  85.6082001
  51.8234367  66.6999130  85.5348816  50.3204651  66.8367386  85.4193878
  42.9670486  38.7690773  82.1715012  43.8910484  38.8600998  81.9387436
  42.8816795  39.2386589  83.0012207  63.3375015  37.9328957  37.3037758
  62.9739532  37.2464218  37.8630753  63.3335457  38.7166557  37.8532639
   3.7271698  44.9738235  46.5162773   3.2179816  45.5634995  47.0723724
   3.2646191  44.1373672  46.5674400  33.6817093  61.6008453   6.8422318
  34.4749374  61.9444809   6.4312181  32.9957428  62.2207527   6.5944457
  55.9348793  22.4762917  80.1472321  56.8218155  22.1167526  80.1648407
  55.3667183  21.7193718  80.2903900  60.9066086  42.6568985  52.6226768
  60.4113617  41.8500824  52.7641373  61.4897652  42.4548073  51.8910179
  74.9189682  39.6231880  85.8053818  74.9430695  39.2314606  84.9323425
  75.8198166  39.5576668  86.1222534  51.7524643  41.3829956  82.2467957
  51.8876686  41.3039246  81.3024979  51.5625763  40.4908638  82.5370941
  39.0881767   4.5210495  17.8964596  38.8633766   5.0867448  18.6351643
  39.0490036   3.6338377  18.2536049  46.3201218  16.3720150  22.8862915
  46.9403496  16.6407547  22.2085533  46.3785591  17.0588799  23.5503960
  84.9495544  22.8454666  73.6199341  85.7751083  23.3224411  73.7046509
  84.9652252  22.4959259  72.7289734  16.0601006  44.3058395  67.1244507
  16.8219681  43.7269249  67.0989456  15.3596725  43.7981262  66.7147446
  47.4909973  43.5323486  46.9179535  47.6608315  43.8814354  46.0430107
  47.2598152  44.2997551  47.4412880  84.2802658  57.4726715  42.8944283
  83.7705612  56.6627960  42.9174271  83.6235809  58.1690903  42.8959427
  48.1147308  41.0327721  57.2967606  47.8990250  41.3193130  58.1842308
  47.2821465  41.0651627  56.8256073  73.5524979  16.3123131  44.4189453
  73.4479294  17.1214561  43.9183617  72.6579819  16.0401897  44.6239319
  73.5833054   4.6983027  46.9763527  73.8114700   4.5074043  46.0665588
  73.3793564   3.8438232  47.3564873  75.3002777  38.1184235   3.2567115
  76.0443726  38.1208725   3.8588309  74.6905594  37.4831047   3.6320176
  27.5485554  35.0128937  61.9412231  27.0002041  35.5342674  62.5274963
  27.1031399  34.1674805  61.8853989  53.0614586  30.4627991  43.0233765
  53.7593956  29.8093014  43.0687332  52.6023979  30.2666588  42.2066612
   7.9566641  20.2652626   5.4001732   7.4658022  21.0780048   5.2787766
   8.1622915  19.9746532   4.5116377  75.2373505  58.3300591  23.5279713
  74.8632278  59.2017250  23.6562786  75.7873077  58.4176903  22.7494507
  70.0189590  52.7722054  68.4996185  69.6442261  53.1390305  67.6988449
  70.5563660  53.4785881  68.8580170  72.5088501   5.1618667  54.5547676
  72.2170410   5.4744797  55.4111290  71.7003632   4.9426789  54.0915756
  64.0360413  60.0611687  31.8229961  64.4009781  59.5691986  32.5585327
  64.4616165  59.6884537  31.0508575   6.2105489  45.9479599  29.9868011
   5.2992287  46.0156937  30.2716522   6.2358470  46.4152222  29.1517811
  36.1993790  60.0817451  88.9092255  35.8253708  59.5555916  88.2024612
  35.5647697  60.7852135  89.0457306  45.7002106  38.0300827  15.3659658
  45.9523239  38.1268349  16.2842846  46.4904823  37.7066383  14.9334316
  47.3805580  33.2478752  83.5070267  46.7197533  33.2022095  82.8160248
  47.3350754  32.3947411  83.9386826  50.7815895  50.4488907  86.4476166
  49.9531898  50.5517616  85.9792099  50.7829056  51.1580734  87.0904922
   4.1033220  21.8396950  51.6408577   3.9247658  21.9521904  50.7072105
   3.7618303  20.9695377  51.8468742  55.3501205  51.9565735  78.8036728
  55.0753021  51.0588188  78.9900665  54.5487213  52.4738693  78.8836288
   7.7656369  70.6924667  46.1820335   7.6174188  70.0487900  46.8748093
   7.8599148  71.5250320  46.6448364  31.3693218   4.8948927  62.4223709
  31.2171612   5.4283700  61.6423187  30.7443027   5.2282295  63.0661621
  76.5231323  50.8040543  27.1258583  76.3057327  49.9383888  26.7800388
  76.4568863  50.7060738  28.0757236  43.3055229  12.6876688  12.1180935
  42.9055634  13.4272509  11.6606178  42.8576584  12.6584444  12.9635477
  42.6605606  50.0082207  10.2356873  42.2478905  49.2948761  10.7225924
  42.3389435  50.8043823  10.6586761  83.7883682  36.4678612  15.3963203
  83.2479782  37.2205086  15.1560259  83.8687973  36.5249786  16.3484230
  66.5883255  20.5660381  12.3030834  67.3439789  20.9169216  12.7743587
  66.8575516  20.5665913  11.3845243  38.0692520  58.6424942  47.0599480
  37.4916954  58.5414772  46.3033409  38.8828087  58.9910088  46.6954002
  68.3700256  51.2354355  74.5605927  68.7007828  51.6551285  75.3547516
  68.0089874  50.4020081  74.8627243  60.5179558  57.6759567  86.7503815
  60.2701530  57.4039192  87.6340179  59.6992226  57.9718170  86.3524170
  74.7605972  71.1799240  77.9551468  74.6786575  71.1264801  78.9073334
  75.6577835  71.4795074  77.8083954  20.2822304  43.6305885  85.0686493
  19.6292496  43.2708092  85.6689911  20.4974117  44.4883804  85.4348831
  73.4234848  41.8882027  85.8459778  73.7174759  40.9838486  85.9552917
  73.1465225  41.9411011  84.9312515  68.1875916  41.4959526  21.9807110
  67.9762650  41.6623535  22.8993435  68.1367111  40.5442467  21.8918304
  57.6667519  36.3921700  37.2219353  57.4842033  37.2775879  37.5364876
  58.2733994  36.5175552  36.4922180  47.3265381   1.1681834  43.2663040
  47.5385666   0.2487532  43.1052971  47.4390945   1.2781489  44.2104836
  81.0332870  70.8896561  78.1954346  81.1559372  70.8684998  77.2463608
  81.1972427  71.8010178  78.4378662  38.5472221  48.9765205  36.9130478
  39.4973145  48.9074631  37.0067940  38.2175484  48.1170807  37.1755524
  75.9701004  42.9284172  50.2471886  75.1997223  42.3636894  50.3090668
  76.7073593  42.3500595  50.4426079  33.1963654  69.3351440  13.8775110
  33.2351761  70.2344284  14.2031193  32.6401978  68.8762665  14.5070667
  70.4835129  52.3657494  30.5739784  70.4641724  52.4915657  29.6252804
  71.2723312  52.8260155  30.8605976  19.2417641  70.7630768  83.5608749
  20.1292248  70.6959229  83.9132004  19.0191498  71.6899872  83.6475830
  46.9903984  50.8549843   6.6803174  47.2120285  50.0425186   7.1352968
  46.2757797  50.6124725   6.0914707  32.1404457  40.6203270  78.0572815
  31.9399471  41.5562935  78.0569153  33.0477219  40.5698509  78.3581619
  72.2273865   2.2344973  48.2155190  72.1325150   1.3023947  48.4115181
  71.7121429   2.3655238  47.4195366   2.8293147  43.1114349  66.9658203
   2.6350698  42.4644165  67.6439590   2.3316629  42.8160553  66.2033768
  82.5786819  10.7200413  58.8470459  81.7043839  10.9792747  59.1379662
  82.4386673  10.3335590  57.9826050  68.7213211  18.2731552  38.8339005
  68.2507782  18.3199883  39.6661453  68.7141724  17.3433342  38.6067123
  56.6446648  63.1006393  34.7419014  56.3315201  62.5425529  34.0300636
  56.3880272  63.9856949  34.4829712  82.5661545  31.3705444  48.9686813
  82.6356430  31.1536121  49.8983803  83.1556244  32.1156006  48.8518753
  11.0804739  47.4173737  87.9784241  10.3959923  48.0624504  87.8006744
  11.2620239  47.5122566  88.9134445  35.9737358  23.1663265   4.3045998
  35.7264977  24.0551262   4.0493746  35.4290314  22.5999184   3.7580531
  84.9065247  31.3569012  61.7903252  85.1209717  32.2442703  61.5025406
  84.0949173  31.1451206  61.3291664  33.1911049  33.5575714  18.4520817
  33.3739777  34.3471565  17.9428253  33.9321365  32.9791832  18.2715988
  27.0014629  57.4333305  39.6000938  26.9452515  58.3535881  39.3428040
  27.4860191  57.0148621  38.8885307  78.3862610   5.9872451  74.5206985
  79.2535095   5.6830420  74.2531738  77.7939072   5.2824097  74.2588730
  13.2611494  36.3172951  80.4820099  14.1846161  36.0909424  80.5924911
  13.2739420  37.1767845  80.0608826  64.3638535  31.2862816  60.4982376
  63.8845406  30.4580078  60.4768715  65.1168823  31.1420860  59.9251900
  35.2056961  20.9264584  13.4878139  34.7584915  21.4624443  14.1427631
  34.5389900  20.7552109  12.8226786  15.0729504  58.2250557  69.8591995
  14.2143736  58.3209419  70.2713699  15.3757744  59.1231003  69.7248535
  80.9092941  60.0221443  55.8082886  80.8670578  59.0664520  55.8414421
  80.0885315  60.2838287  55.3910370  38.3467674   0.6961357  80.1156464
  38.7687035   0.0179281  80.6431274  39.0720825   1.2152829  79.7683258
  13.9127703  68.6406784  74.8544693  14.2993002  69.4410553  74.4991837
  13.6850500  68.1217728  74.0830231  48.1855698  21.3928699  26.7886505
  47.8187408  21.3755779  27.6726017  48.3938255  20.4782944  26.5978241
  85.3015289   6.8513808  84.4838181  84.9270325   7.5941048  84.0101624
  86.2189865   6.8316817  84.2115707  55.9344177  62.9807625  78.5427856
  56.8043404  62.6088333  78.3973846  55.8284302  63.6234589  77.8414001
  60.2107773  31.5565872  32.8980827  59.3057976  31.2964058  33.0699806
  60.7015305  30.7347851  32.9041595  60.6513672  37.5017967  59.1747551
  59.7889977  37.8507156  59.4001541  60.5880089  36.5656967  59.3643112
   1.9050415  40.0232277  76.0279388   2.4682088  40.1230392  76.7954712
   1.2316358  40.6948509  76.1360016  68.0606537  37.1695023  66.8223267
  68.7755661  37.6295090  67.2622452  68.1230392  36.2691574  67.1412582
  49.8783569  53.6878052  42.7296143  49.3296547  52.9047623  42.6849213
  49.3805771  54.3562660  42.2588577  54.8636818  18.8782558   2.9254403
  54.9528122  18.6856060   1.9920738  55.0635452  19.8115788   2.9975138
  47.6317444  61.9271965  13.2105322  47.6540565  61.0688248  12.7875299
  48.4521675  61.9737053  13.7014256  11.5232792   0.1881148   7.9490771
  11.5027657   0.2978165   6.9984055  11.0724382   0.9609844   8.2891464
   2.1419859  37.3706970  47.7780075   2.1099474  38.3217087  47.8818550
   2.3655801  37.0420761  48.6487808  54.0336685  55.7282143  18.1191235
  53.4607658  55.1678658  17.5956535  54.5524406  56.2092705  17.4743805
  65.3671951  42.8943405  12.7652149  65.2182236  42.5436592  11.8871136
  64.4911423  43.0940475  13.0951767  51.8147659  67.0139694  44.4558220
  52.5803680  66.5546570  44.1106911  51.0981522  66.3856964  44.3665657
   4.5294714  28.0809441  83.1456070   3.8818300  28.6996326  83.4832687
   5.0960383  27.8948288  83.8943405  49.4304390  24.9565620  37.8454323
  49.5383492  24.5310135  36.9948463  49.7491608  25.8487740  37.7090302
  56.5401077  71.0002289  76.3542709  56.8964500  70.2759476  75.8398132
  57.2257271  71.6679001  76.3348312  49.2470779   0.3627089  69.8723068
  49.1573563   0.5299565  70.8105011  50.1619682   0.5672306  69.6789703
   4.2339664  60.6228065  82.0420151   3.5472858  60.7137337  81.3813782
   4.8232598  59.9583168  81.6850586  11.8229942  19.4017754  60.8016930
  11.3689737  20.0284100  61.3651009  11.1612644  18.7414665  60.5959320
  73.0034485  24.5161648  34.0083885  73.8945999  24.3719044  33.6901741
  72.4884109  24.6705914  33.2164803  70.1855392   5.4005656  62.2314720
  70.4584045   5.8973560  61.4601250  69.3453979   5.7861881  62.4798546
  46.8023453  14.1439323  70.0040131  47.0206947  14.0388165  70.9300308
  47.2239532  14.9649487  69.7502213  20.2667408  42.9793625  33.2362938
  19.7193756  43.3051949  33.9507599  20.1421432  43.6139145  32.5305672
  58.5225220  45.2677727  74.0507889  57.7046776  45.7418251  73.9003372
  58.7922211  44.9733391  73.1808472  44.1746559  31.6480980  76.5923157
  43.6865730  31.4038410  77.3786697  44.5488129  30.8252544  76.2774124
  44.1010246  59.0515633  62.1669350  44.1117744  58.1299896  61.9084320
  43.1793785  59.3044891  62.1137924   8.4153595  69.8072586  67.5550079
   8.0795994  69.3108902  68.3014069   7.8154521  70.5483780  67.4708405
  60.9899521  54.5197983  27.3697853  61.8498268  54.4284515  27.7802753
  60.6496658  53.6262321  27.3252487   1.8280579  63.8894691  74.1371536
   0.9562118  63.5910492  74.3961105   2.1479249  64.3801651  74.8942108
  80.8723831  69.7694931  62.4326477  81.8110046  69.5825729  62.4157639
  80.6516571  69.8035355  63.3634262   0.5737156  57.8523026  88.6496964
   0.7945894  57.3891220  89.4577255  -0.0402252  57.2711868  88.2006760
  48.1450539  59.6239166  11.7180891  47.4834976  59.8714142  11.0720892
  48.3761635  58.7231674  11.4912052   4.2310824   5.2590494  78.7381134
   4.9718533   4.7524524  78.4051743   4.0900302   5.9385881  78.0789032
  59.6834335  48.9612885  61.7704887  59.3632736  49.5028191  62.4919281
  60.4426994  48.5044899  62.1325378  33.2701416  61.3246841  71.3760910
  33.9620171  60.8849640  71.8702469  33.7323418  61.9637070  70.8336411
  26.1385269  21.4042130  11.6104498  25.5494041  20.6758404  11.8070211
  26.5859432  21.5804520  12.4380913  86.4566498  40.0638275  61.8341522
  85.9386139  39.7326965  62.5677910  86.6219559  39.2934265  61.2906532
  48.4915695  45.6774788  66.5993042  48.6267014  46.5721169  66.9117050
  48.9661179  45.6395149  65.7688828  46.5676231  39.1007042  36.1123695
  46.3797722  39.9805832  36.4391060  46.0482140  38.5219879  36.6705208
  41.7931480  13.3820114  66.8601227  41.2123871  12.7122869  66.4989853
  42.6412926  13.2092323  66.4514236  22.7817478  60.3975639   9.9803181
  22.9832287  60.7089424   9.0978889  22.7911072  59.4433327   9.9055471
  65.3260803  69.5363617  33.2113571  64.6921082  69.5173645  32.4944572
  65.3576736  70.4548721  33.4788818  62.7107201  14.8551054   1.5151680
  61.8437576  15.1199150   1.2077829  63.2167854  15.6673832   1.5334508
  66.7885971  51.3359566  60.9603577  67.4931793  51.5095329  60.3361244
  67.2205734  50.8970680  61.6931686   0.3824154  39.8079147  79.7295990
  -0.4026917  39.9159660  79.1927948   1.0812192  40.2133598  79.2162628
  71.3388672  42.5416946  67.1457977  72.1006241  43.0477333  66.8631744
  71.4408875  41.6937103  66.7136536  60.8441124  15.1343470  73.5170822
  61.0265694  14.2317619  73.7783890  60.0999680  15.3950377  74.0597839
   1.3716062  56.2374611  16.8856049   0.4769262  56.0564842  16.5974598
   1.3623595  57.1632919  17.1284714  58.1207428  42.6213455  85.0423889
  57.1861877  42.4151497  85.0602341  58.3251190  42.7264862  84.1131897
  52.7681389  48.3949203   1.0003091  52.5009117  48.0951309   0.1314330
  53.4158249  47.7511139   1.2871028  43.5003548  50.9432144  77.2897949
  43.5468254  51.8803787  77.4789963  44.1469345  50.5484047  77.8748474
   9.5423794   3.5090272   1.5448929   8.5992413   3.3488581   1.5775933
   9.8164062   3.1541569   0.6991932  59.7464943  55.4782753  49.3888550
  59.2286949  54.9104691  49.9595680  59.6037483  56.3594666  49.7343445
  74.4784470  28.0646362  75.6173859  74.2934036  28.1307049  74.6805725
  73.9247437  28.7344017  76.0187149  45.2831039  63.7045593  89.2715988
  45.2411919  62.8913574  89.7747650  45.2592850  63.4220276  88.3573608
  64.9222260  30.3092823  54.4636078  64.3273239  29.8971500  55.0900841
  64.3544846  30.8492279  53.9137344  38.9645882  56.2430153  70.7880936
  39.0603790  57.1944695  70.7457352  39.6805916  55.9059982  70.2495804
  72.1078949  58.7010651   2.1741567  72.8933868  59.1432114   2.4962511
  71.9111938  58.0449257   2.8427527  68.9849472   8.7404604  21.5336971
  69.0440674   7.8307548  21.2418556  69.8836594   8.9774504  21.7625847
  35.8558769  47.1474419  78.6513062  36.8009949  47.2165260  78.5163651
  35.5195732  48.0185432  78.4407959   5.8978152  71.1869125  48.6929092
   6.6017480  71.8272324  48.7963562   6.2065530  70.4132767  49.1644974
  49.8175697   4.4889526  77.6106262  49.3244171   4.1513529  76.8629227
  50.7314796   4.2956133  77.4017639  64.4321442  42.4053078  29.4554787
  63.7542114  41.7609329  29.2519703  63.9475212  43.1927414  29.7031250
  28.3176098  30.3612900  73.7519989  27.8354473  30.0714188  72.9775772
  27.7563400  31.0279388  74.1479568  69.1213608  45.1745033  79.8152618
  68.7478867  45.3418427  78.9499588  69.0451813  44.2272530  79.9299011
  58.2909012  69.1998444   1.4778147  57.5289650  69.0178680   0.9277545
  58.0226135  68.9290314   2.3558309  18.0768242  26.2383041  59.1260834
  17.4669933  26.9727230  59.0556145  18.5487251  26.3964386  59.9437218
  58.2061386  46.2112350  12.2566662  58.6053581  45.4349022  12.6492977
  57.6946487  45.8720284  11.5221262  84.9208069   1.7925624  81.7188034
  85.2948532   1.0297160  81.2779083  84.0875473   1.4805475  82.0717316
   5.1103520  54.8937302  86.5342255   4.4534698  54.4177856  87.0423737
   5.6412044  55.3441391  87.1911545  71.7095947  19.1085358  26.8014965
  71.6693344  19.1206493  25.8452206  71.0468445  18.4685173  27.0610409
  52.0735550  38.7360725  83.2890396  51.9358482  38.2865753  84.1228409
  51.2660713  38.5831795  82.7982941  31.9439602  26.7610970  70.8470383
  31.3328934  27.4978657  70.8472214  31.4523010  26.0420513  71.2438736
  53.9383278  21.3641644  62.5667000  53.6964035  20.5011902  62.2305756
  54.7137184  21.6091385  62.0617371   5.5002456  35.8835106   1.9077950
   5.2564845  35.8671494   2.8332920   6.0409508  35.1026878   1.7886889
  83.0891495  69.5287399  10.5557909  84.0248108  69.6151199  10.3732872
  83.0391693  69.4233246  11.5058537  23.4503059  55.2479973  44.8820877
  22.8632851  55.2079697  44.1270790  23.5295429  54.3393021  45.1723061
  67.0664444  10.2745466  87.7544861  67.3385544   9.3772516  87.9469681
  67.8847351  10.7425852  87.5884476  85.1092529  32.2080727   4.5192094
  84.3358002  31.7082157   4.7802486  84.8400955  33.1234169   4.5961981
   2.0796199   5.5831380  39.6909714   1.4664047   5.3715835  38.9870949
   1.7201444   5.1440549  40.4618263  68.7876434  30.6754589  27.9525814
  69.1684341  31.1644363  28.6820545  68.2874374  31.3277702  27.4621544
  67.2833633  40.3985672  58.3891792  67.2816620  40.5118141  59.3396530
  67.2860184  39.4499893  58.2609978  74.2111588  47.1133652   5.2493868
  73.9994659  46.1882057   5.3738527  74.3355484  47.2056313   4.3047986
  60.1506577  32.4705582  54.7479057  60.1942635  33.2787743  54.2369118
  61.0459366  32.1320343  54.7375374  80.3754578  37.9407120  79.0469818
  81.0121765  37.2380829  79.1778870  80.8991013  38.6873474  78.7561798
  72.7005005  64.9526825   1.0155318  73.6543961  65.0055695   1.0748286
  72.5293045  64.0681686   0.6921692  77.0953369  68.9711456  82.0664902
  77.7176437  68.3301773  82.4101791  77.6437912  69.6616516  81.6941376
  17.4632168  43.7042122  42.6757202  16.6516457  44.1772385  42.4917908
  17.9894161  43.8143997  41.8837585  29.3616028  39.3475456   0.4079609
  30.0921803  39.5290871  -0.1832508  28.6448841  39.0862007  -0.1701784
  29.2471733  34.4565506   1.1258184  28.5789089  34.2558098   0.4705656
  29.9806957  33.8832855   0.9032341   4.9280944  51.0900116   8.1592779
   5.5368428  50.5256424   8.6358757   4.0656295  50.7132149   8.3336611
  27.5074100  65.9608688  10.5665340  27.1601601  66.6469879  11.1365252
  28.3497791  65.7284851  10.9572315  78.9187546  57.2294922  63.7789230
  78.0148392  57.3437080  63.4854660  79.3592300  56.8097038  63.0400124
  77.2253036  37.2413139   1.1386950  77.1528168  38.1599503   0.8796900
  76.6305695  37.1548729   1.8837147  51.3833427  33.6415291  27.7346878
  50.7506905  33.0322380  28.1151524  52.2265091  33.3677483  28.0957184
  22.9224377  35.8429298  66.0795441  22.9138813  34.8877449  66.0180511
  23.8000565  36.0936470  65.7911682   8.5539465  37.8364449  80.9935379
   8.1840124  38.6496391  80.6498871   7.9215822  37.1620331  80.7455139
  49.8195915  13.4153957  80.2504578  50.5803833  13.8524904  79.8678665
  49.0698929  13.9210148  79.9365463  37.3662910  46.5220299  20.9722271
  38.1334648  46.4401627  20.4056816  37.1064606  47.4398270  20.8924274
   1.0452443  20.7863617  74.8502731   1.7808168  20.4108734  74.3663559
   0.5294704  20.0291824  75.1275558  14.2758188  66.6530762  48.2448006
  13.3756638  66.7527695  47.9349403  14.6795626  67.5063705  48.0863419
  51.9804077  69.6936569  61.6700897  51.2671967  70.3173828  61.8062096
  52.0786324  69.2540817  62.5146942  48.3767357  54.0782890  29.8455315
  48.3892860  54.4336510  30.7342319  47.7109146  54.5940895  29.3907089
  67.2922897  55.9083939  63.4035492  66.9339523  55.0258751  63.3087540
  66.6633453  56.3633957  63.9635811  53.9664993  42.4099464   8.9801598
  53.1860809  42.7408714   9.4247580  54.5661545  42.1784325   9.6894178
  69.5902786  31.2013531  52.1692085  69.7274475  30.9232502  51.2636261
  68.7644424  30.7896957  52.4236984  19.2187462  62.5609474  51.7440338
  18.8136215  62.8641586  52.5565414  19.9026585  61.9549179  52.0290337
  49.1208038  61.9604073  72.2169418  49.5691032  61.7397232  71.4005127
  49.7826729  61.8308830  72.8961945  68.0650558  58.6697960  85.8117371
  67.3458252  59.1298370  85.3789520  68.2659454  57.9373970  85.2291031
   6.5470881  59.3927269  28.2428532   6.9954758  60.2377472  28.2762985
   6.2005668  59.3405495  27.3521042  26.6738319  14.2943554  14.3862133
  27.5059738  14.6359673  14.7134352  26.7973862  13.3454714  14.3619995
  46.7752533  36.8101387  76.9403458  46.9621696  37.7412376  76.8205719
  46.3671303  36.5400238  76.1177216  23.7455750  60.2821808  57.4999504
  23.9044876  61.0936241  57.9821701  24.5174351  59.7440529  57.6756821
  83.1063004   0.2925669  85.0295715  83.7116013   0.6998304  85.6492310
  82.6351852  -0.3594746  85.5483475  55.8145981  39.2704163  47.4188080
  56.4182091  39.9061852  47.0345154  55.0929451  39.2162628  46.7922974
  79.9268188  12.9486647  62.3950958  79.9612427  12.7836924  63.3373413
  80.0401306  12.0857811  61.9965668  59.6468544  20.5269661  88.2152939
  58.8818016  20.7038898  87.6679153  59.2829552  20.1881695  89.0332336
  84.1850891  53.5806465  86.4986954  84.3035812  53.3326035  85.5818176
  83.2388458  53.6853905  86.5981140  25.4611721  61.0150948  31.3062401
  25.3374348  60.6896172  30.4146214  24.5906963  61.3060951  31.5779438
  54.7227554  67.3131409  65.9001617  55.0641289  66.5700607  65.4026337
  55.3818665  67.4720612  66.5758438  81.9557800  10.2837763  78.6520157
  81.8488312  10.4776382  77.7207718  82.4763947   9.4807711  78.6712494
  12.0457850  57.8819084  46.0079880  12.2928915  56.9571571  46.0058861
  12.8662081  58.3494110  45.8512115  50.3023186  56.4963264  75.0929337
  50.1798019  55.5523186  74.9925842  51.0430717  56.7036095  74.5232468
  38.8346863  62.8204498  31.6571350  39.2509766  63.6821976  31.6750507
  38.7304344  62.6241264  30.7261028  33.3838501  63.7302856  59.9138680
  32.6449280  63.9160500  60.4932785  33.4915085  64.5300522  59.3990746
  30.4141693   3.4411323  32.8805389  31.1418858   3.1764188  32.3178787
  30.2186432   2.6623039  33.4015274  78.3078308   0.5899847  52.4782028
  78.0818939   1.4415780  52.1040726  77.8766937  -0.0449307  51.9061546
  18.4679832  39.5351219  55.2053261  18.3827858  38.7110329  54.7258987
  19.3518124  39.8407249  55.0011597  53.5801010  54.6575470  60.0159035
  53.3299980  55.3216248  59.3735008  53.3575706  55.0466537  60.8616600
   4.5710497  66.6651917  75.0041885   3.8122675  66.0817642  75.0139923
   4.2142763  67.5258408  75.2237854  38.4813461  34.9885063  20.7534962
  38.5078278  34.4641991  21.5538921  38.7006798  35.8749390  21.0404739
  68.1447449   1.9498881  11.5234509  67.4583130   1.5532759  12.0598688
  68.8786774   1.3383124  11.5830564  74.0606918   9.9910574  60.4320831
  74.6331711  10.2038622  59.6950531  74.2599869   9.0768623  60.6339836
  73.6127014  53.3579941  79.7267456  73.7944641  54.1132355  79.1674576
  74.3070374  52.7329559  79.5182724   4.4335408  37.5183372  30.7789879
   3.6498005  37.8253632  31.2347488   4.6758356  36.7126007  31.2354069
  66.9083405  56.9646416   1.8081132  67.0023041  57.8173981   2.2326171
  66.7834625  57.1707039   0.8817364  27.1199493  59.2919769  26.3849697
  26.2385979  59.6146698  26.5729103  26.9998894  58.3601074  26.2021008
  50.3229141  17.9185429  81.5600128  51.2121315  17.6073704  81.3906021
  50.4035835  18.8719978  81.5854187  56.8104744  17.9454155   4.8676839
  56.2209473  18.3028812   4.2036734  56.2940140  17.9493332   5.6735888
  31.7107735  38.6871758   7.1980619  31.4133110  37.7993774   7.3969603
  32.6421127  38.5890007   7.0000663  71.3414764  30.0431614   7.2588396
  70.4706192  29.6617165   7.1477489  71.6819153  30.1263657   6.3681045
  53.4107056  11.6467505  73.5208664  53.6362877  11.2040138  72.7027435
  54.1420479  11.4534121  74.1073761   4.4853663  45.9331093  76.6387482
   5.3274927  46.3204575  76.8775253   4.5009160  45.8969917  75.6823502
  62.6235390  49.1877403  79.0304184  62.8862190  49.3460922  78.1236954
  63.4475746  49.1556854  79.5163956  45.9693222  70.4461899   5.1568494
  45.9952660  69.5218124   5.4039845  45.8078499  70.9094238   5.9787841
  67.7443008   9.9004602   1.7388030  67.2738419   9.5060091   1.0044255
  67.5052643   9.3620920   2.4932907  68.9815292  16.7013073  75.1455154
  68.5113373  16.5915279  74.3190155  69.9051819  16.7197437  74.8949966
   1.3315682  56.6649017  41.6424751   2.0152428  56.0080910  41.7744560
   1.2899126  57.1376305  42.4737549  13.8873644  50.3423653  63.8712654
  13.4551697  49.6865959  64.4184494  14.8173037  50.2530403  64.0797501
  19.8751602  58.4583778  87.0552826  20.3461723  57.6519432  87.2651443
  19.9945412  58.5668602  86.1117706  19.4219341   2.2293620  74.2411804
  18.5041027   1.9654068  74.3055496  19.4365273   3.1276939  74.5713577
  32.7007332  69.3130951  18.0098095  33.2606010  68.6649475  18.4372272
  32.3033600  68.8410110  17.2780552  55.9454613  44.1982384  77.4456711
  56.5447998  44.9369011  77.3389053  56.0707970  43.6720276  76.6559677
  63.3918533  30.4370747   9.3347454  63.9103889  29.8395138   8.7959766
  63.9098434  30.5519085  10.1314459   3.1424606   3.8364384  69.4136581
   4.0439973   3.9616594  69.7099380   3.2145789   3.2296615  68.6768723
  20.4848156  35.4493484  23.3254128  20.8612003  34.7470703  23.8558578
  20.5402336  35.1262360  22.4261036  83.0254059  30.2761955  59.9750671
  82.1723251  30.5586128  60.3047905  83.1353607  30.7553978  59.1537819
  50.1840019  22.3669624  15.9854498  50.9462357  22.0456047  15.5038214
  50.3836975  23.2858372  16.1643944  74.3871155  63.9462700  83.6008453
  74.6473770  64.8605270  83.7132416  75.2066193  63.4550743  83.6589508
  27.7824554  41.5243340   5.6692948  28.4968605  41.0242691   5.2745905
  27.0169773  41.3101425   5.1360049  44.0996170  31.6968994  61.8612022
  43.3915329  32.2212334  62.2352676  43.8739929  31.6160889  60.9344902
  82.8868790  36.3445282  71.7845535  82.6955185  37.1806183  71.3596268
  83.2238388  35.7898636  71.0809631  56.2208977  47.2983398  85.4366150
  55.7914925  47.2625046  86.2913437  56.9880600  47.8532867  85.5770721
  68.8637924  24.1634483  49.2008171  68.1669464  24.4535751  49.7894287
  69.0671768  24.9348698  48.6718788  76.0906830  71.3574219  73.7386780
  76.4773788  70.9809723  72.9481201  75.4993057  72.0372620  73.4156799
  33.3967056  10.9703732   5.8239307  33.7071304  10.0937624   5.5971665
  33.8228531  11.5468798   5.1896825   6.1875563  44.5307961  53.9218025
   6.5909562  44.6568184  54.7806511   6.8969603  44.2014389  53.3699875
   5.7292361  63.2952003  57.1961327   4.9227877  63.1755981  57.6976967
   5.4378080  63.3646240  56.2870216  73.9871445  55.7213364  77.7737350
  73.6198044  56.5426865  78.1003494  74.6130066  55.9896278  77.1010208
  48.6174736  41.2423553  21.6894932  49.2423401  40.6471481  22.1036205
  48.9170799  41.3113670  20.7830143  76.1334839  22.4875298  52.5121422
  75.9541473  21.7491951  51.9299622  75.3293228  23.0064545  52.4955444
  16.6408291  56.4348068   7.3120275  16.3464565  56.8994141   8.0954285
  16.9671268  57.1239014   6.7333136  23.7841339  66.5043259  36.5996170
  24.0090084  65.5906830  36.7754555  23.1017380  66.7102509  37.2384949
   5.5230532  63.7555351  24.0153522   5.8877177  64.6027298  24.2712955
   6.2543197  63.2942390  23.6046352  25.4481182  59.0031548  84.4562759
  25.1514416  59.9079742  84.5538406  24.7412796  58.4776115  84.8310013
  33.6494331   6.3964109  86.7601166  32.8387337   6.1206651  86.3323822
  33.8973503   7.2021747  86.3067780  10.2177420  21.5686131  13.3630781
  10.3392172  21.1694546  12.5015974  10.7736921  22.3476372  13.3466425
  38.7796974  64.4068069  83.3503799  38.6831398  65.3131638  83.6426392
  37.9639473  64.2162933  82.8872452  34.1466789  14.3241692   7.9809527
  34.1332779  14.4602270   7.0335665  34.0235825  13.3811159   8.0892515
  14.5194693  32.0834579  86.5792313  13.5979958  32.3384323  86.5333405
  14.8380699  32.1741142  85.6811676  32.4426651  49.7945251  61.5091209
  31.8386898  49.7893639  62.2516975  31.8762798  49.8588409  60.7401581
  24.5818710  62.7581596  11.2511282  25.3962059  62.3542938  10.9511509
  23.9206543  62.0749931  11.1401682  77.6828384  29.1773853  19.6350117
  77.5937424  28.2760048  19.9445381  76.8024902  29.4202843  19.3482761
  24.5826359  38.4947548  26.5634441  25.0649147  38.5701714  25.7400665
  24.2983799  37.5811729  26.5917034  33.5205345  24.7974358   1.5976954
  33.5523605  24.4073086   2.4712050  32.7003784  24.4772530   1.2221165
  63.5202332   2.8363256  42.9368896  63.7721901   3.2137403  42.0940933
  62.5773926   2.6894712  42.8612823  83.3946228   5.5087981  45.4204788
  83.9354477   4.9800334  44.8338318  83.8257751   6.3632054  45.4386406
  23.4237766   6.7409067  22.3527393  23.4802818   6.1893554  23.1330147
  22.9139996   7.5010018  22.6331234  14.0118351  35.9408379  38.6302414
  13.4129696  36.2419739  37.9469337  13.9873428  34.9860802  38.5664558
  33.4165268  69.6706390   3.2815289  32.9934731  69.8190689   2.4358184
  33.9021950  68.8538818   3.1663206  55.1448364  25.6801796  48.7958412
  55.6827469  25.4254684  48.0461693  54.5462646  24.9440022  48.9222870
  84.5760727  42.2263031  79.2602615  84.2096786  41.3427162  79.2247086
  83.8830795  42.7573471  79.6526642  28.1598110  21.5926781  69.9366531
  27.8868198  20.6815014  69.8295746  27.3400192  22.0810680  70.0118103
  68.3270569  19.4227104  60.8123093  68.7977905  18.7393837  61.2894936
  68.8501282  20.2128868  60.9473915   4.9248734  10.3186178  65.9249115
   5.4598656  10.9086475  65.3939896   4.8683949   9.5154600  65.4072418
  47.5293541  27.8833904  83.8674240  46.8357658  27.6592655  84.4878616
  47.2188835  28.6810589  83.4389801  30.2269707   7.2993045  72.8051224
  30.0410671   7.0114107  71.9113770  29.3818970   7.2531590  73.2522812
  50.3430252  18.8707600  33.9141388  50.7705917  18.9257011  34.7687759
  50.5941811  18.0114231  33.5754776  18.6047268  53.1438293  14.2890034
  19.0209789  52.3690567  13.9112597  19.2232037  53.8545227  14.1197777
   1.1690366  53.8442688  13.5274124   1.8064611  54.2307510  14.1278715
   1.3517292  54.2593803  12.6844778  32.9982109  64.3865433  55.7342911
  32.6188354  65.1943893  56.0802689  32.7771721  63.7202606  56.3850098
  29.8981686   0.3172719  82.2732620  30.6183643   0.9194480  82.0863571
  29.2869492   0.4422378  81.5472946  37.9378777  49.4571762  69.2804642
  37.3177681  49.0706177  69.8987427  37.5512314  49.2944031  68.4200974
  63.4505310  48.7129288  56.0498734  62.6036339  48.9363899  55.6637917
  63.6488762  49.4458008  56.6327858  36.7923698  27.7045956   3.0633919
  37.6256866  27.4775200   2.6507785  36.7397118  28.6573925   2.9883194
  46.4231415   3.6769855  38.0744667  46.2159233   2.8756654  38.5552788
  46.3718758   4.3708148  38.7318916  79.1605530  42.2249832  62.4438133
  78.2298584  42.0036697  62.4111252  79.1781998  43.1509590  62.6856537
  76.5270233  57.6342545  62.5451050  75.7293243  58.0636215  62.2359962
  76.6520538  56.8998718  61.9440384  78.3837280  64.0539551  35.6350403
  78.1166306  64.9637146  35.5038185  79.1360703  63.9390984  35.0545082
  35.6199417  67.0512009  85.5596542  36.5314369  67.0505066  85.2674026
  35.1823883  66.4268188  84.9809265  81.8234253  19.0011349  79.2718124
  82.4930878  19.1009579  78.5951920  81.0688782  19.4844093  78.9351501
  12.0057325  50.2412491  81.5822601  12.6058283  49.5931473  81.2133713
  11.6130037  50.6655617  80.8193970  21.0414944  59.6666756  55.7387314
  20.9917145  60.5677757  56.0577507  20.7978039  59.1314201  56.4939461
  38.1014442  62.5156212  34.5873299  38.4913673  62.5707092  33.7148895
  37.6664963  63.3595695  34.7090073  65.0720444  42.6605568  51.8110046
  65.1755295  43.2715836  51.0815086  64.7303925  43.1971436  52.5262527
  66.7952042  52.6468391  79.7365875  66.9453430  51.7413750  80.0082932
  67.2247849  53.1735191  80.4106064  82.2943802   1.6003072  13.6948538
  82.8479004   1.8000698  14.4497967  81.4020157   1.6182970  14.0406904
  84.3554916  64.8920746  43.2606812  83.7438965  64.6542587  43.9575462
  84.8573761  64.0930939  43.0995102  46.0318909  69.1608200  77.8672714
  46.1686821  70.1071777  77.9111633  46.8873978  68.7852554  78.0753479
  13.6759005  23.2184906  68.4761810  14.1777420  23.9289284  68.8757629
  14.0716438  22.4198952  68.8252792  80.4255676   1.7194331  63.0125542
  81.3335800   1.6786941  62.7124138  79.9232712   1.9369379  62.2272987
  15.2716703  45.8329010  45.0399361  15.1445351  45.1875381  44.3445396
  14.4139385  46.2448006  45.1441689  81.7099533  43.7529068  32.9657059
  80.8307648  43.3758621  32.9988823  82.0317230  43.6897888  33.8649902
  74.4710464   7.1793189  60.7078056  75.2789841   6.8398824  60.3227730
  73.8612213   6.4423337  60.6733017  57.6248741  56.4958191  69.7754669
  57.2938385  57.1865234  69.2013779  57.2514381  56.6979408  70.6333237
  26.9105167  31.1713238   1.6506253  26.5251236  30.6480370   2.3533883
  26.1610718  31.4681587   1.1344341  12.1552563  26.6406326  84.0617599
  12.4998665  26.8582325  84.9278564  11.2107506  26.7754517  84.1389923
  34.7124214   0.2900642  14.4359179  34.7131996   0.5974568  15.3424177
  34.9509506   1.0611304  13.9213381  15.5048532  17.1968575  87.1215668
  15.8686419  18.0789394  87.0452728  16.2574539  16.6166363  87.0068130
  47.3451309  30.0117302  82.3932724  46.4119987  30.1878586  82.2729645
  47.7273331  30.1421852  81.5254440  63.8952179   0.2009734  52.6575203
  64.3359222  -0.0046830  51.8330727  63.0918503   0.6498515  52.3941917
  36.5661850  61.0721436  14.4165182  36.4462585  60.5132332  13.6487513
  35.6829300  61.3666115  14.6387291  77.8777771   0.1312826  87.8998642
  78.5152206   0.8070474  87.6691360  78.0064392  -0.0090512  88.8379440
   0.0066915  39.9509430   4.1590600   0.7837880  40.1684036   3.6442173
   0.3524905  39.5560875   4.9595256  36.1453476  41.2871780  28.0168610
  35.4538841  41.3540535  27.3583508  36.4047012  40.3659515  27.9991245
  45.6596718   3.0253603   4.6809273  44.9143524   3.0999942   5.2768784
  45.5254326   2.1901863   4.2329369  73.2617569   6.7520232  82.8151016
  73.8743286   7.2753043  83.3319855  73.6733475   5.8898129  82.7566528
  35.4959221  23.9527321  21.0018425  35.1285248  23.7836990  21.8694115
  35.3064346  24.8764496  20.8373127   9.9249945  56.0915909  21.9252186
   9.7236242  55.3107033  21.4095650  10.4362402  55.7645531  22.6654243
   2.7899561  41.1242104  78.2358780   3.5929396  40.8403854  78.6727905
   3.0494187  41.8993721  77.7378464  73.8916168  26.2707405  43.2932663
  72.9905319  26.5489445  43.4572029  74.4109344  26.7469139  43.9411850
  45.1732368  60.9022064  56.4144440  44.9249687  60.2041931  57.0205574
  44.7113457  60.6905212  55.6032219  55.3656769  29.5741863  66.5284500
  54.9200401  28.7298241  66.4599609  54.7716331  30.1172028  67.0465927
  36.4016304   1.1885861  28.5567894  36.3243141   2.0711992  28.9190731
  35.7532730   0.6745073  29.0380268  32.7367668  48.3628769  77.4717941
  33.3391418  49.0579872  77.2068481  32.7058182  48.4237938  78.4265518
  58.7178001  20.0458603  45.2599869  59.2921181  19.4734535  44.7513199
  58.9398994  19.8587093  46.1720581  37.0781898   7.3230081  12.5021172
  36.1910286   7.6807327  12.5368872  37.5975723   8.0106888  12.0855007
  37.4888191  61.4591408  21.7267265  38.3150444  60.9792824  21.6690769
  37.6927452  62.3292274  21.3838100  15.9258718  44.1614075  60.5080338
  16.0120907  43.2958527  60.1085167  16.1364765  44.0211563  61.4311829
  54.3571472  25.9724731  51.3253670  54.5414467  25.7773418  50.4065666
  53.4093895  26.1027679  51.3571129  66.2966385  46.5515137  75.0748062
  66.4170761  45.6814728  75.4552689  65.9924164  46.3829384  74.1830292
  86.1913528  51.1970978  68.4837418  86.1488800  51.5126686  67.5810547
  85.3381042  50.7908173  68.6358261  79.7859955  54.8634529  72.5543365
  80.3128891  54.8237572  71.7561874  79.6882858  55.7992096  72.7305374
  57.6714973  12.5679922  41.5467300  58.2743988  12.2487621  40.8752861
  58.2274704  13.0522566  42.1571541  52.3957291  47.6027946  11.5557051
  52.1532516  48.2998009  10.9461031  51.6090050  47.4605370  12.0820675
  83.6101608  34.3406601   8.9156885  82.9544983  35.0250702   8.7817783
  83.6227188  34.2030373   9.8628597   7.6106100   0.2243738  79.1411209
   7.2260118  -0.5187890  79.6059036   7.1362181   0.9863465  79.4736633
  52.8777657  37.9274445  80.2185745  53.7702179  37.7433929  80.5116348
  52.3510742  37.2243004  80.5986023  10.6282644  33.3489799  18.6518364
  10.8192501  32.8101692  19.4195862  10.0275097  32.8173866  18.1295948
  22.5061741  49.1596565  63.5214958  22.4294319  48.3286438  63.9902840
  21.6868267  49.2353172  63.0324402  67.4671707  66.8442764  49.7878380
  66.5653381  66.6667938  49.5205688  67.4491043  66.7890015  50.7432709
  67.1631470  45.7117310  24.0472469  67.0729370  46.3042908  24.7935524
  66.4100342  45.9107895  23.4909763  45.9593315  16.5477180  59.1779900
  46.1046028  15.6588421  59.5020714  45.3346138  16.9285641  59.7951736
  47.6846809  52.6629715  39.0325127  46.7950706  52.3466492  39.1898880
  47.5657616  53.5354958  38.6572876  47.1893883  12.1081448  51.9217339
  46.4814873  12.3522310  52.5179977  47.8411293  11.6880531  52.4829750
  43.2515564  59.4475937  81.9898224  44.0164032  59.3716888  81.4193115
  43.5060043  60.0958176  82.6465530  69.9299316  42.7965622  62.9266129
  69.9433746  43.5305405  63.5408859  70.8419647  42.6954803  62.6542091
  86.6023026  29.3202972  35.0705528  86.7980728  28.8953476  35.9056129
  85.7619781  29.7554703  35.2144623  25.7884941  56.9535141  44.6221161
  26.1417122  57.0502052  43.7377396  25.1789532  56.2183151  44.5575180
  69.0499496  27.3951435  76.1243591  69.6684952  26.6704082  76.0327454
  69.1332321  27.6670246  77.0383453  65.0469055   8.5372829  67.8831863
  64.9898148   7.6137013  67.6383057  64.3551102   8.9626236  67.3764954
  45.7855453  35.5186462   2.0660996  46.3859711  35.6457901   1.3315535
  45.4086380  34.6510010   1.9199414  46.3836823  19.0396156   5.3959146
  46.6361809  19.6585560   4.7107940  46.5712051  18.1786976   5.0218968
  79.8387756  37.2335968  52.1040535  79.2204819  36.6412086  52.5318604
  79.5841751  38.1051521  52.4070435  85.8315582  18.3460407   3.8096116
  84.9009781  18.1681900   3.6731954  85.9181519  18.4556828   4.7565603
  71.0579605  66.5360413   3.6327386  70.6217499  65.9757996   2.9907980
  71.7473679  65.9845963   4.0026727  37.1305542  24.4567280  18.5873184
  37.3674698  23.5712433  18.3116055  36.5508957  24.3268414  19.3378906
  39.8868942  60.4949722  19.8627605  39.5993195  60.0599823  19.0600681
  40.8397217  60.4038086  19.8564148  86.0138702  45.9830742  37.5576591
  86.5597916  46.2442093  38.2992897  85.8587723  46.7958870  37.0765038
  51.7499466  69.4252090  80.5088501  50.8131905  69.5089111  80.6869278
  51.9002495  68.4813766  80.4557114   3.4707582  31.1150208  48.5668678
   3.2410581  30.1900272  48.6555061   4.1148477  31.1351032  47.8590698
  27.6362324  48.2227135  86.9857712  28.3962917  48.6430511  86.5834503
  26.8988762  48.4815140  86.4329987  71.5044708   5.1843534  86.5741730
  71.1085358   5.7059274  85.8760071  72.3179855   4.8531327  86.1937485
  74.0718994   4.5372105  85.7625046  74.8255386   4.8909545  86.2348633
  74.4546814   4.0142169  85.0580978  10.2118711  23.2514076  21.9282131
   9.8858109  24.0789108  22.2819824   9.5408030  22.9771538  21.3031654
  68.1002502   8.3338280  36.4312248  68.6257706   8.6931009  37.1460571
  67.2254181   8.2303686  36.8056526  30.5218601  60.7799835  55.6617355
  31.1977654  61.2512321  56.1488800  30.0430317  61.4640465  55.1937447
  21.0548630  39.9329834  19.1888218  21.8514671  40.4406281  19.0340767
  20.8335361  40.1075211  20.1035805  42.0555115  25.4729404  71.5776978
  42.3507652  25.2550430  70.6936340  42.8394737  25.3867168  72.1201019
  80.9314117  14.2015295  72.7160339  80.2459183  14.5967121  73.2546997
  81.3246613  14.9391775  72.2497025  63.4982071  12.9849300  53.6055946
  63.0859528  12.1464081  53.3978539  64.1746750  12.7669096  54.2467575
  58.1121330  54.8012352  51.5659523  58.5878143  55.3999252  52.1417351
  57.9100113  54.0467567  52.1192551  86.3748703  51.4809952  83.3941040
  87.1263199  52.0051384  83.6712875  85.6142197  51.9607086  83.7220001
  38.1837311   5.5417662  71.2901917  37.9029655   6.4315996  71.0766525
  37.4505882   4.9882474  71.0212173  50.8663254  48.6999207  49.8757210
  51.6395645  48.6418152  49.3145103  50.1914215  49.0821075  49.3147697
  76.6283340  27.5315247  84.2484665  76.5682907  26.8694458  83.5597916
  76.4456406  27.0531597  85.0571823  63.7896309  57.4056206  70.1049500
  63.2471542  57.2941132  70.8856659  63.2091217  57.8210754  69.4672699
   9.0999870  48.1059761  16.1422596   9.1799517  48.1906891  15.1921759
   8.1692657  47.9384079  16.2902889  10.0553293   9.4838667  25.2554836
   9.6956453   9.2183676  26.1018696   9.3706551  10.0260715  24.8637333
  78.2683563  59.4929352  81.9688187  77.7143173  60.2463722  81.7648315
  79.1011124  59.6841965  81.5373535  32.8429337  17.8541965  76.2377319
  32.4557915  18.7173042  76.0914383  32.9023743  17.7766304  77.1899261
  62.3406143  28.9394798  47.2058830  61.4195518  28.9783802  47.4634895
  62.3679962  29.3660412  46.3494225  16.0669727  45.5134163  53.6464729
  15.9165649  45.1445580  54.5168495  17.0117702  45.4362869  53.5136528
  64.8831024  19.5480213  64.5953674  64.8402328  20.2686977  65.2238693
  65.3475342  18.8520565  65.0603027  67.5648651  68.6918716  15.9555035
  67.2487335  68.4730453  15.0789127  66.8587646  69.2094727  16.3424721
   8.5711765  41.1032829  86.3679199   9.4507017  41.0689049  85.9917679
   8.2983446  42.0139542  86.2562408   2.4488077  30.7864704  24.5317268
   3.0914989  30.1786442  24.1660385   2.8220429  31.0527763  25.3719711
   8.3485823  54.2015877  50.0876503   9.3005552  54.1836319  49.9893837
   8.1409683  55.1233368  50.2409668  27.1990223  61.0726433  38.6735802
  26.8452187  61.4538879  39.4771385  28.0037937  60.6345634  38.9504585
  50.7746544  49.2382240  63.8353767  50.5247116  49.9355049  63.2291069
  50.0218124  48.6471329  63.8440666  69.3735657  10.4293785  83.2287598
  70.1399155   9.9208469  82.9635468  68.6296997   9.8566952  83.0418472
  60.1531563  54.3672981  54.5610466  60.4957047  53.7212677  53.9433632
  60.6793442  55.1513252  54.4040108  81.1159592  35.3491249  78.7595901
  80.7106705  35.4527893  77.8986511  81.5766907  34.5116806  78.7081604
  77.5315857  46.3285103  36.2319069  78.0351639  45.6627731  36.7003479
  77.9272232  47.1587830  36.4971428  42.4264870  45.7209625  15.8293514
  41.5351830  45.9392319  15.5570173  42.8262405  46.5649681  16.0393066
  81.6865234  59.1914406  21.6916466  81.4948349  58.5598373  22.3848743
  82.5711746  58.9682198  21.4021759  62.6216087  38.1001778  43.4934387
  62.7821503  38.7809296  42.8399582  62.8054657  37.2801552  43.0351982
   6.7163091  68.4331131  66.0373383   7.1136065  69.0856552  66.6140366
   6.3324170  67.7893600  66.6326828  81.1040955  55.8013268  70.5061569
  80.3891373  56.3060341  70.1184311  81.7449570  55.7129402  69.8006668
  85.0007782  26.2186546  20.9909000  85.8233795  26.6200809  20.7108593
  85.2595978  25.5819111  21.6570854  54.9996300  53.3464165  85.5440369
  55.0281296  53.6554070  84.6385269  54.2908516  52.7031898  85.5554199
  60.8931046  66.7778015  27.9105301  61.3106308  66.8356552  27.0511360
  60.7542419  65.8405762  28.0467434  32.7774696  10.7630014  77.0493698
  33.7227020  10.8265066  77.1862335  32.4007683  11.3532038  77.7020493
  10.7170706  39.5181885  18.2167606  11.5354700  39.0234184  18.2574596
  10.1290874  39.0582581  18.8159027  66.2144165  29.1249161  78.2133865
  66.2374420  28.1936588  77.9932404  65.6474991  29.5144424  77.5477295
  22.3034439  34.5464554  69.2378922  22.2207546  33.9155502  69.9529800
  21.4241619  34.6007767  68.8635330  64.5342484  53.5569344  57.0047836
  64.0738068  54.3562355  56.7491608  64.7188416  53.1119232  56.1776657
   6.1134481   3.6055000  72.9842377   6.8357897   4.1709075  73.2576752
   5.4970140   3.6336713  73.7159805  53.7424698  58.4038925  40.7077751
  54.3482475  58.9542885  40.2114601  54.3039932  57.9022903  41.2988091
  77.2706604  48.0661964  67.7935410  77.1036072  48.8278809  67.2384186
  78.2210312  47.9549751  67.7679214  59.7383919  63.9625511  28.5173969
  59.1814194  64.1174927  29.2802925  59.1897545  64.1966782  27.7687893
  67.9154358  63.8718605   9.8067589  67.9141998  63.9685059  10.7590666
  68.2994385  63.0084496   9.6541386  83.1664124   1.8088239   4.1703501
  83.2423630   1.9929787   3.2341077  82.8284073   2.6210406   4.5475616
  12.6131887  43.6185341  16.4959908  12.8872719  43.0342789  17.2029266
  12.6418028  43.0731659  15.7098703  12.5637007   9.2322311  11.5886593
  13.1477118   8.9183531  10.8982649  12.8510904  10.1298504  11.7557459
  44.8986511  69.0662155  45.0235367  44.5653801  68.1693115  44.9966469
  45.8489532  68.9706192  44.9601135  58.1941605  67.8397293  58.0072784
  58.6699181  67.7280197  57.1842308  57.3229599  68.1346512  57.7422066
  55.7505226  45.6470490   5.6769142  55.8941727  44.8557091   6.1959286
  54.8071098  45.6596642   5.5155358  55.4513016  14.3359871  30.3918457
  55.1852303  14.1293669  31.2878056  56.1035194  15.0297346  30.4896374
  76.9064484   3.5569327  73.7387772  77.0523453   2.8841298  74.4038239
  76.9038086   3.0779443  72.9100494  37.3029976  42.8443260  60.7637062
  37.4070473  41.9074440  60.9300156  36.7886505  43.1635323  61.5051804
  84.9895020  36.8460083  29.7501717  85.8913651  36.9924011  29.4647961
  84.4662323  37.4267654  29.1977768  47.8418198  52.5198517  79.2422714
  47.1609268  52.3788147  79.9000854  47.5694389  51.9844475  78.4970322
  40.9010696  12.9705849  69.6221237  41.4402466  13.3429594  70.3198700
  41.3457832  13.2256470  68.8137817   0.5035649  40.7421799  -0.0973833
  -0.0064801  41.5389595   0.0483078   0.9374695  40.5790710   0.7400858
  38.7976532  60.9488754  15.8026218  38.1128120  61.3490601  15.2668285
  39.4615021  61.6325684  15.8926392  25.3800793  32.1802368  69.2749710
  24.9281654  32.9059410  68.8444290  25.6990757  32.5510902  70.0977325
  55.6975899  49.5337067  83.1300125  56.4439659  50.0954399  83.3388443
  55.5405388  49.0359497  83.9323807  52.0181808  45.4120293  88.9767151
  51.6199036  46.0795326  88.4180984  52.9603882  45.5524902  88.8831940
  50.6213074  40.7700882  59.7256889  49.7799988  40.3273315  59.8370285
  50.4117279  41.5613518  59.2294922  71.2077560  69.9162674  41.9838791
  70.7977753  69.1181030  41.6505966  72.0115509  69.6140594  42.4067383
  48.4609184  66.1206589  50.3500404  47.9988632  65.8904266  51.1561012
  48.4380112  65.3211975  49.8241425  19.0963783  42.4244957  72.7203064
  19.6547909  41.6749458  72.9266586  18.7741661  42.2470284  71.8366089
  33.9658051  13.5740194  16.8253269  34.4649887  13.9642792  16.1078682
  33.2855492  14.2180967  17.0219193   1.0427500  45.0097656  49.7526016
   0.2440044  45.5335655  49.6903801   1.7286093  45.5758972  49.3985901
  69.4424133   5.3213558  65.4896088  69.6126175   5.8510985  64.7107468
  69.6962967   4.4339948  65.2359085  76.6987152  50.4510193   9.9453144
  76.1390686  50.5215187  10.7186527  76.6803589  49.5208092   9.7203741
  18.9074211  59.9299164   7.9051023  19.7568016  60.0104446   7.4711661
  18.2714443  60.1806946   7.2351193  31.0361748   5.5927668  66.5437012
  30.6275215   4.9372420  67.1089630  30.6402664   5.4482298  65.6842880
  78.7690430  65.2039185  21.0344238  77.9288940  65.5015259  20.6854057
  79.4109421  65.8080063  20.6612396   8.9403486  44.7730522  75.2125092
   9.8269854  45.0666809  75.4220047   9.0656233  44.0638962  74.5819244
  80.0956039  49.2263680  77.5571060  80.7412949  48.7748070  77.0135880
  80.3807144  50.1401215  77.5584564  10.0811844  69.1956635   0.7247981
   9.4804497  69.7367935   1.2371800  10.3666372  68.5134506   1.3325201
  31.4707012  54.3621216  60.5571022  32.3677063  54.2267990  60.2516518
  30.9684849  54.5280647  59.7593079  50.1051903  16.6887760  47.7561989
  50.9256401  16.8144875  48.2329559  49.6262856  16.0390911  48.2707787
  35.0496445  24.8867340  14.2553377  35.2614441  24.7878075  13.3271208
  34.1698761  25.2638321  14.2613945  57.1421204  52.1912613  14.6282177
  57.2330666  51.7133560  15.4525757  56.6523018  52.9799080  14.8613510
  77.7738190  31.1243420  73.4321899  76.9150314  30.9994602  73.0283051
  77.8187256  30.4521713  74.1121902  45.6082726  27.3584843  59.6273689
  46.2592239  27.6861420  60.2479630  45.8905983  26.4645958  59.4337578
  34.2963791  38.5588837  65.7482300  34.9487343  38.6604576  66.4413071
  33.9808159  37.6605148  65.8461304  53.3815842  47.7590446  72.6667709
  53.2356491  48.7049522  72.6807404  54.2011032  47.6360359  73.1458130
  13.0853643  63.7987022  16.2129841  12.9662228  63.1149788  15.5537701
  14.0330734  63.9253731  16.2580986  24.0650139  45.5282326  46.8843536
  25.0053329  45.3492661  46.8850479  24.0016689  46.4759674  46.7659721
  15.0098991  62.9231834  82.8150330  14.1190500  63.2106667  82.6151047
  15.4015150  62.7446442  81.9600525  82.3476105  49.9299278  10.1478338
  82.5042953  50.4908371   9.3881865  81.3955688  49.8381996  10.1855392
  30.2163200  42.8552437  51.7882042  29.2898788  43.0572586  51.6573410
  30.5601234  42.7245903  50.9044838  65.4414673  45.9237061  68.3291550
  65.5150070  46.8773270  68.2913437  65.5966873  45.6356544  67.4296188
  68.4835815  26.8720245  82.8378448  68.2999954  26.9644718  81.9029770
  68.6497498  27.7653618  83.1387863  53.9805603   5.6065855   0.1842335
  53.1361618   5.3955092   0.5825651  54.5835648   5.6770182   0.9242733
  29.8140659  33.5488472  68.8457184  30.0934601  32.6335487  68.8257294
  29.3893185  33.6881561  67.9993057  22.1885853  65.4506531  11.7533197
  21.9773865  64.5171738  11.7377100  22.6670341  65.6016312  10.9381361
  46.6256676  62.7793884  46.0328178  47.4277916  62.4305267  45.6440697
  46.2864723  63.3880119  45.3764954  58.5392265  56.0162086  13.5190840
  58.6113663  56.8523178  13.9794617  59.3691826  55.5732079  13.6955948
  12.2417974  29.2649746  82.0250092  11.6193075  28.5391350  82.0685196
  12.0865870  29.7620888  82.8281403  66.8847046  46.0489006  72.2168808
  66.8384628  46.9941292  72.0732117  67.4599533  45.7288704  71.5219727
  47.3710480  68.2225647   4.7323518  47.0633392  67.3252487   4.6044121
  48.1937218  68.1275024   5.2123575  61.6490669  49.3647614  13.8930979
  61.0878487  50.0115242  14.3208418  61.0820198  48.9468803  13.2449770
  42.1216812  36.1854553  35.7960243  42.8593941  36.1527596  36.4050751
  42.4829063  35.8757935  34.9654465  80.7702484  63.3829308  -0.0869911
  81.7233963  63.2997208  -0.1155736  80.5096436  62.8864784   0.6888016
  72.2339554  10.5055838  62.3844490  72.4216614  11.4177170  62.6058350
  72.6974106  10.3590069  61.5598526  82.2648087  37.0956039  57.6412239
  82.4968948  36.1914024  57.8528595  82.7174759  37.6199570  58.3018074
  48.4213943  27.8728752  28.8270264  47.6810951  27.4986134  29.3046417
  48.0845451  28.6938763  28.4682465   0.8430146  31.7938137  74.7983551
   1.6949397  31.7927990  75.2347717   0.7812901  30.9295807  74.3915100
  30.0258350  51.6483688  53.9676056  30.4507732  51.4468307  54.8012962
  29.5069027  50.8690224  53.7687149  49.2758217  31.9338436  33.3372345
  48.9248085  31.4144402  34.0605888  48.6115799  31.8686066  32.6511192
  25.2438908  42.2284546  60.7207565  25.8520451  42.5173836  61.4011230
  24.4349117  42.7061462  60.9040489  28.7513695   9.2908335  17.9266491
  28.8979340   8.7501125  18.7027740  28.2067909   8.7483969  17.3561859
  40.4437294   5.1288247  55.4061241  40.5510597   4.3344426  54.8829880
  39.7445869   5.6125813  54.9663391  23.0850410  23.8611794  20.7179909
  23.6350288  24.6373062  20.6113472  23.2764759  23.3244534  19.9488945
  70.3447952   7.7543254  43.6050682  70.0902252   7.1765828  44.3245392
  71.2905655   7.8610916  43.7067909  75.6471100  47.3259621  14.0874557
  76.4949570  46.9534073  13.8454084  75.2289429  46.6462784  14.6160393
  67.6368103   5.0782223  46.3757019  67.7614594   5.8248901  46.9615173
  68.3934097   5.1044302  45.7899513  81.7335968  28.0926685  41.1015892
  81.1202240  28.8247356  41.0376511  82.3000031  28.1871815  40.3357697
  28.2841740   0.9421128  20.2641678  27.4949913   0.5887114  20.6746941
  28.9213867   0.2298300  20.3175030  74.8036499  31.3440819  79.4808350
  75.3469238  31.0938473  78.7335358  74.8494263  30.5929623  80.0724106
  20.4132652  40.0246849  22.0329876  20.0892029  39.2286644  22.4543762
  20.8181801  40.5234756  22.7425537  50.2438011   0.2256113  60.9488487
  49.4447212   0.5435244  60.5285721  50.0418129   0.2336307  61.8844604
  31.6917782  31.3718681  66.4049530  31.9861336  31.8684597  65.6414185
  30.7434998  31.3025246  66.2945404  40.5305481  62.4764481  82.1467819
  41.0538673  62.1202888  82.8647766  40.1153526  63.2556038  82.5165939
  79.4368896  51.9500465  32.7619896  78.5769806  51.8908997  33.1782761
  79.7304916  51.0419388  32.6887169   6.8855968  23.7506180  31.3947735
   7.8379931  23.8115215  31.3208542   6.6054111  24.6383362  31.6176739
  79.4412613  22.0456944  49.7768593  78.9619751  21.4510193  50.3538208
  78.7832642  22.6750526  49.4815865  68.2120132  51.2922783  87.8023758
  67.4015045  51.2615356  87.2940826  68.3386612  52.2212486  87.9952774
  78.2258453  32.1600838  41.8964272  77.4013672  32.5295563  41.5802650
  78.4816971  32.7306671  42.6211395  67.4920502  35.9084854  46.0496750
  66.7212219  35.9728661  45.4858398  68.1789322  36.3715630  45.5701103
  52.2987175  17.6177235  38.5935936  53.2082253  17.5072155  38.8707581
  51.7967987  17.0659313  39.1934509   3.8041999   8.4487524  46.5550117
   4.7259560   8.6327963  46.7359123   3.3958890   8.3984957  47.4192963
  71.2424698  41.5550957   6.4647312  71.0920181  40.9542999   5.7349076
  70.4530869  42.0955505   6.4966855  74.3014069  60.9868736  23.5826416
  74.0044479  61.8706207  23.3657722  75.2560120  61.0536919  23.6049213
  84.9491730  54.4369125  50.1819725  84.5373306  54.2944069  51.0342140
  85.1242981  55.3775635  50.1548805  73.1809692  22.7627029  62.1835060
  72.4967957  23.3807030  62.4408264  73.3885498  22.2867260  62.9876137
  62.2138329  51.1957245  34.5211525  62.6109657  50.8526115  35.3216476
  62.7640991  50.8552284  33.8158150  86.1562424  46.8529892  82.0193024
  85.7523270  45.9851875  82.0164948  87.0715561  46.6904106  82.2473526
  85.2247925  49.6454430  42.8937187  85.0672302  49.0669098  43.6398430
  84.3659592  50.0178490  42.6938400  20.9882584  37.5165215  51.6067505
  20.8112984  37.1771469  52.4841003  21.8841095  37.8501892  51.6552048
  74.0095215  14.3716068  31.7807961  74.0305252  14.2546616  32.7305946
  73.1842575  14.8268652  31.6137257  21.0670433  64.5899124  38.8092003
  21.0399723  64.4417496  37.8639259  21.1074200  65.5418091  38.9013786
  69.0342407  19.5553894  86.5471115  68.6650009  20.1506023  87.1995087
  68.5509415  18.7380333  86.6678848   5.9950929  30.8438759  38.3591461
   6.7037725  30.2711773  38.6524429   6.3360553  31.2608929  37.5678978
  10.1753073  69.4706039  77.7525864  10.9096861  69.4987259  77.1392899
   9.4275846  69.7869339  77.2455597  63.8666801  55.7476578  44.3686523
  64.1734467  55.8046684  45.2735710  63.6046829  56.6414223  44.1478119
  77.5025940  28.3939686  15.3830290  77.3757324  28.8422604  14.5468645
  78.1867523  27.7480488  15.2071114  59.6220589  60.4485703  81.4950714
  59.2847977  60.4573212  82.3908463  59.0916862  59.7904167  81.0458832
  48.4105301  37.4775925  33.3336220  48.0573616  37.6996384  34.1951332
  48.9135857  36.6765442  33.4801941  65.1604080  29.0686226   7.5540071
  65.5753937  29.6069374   6.8800378  64.9467697  28.2490597   7.1080194
  59.5342255  35.2144051  57.1070671  59.5959854  35.5099564  56.1987343
  60.3463516  34.7305374  57.2572403  66.5108414  48.3780556  58.5272179
  65.7369690  47.9414902  58.1711845  66.2095184  48.7681999  59.3477211
  56.7439880  46.4065742  14.5927382  56.0582733  45.7393379  14.5640898
  57.3274193  46.1817055  13.8679790  76.1426620  67.6797180  13.1561728
  75.8960953  66.8181686  13.4925671  75.7790070  68.2975388  13.7904320
  24.8480263  67.8611526  34.3389435  24.2693920  67.7366486  35.0912132
  24.7187061  67.0773163  33.8049850  40.0004120  50.8724861  79.0746536
  40.6311874  51.5354347  79.3554688  39.5508423  51.2702408  78.3290634
   3.2142267  28.4345951  88.2779465   3.4460099  29.1475754  88.8730621
   2.3172438  28.6305542  88.0072937  17.5162716  59.9361343  63.1536446
  17.3597851  60.3130264  62.2877922  17.3110600  59.0068398  63.0510063
   3.1434078  61.0878563  16.4507713   2.9051478  61.7393570  15.7912149
   3.5098221  61.5998650  17.1717567  48.8085365   1.6920695  31.7336483
  48.1157837   1.9143760  32.3556633  48.6354523   2.2477424  30.9737110
  36.8556976  35.4209213  24.8914852  37.7742348  35.5693130  25.1162109
  36.4796906  36.2989159  24.8284378  51.1827393   9.0435925  10.9242764
  51.8289185   9.0370121  10.2181339  50.4815750   8.4713211  10.6126518
  74.7950134  61.8048096  35.5489464  73.8597641  61.9173889  35.3790588
  75.1500854  61.4734230  34.7241211  60.1775055   4.0557151  73.5482254
  59.4490814   3.4584360  73.7181854  60.9344254   3.4822466  73.4280701
  44.0280228  68.0450287  52.7811775  43.1749306  68.4456329  52.9484673
  43.8258438  67.2442474  52.2973328  83.2065506  55.3751755  82.7226334
  83.7721634  56.1421509  82.8124390  83.0308762  55.3157730  81.7835693
  69.4284210  69.5460281  34.7940102  68.7055740  69.0836182  34.3698616
  70.0300064  69.7564850  34.0798416  45.2523842  32.7984734   1.6012185
  44.8216019  31.9919567   1.3180475  45.5604057  33.2029610   0.7902036
  55.7000237  64.9744110  24.0643425  54.8339920  65.3039551  24.3043919
  55.7660637  64.1289291  24.5082188  12.2995062  25.9479847  78.7751846
  11.7980556  25.2107944  79.1235046  13.1206102  25.9327850  79.2669067
  78.6859665  58.0431175  50.4866524  78.2418365  57.6607933  49.7298126
  78.8185043  58.9606438  50.2482986  68.6852417  18.0077839  24.1604424
  68.8248672  17.0981636  24.4237461  67.7631836  18.1748199  24.3557377
  36.6503105  36.7424774   5.2613349  35.7457886  36.4606552   5.1247640
  36.8518524  36.4746246   6.1579218  63.2210503  70.9702377  70.2139664
  62.4074707  71.4655457  70.1191788  63.2339821  70.7045822  71.1334763
   5.9684024  35.7971725   8.7478418   6.0920444  36.4247398   9.4599524
   6.0950780  36.3115463   7.9505939  28.1730328  68.5554276  87.9444580
  28.3445168  69.1734543  88.6549988  28.4629059  67.7100067  88.2871933
  77.4803619  35.1077614   2.8900855  77.6081924  35.2394524   1.9506443
  78.1382828  35.6677399   3.3021443  60.8653755  39.5883636  34.2949905
  60.7635384  40.5401306  34.2960472  60.9523506  39.3557663  35.2194176
  54.2591743  46.2838745   2.4449787  53.9910278  46.6652527   3.2809696
  54.3592758  45.3498688   2.6289415  25.1482582  55.9398766   0.9774426
  25.8402615  55.3288689   0.7244025  25.4201756  56.2681160   1.8345028
  75.4469986  15.7977057   6.8827519  74.5113602  15.6005764   6.9269838
  75.5253143  16.4283752   6.1669631  49.1786995  12.1202402  25.7900276
  49.3419914  12.6560173  25.0138130  49.4332390  12.6788187  26.5244865
  19.2316170  36.1344376  81.6365509  19.5679607  35.2608986  81.4364624
  18.7590923  36.0259018  82.4618835  79.8149872   5.3615761   0.2382138
  80.5945587   5.8435593  -0.0378337  79.6062775   5.7180362   1.1016992
  29.9086647  54.3390503  29.6066837  29.1563454  54.4348106  29.0226650
  30.2006454  55.2358513  29.7701626   6.1435843  68.5413589   1.1484132
   6.1437464  68.4824829   2.1038010   5.2670269  68.8564835   0.9280146
  18.3846722  62.8978271   3.9500620  18.0658970  63.5547676   4.5689659
  19.3366833  62.9192200   4.0472698  49.7839279  67.6837082  46.7389641
  50.2839966  67.3348999  46.0010643  49.9099731  68.6311646  46.6872101
  57.0396919   1.1253080  24.9296627  56.3630600   1.0480026  25.6022854
  56.7969780   1.9077479  24.4345798  42.9088974  43.2637253  81.3480148
  42.1183968  43.3102722  80.8102646  43.5987434  43.0032043  80.7377090
  23.7367401  58.4206200  23.1687908  22.9614544  58.9766998  23.0917301
  23.9680786  58.4594727  24.0968018   3.4101434   4.4408932   5.9681277
   3.5934794   4.7396827   6.8588266   3.1839998   3.5161145   6.0675039
  68.6678162  25.8553486  25.1524811  69.2962189  25.8616467  25.8744946
  68.8185349  25.0194817  24.7110691  45.8028183   6.6559038  88.2168121
  46.3946266   7.2532802  88.6741257  45.3043289   7.2191691  87.6248016
  55.6411095  49.0099831  20.8672600  56.0684662  48.6553345  20.0876293
  55.9674911  49.9074898  20.9319592  74.8212585  25.2180958  28.4245300
  74.6772156  24.7611122  29.2531719  75.3976746  25.9480667  28.6506290
  86.8086700   9.0150452  49.9454994  86.5174484   8.1599588  50.2621231
  86.0167923   9.5527773  49.9452896  52.6844063   3.9436295  54.3070145
  53.1205101   3.4539831  55.0043564  52.5146942   4.8047357  54.6890182
  37.3825264  43.6169662  51.7283592  38.1558495  44.0272217  52.1155205
  37.0637741  43.0200768  52.4053764   2.3427129  45.2652779  86.3347244
   2.6497502  46.0700836  86.7521591   2.2581749  44.6395340  87.0541153
  71.0667267   6.7296247  84.4856110  71.8102036   6.8156872  83.8889084
  70.2971878   6.7865729  83.9192123  82.0815887  25.5292377  67.5863266
  81.7844162  25.4420528  68.4920425  81.5724030  24.8782291  67.1034698
  67.4040298  18.3486938  15.2519550  67.2954865  18.5189896  16.1876106
  68.1890182  18.8394508  15.0086699   4.2122507  10.8307896  62.4540215
   4.3170466  10.0800009  61.8695869   3.5528233  10.5501642  63.0885582
  68.3811264   7.6961632  55.8350372  67.5935135   7.2892895  56.1960869
  68.4145660   8.5598564  56.2463150  43.3623695  66.8334198  44.0470276
  42.7627449  66.9820480  43.3158684  44.2272377  66.7797318  43.6403961
  16.9065914  16.8645134  79.3488541  16.2008076  17.3693943  78.9448776
  16.4635181  16.2924175  79.9754486  24.4550037  41.2411766  40.2428093
  25.2531166  40.7442894  40.4226685  24.4151878  41.2929497  39.2878380
  39.6410789  62.6674843  78.7758026  40.5398331  62.3458328  78.7050095
  39.0998650  61.9300690  78.4937744  14.4683437   2.1974638   9.2101107
  14.2594070   1.3905505   8.7395058  13.9138403   2.8628230   8.8026114
  49.3745117  18.3631248  53.4285431  48.5135422  18.6614189  53.1353073
  49.6227646  17.6891136  52.7958412  44.5629463  48.1139297  79.2248993
  45.2441406  48.5128593  79.7662582  43.7423286  48.4441261  79.5906754
   5.3611331  35.0231819  31.5689812   4.9794178  34.2370567  31.1784325
   5.6080613  34.7551880  32.4541016   6.7847672  51.1012764  60.6431465
   6.6475496  52.0481224  60.6134644   5.9733682  50.7306747  60.2959900
  14.2969389  57.5430908  15.6888933  14.4548283  56.7219276  16.1547203
  13.3729744  57.7353287  15.8487873  76.4460144  38.4485931  27.6740017
  75.6649094  38.0683060  27.2721519  76.2827988  39.3917618  27.6692028
  79.5763092  35.7792892   9.5186443  80.3545074  36.1816635   9.1329861
  79.4261703  34.9945946   8.9914379  55.7974777  62.5294800  22.7221413
  55.5273819  63.4477348  22.7126236  55.0717773  62.0707397  23.1453953
  81.8642349  54.7623520  66.5490265  81.3064423  54.1097260  66.1257324
  82.4384308  54.2523232  67.1203461  74.9937897   4.5469165  14.1607637
  74.6666183   4.2260032  13.3204012  74.9533920   3.7858803  14.7399216
  68.9509811  58.4317818  75.7790527  68.5612335  58.7842407  76.5791168
  68.4799881  58.8697357  75.0701141  80.1750412  31.1728630  65.6429596
  80.2912827  32.0760460  65.9378815  80.7295456  30.6566257  66.2279892
  57.8850784  50.8240013  16.9130726  58.4682083  50.7801094  17.6708775
  58.1756630  50.1100349  16.3455830  33.3983459  46.6342316  80.2383728
  33.8627357  46.5422058  81.0703049  34.0925255  46.7054977  79.5831909
   7.6423221   0.6893499  61.7820396   7.0801687   0.5153185  61.0271072
   7.4960818  -0.0547357  62.3661499   6.2062359  52.8074379  53.7853470
   7.0775051  52.8031082  53.3889847   6.2686858  52.1826973  54.5078621
  74.8267975  59.6064987  17.8783474  74.4777145  60.4633751  18.1235676
  74.4002686  58.9937515  18.4773865  66.8068924  71.5259933   6.5889993
  67.7406921  71.6984940   6.7093945  66.6410980  70.7357101   7.1030073
  55.3954391  32.1201973  79.6880417  56.1075325  31.4857311  79.6067505
  55.7252007  32.9072151  79.2543564   0.5859261   8.4846449  72.0386505
   1.2016218   9.1467085  71.7242889   1.1272842   7.7121983  72.2014084
  71.1171570  44.0647392  47.2454681  71.8539429  44.3064232  46.6842461
  71.4616776  44.1334801  48.1358681  16.1790829  10.4602575  21.7456398
  16.3782406  10.7115793  22.6475296  16.9605083   9.9938679  21.4488468
  47.4056854  29.7930298   0.1527079  47.2252617  29.4295177   1.0196199
  48.3353462  29.6169624   0.0079081  68.0353470  44.3538818  86.5142670
  67.9459991  44.9939003  87.2203979  68.9674683  44.3656082  86.2969055
  40.7671013   1.6884722  31.8431416  40.1386604   1.1743428  31.3362236
  40.3074875   2.5055392  32.0365067  83.8632812  63.7188263  49.5097046
  83.0997238  64.2199402  49.2231712  83.7355499  63.6052208  50.4515190
  63.4329376  64.0075912  50.3906517  63.4189987  64.5840073  51.1547089
  63.9371872  63.2452507  50.6749153  80.2150574  54.6182442  36.6664009
  80.7169418  54.8503647  35.8850784  80.8718872  54.5388031  37.3581390
   8.0073757   5.7949314  34.6360435   7.6472321   5.1538200  35.2488289
   7.9799151   6.6241784  35.1133575  53.0743446  20.9261475  29.1740494
  52.2914124  20.3757782  29.1555080  53.6914368  20.4845028  28.5906315
  56.0223083  55.0089607  14.3875895  56.8768234  55.0318184  13.9568758
  56.1726112  55.4181290  15.2397757  77.8999557   8.4702673  28.0520496
  76.9668503   8.6545258  28.1597004  78.0015869   7.5664201  28.3503170
  34.7804184  49.8866196  16.9807568  34.7752800  48.9722862  17.2639542
  35.4734039  49.9293823  16.3218384   3.1184237  45.0703468  35.8671684
   3.6528437  45.2348862  36.6440544   3.0947232  45.9111404  35.4102974
  57.7658577  35.6718025  22.3856430  56.9259338  35.9612389  22.0292892
  57.9059677  34.8082008  21.9973259  13.9152737  58.0216026  29.1647892
  13.6648111  57.7069359  28.2961769  14.1653490  57.2310333  29.6430111
  52.9389000  18.3595619  43.1552124  52.6628418  19.0443459  43.7643890
  52.2374268  18.3203068  42.5051155  18.5933208  37.5813446  26.5946064
  18.7983418  37.3811836  27.5079155  17.9365120  38.2759438  26.6432552
  22.1031094  56.9744911  58.6829796  22.7635059  57.6105194  58.9578896
  21.8361645  56.5408745  59.4934998  70.0398560  66.3719254  49.0385056
  70.1871719  67.0516739  48.3808746  69.1654358  66.5560989  49.3815994
  38.4812164  17.2020245  18.4862690  37.6989937  16.9438381  18.9738102
  38.9633331  17.7679157  19.0892315  11.4304714  14.9565039  10.9778261
  11.0601168  14.9874249  10.0957184  12.3150396  15.3085575  10.8786793
  68.1024323  66.5109329  58.3033943  68.6848679  65.8077621  58.5907326
  67.6469727  66.7850037  59.0994339  16.2039757  56.9263039  39.0460815
  17.0622826  56.5291862  39.1938667  15.5819035  56.2138100  39.1930885
  78.6736679  21.9556732  82.1743927  79.1604156  21.9478340  81.3502350
  77.9929886  21.2930317  82.0568619  44.6712341  12.4718809  18.5038376
  45.4801636  12.0237808  18.2567215  44.9223328  13.0316029  19.2386093
  59.1927490  39.7814255  65.5231628  58.2920189  39.6964912  65.8357391
  59.4291420  40.6884232  65.7173538  80.2619019  29.2190914  33.6941643
  79.8410034  28.3839073  33.8979950  81.1805038  28.9944973  33.5459976
  11.5948086  64.6249084  68.5302734  11.1527042  65.4417572  68.2989120
  12.3312731  64.8978119  69.0774231  50.7693825  15.4519243  87.8136139
  50.3211784  14.6646471  87.5045166  51.7001762  15.2370367  87.7529602
  24.3357201  62.4800682  27.6889954  25.0532017  63.0026360  28.0472889
  24.6120720  62.2742119  26.7959747  36.2831573  12.9892321  79.4056091
  36.5618057  12.2981787  80.0064621  37.0993729  13.3418865  79.0511246
  41.4673233  46.3370934  59.2102623  41.1218033  46.8544159  58.4827843
  42.4040642  46.2630768  59.0278625  22.1681881   5.9880967  19.7864361
  22.4494171   6.4224620  20.5917110  21.7040443   6.6675105  19.2973557
  67.3562469  19.4565754  17.9171886  66.5697479  19.4019051  18.4600163
  67.3388977  20.3440971  17.5590897  15.5988483  40.7540855  30.2717419
  14.8822746  40.3084412  29.8199043  16.3300476  40.1379738  30.2271862
  55.8613510  21.8080463  37.9560585  56.4360847  22.0298977  38.6886520
  56.3855934  21.2231750  37.4089508  83.4958115  21.5518036  25.5719833
  83.6014786  20.6792202  25.1929550  82.7541122  21.4646378  26.1707401
  73.7570114  46.1703682  60.5842247  73.3154449  45.5290947  60.0274277
  74.6781235  45.9107704  60.5644722  76.3679581   8.0692005   3.3717351
  75.7671051   7.7484307   4.0442777  76.1860352   7.5223327   2.6074893
  25.3944988  22.5872517  70.7320709  25.1547318  22.3356705  71.6239548
  24.6239777  22.3710861  70.2069016   8.2803555   6.0172377  81.6810455
   8.0450287   5.1171212  81.4560089   7.6078420   6.5529394  81.2603531
  73.1108170   7.2079039  42.1233788  72.4440689   6.5211196  42.1217995
  73.1223831   7.5284166  43.0252495  22.2437572  58.0189247  75.2070160
  21.6851330  58.7877731  75.0928345  21.7169018  57.2894630  74.8806152
  63.7206802  48.6175194   1.8990316  63.3270645  47.8799248   2.3651342
  64.2468872  49.0658875   2.5610738  65.2777786  55.8665924  21.4652672
  64.8067551  55.0350685  21.5194759  64.6085892  56.5318527  21.6260509
  22.5684795  41.8522720  32.2644997  21.7035847  42.1473694  32.5492935
  22.8651314  41.2699051  32.9638405  44.5675926  55.3160934  32.1939163
  44.7219696  54.9094620  33.0465889  43.6146507  55.3318596  32.1050949
  17.2992764  62.0457191  84.2613297  16.5221939  62.3145142  83.7713013
  17.8287754  61.5644608  83.6255188   4.4894381  40.0460396  69.3426208
   4.5020070  40.1129951  70.2973938   3.7183712  40.5474319  69.0774918
   5.9525962  46.1954002  10.6055965   6.7965393  45.7595406  10.4871931
   5.3717127  45.7675362   9.9765167   7.1764936  71.0595779  25.6306858
   7.5252638  70.1937790  25.8427773   6.2546649  71.0152512  25.8846512
  71.4018326  16.1721363  84.2342682  71.2687225  16.2150326  83.2873383
  71.6649628  15.2665596  84.3983612  80.6606598  32.3726921  84.6218338
  81.1498642  31.5706100  84.4386063  80.4744263  32.3306618  85.5598068
  62.9372139  49.8191757  87.4856949  62.9218407  49.0676155  86.8931122
  63.8567467  49.9077454  87.7363892  44.0515823  58.6672440  47.0974426
  44.8226814  58.1061783  47.1801910  44.0314102  58.9116707  46.1721954
  34.8181534  26.9141617  74.9861984  35.7592278  26.7542992  74.9151077
  34.6599579  26.9988918  75.9264221  56.0249634  29.2077694  22.8126278
  56.1099930  30.1564789  22.9072456  55.4043655  29.0935192  22.0928802
  21.1587563  11.2695847  78.7160950  20.9151077  10.9549637  77.8455276
  21.9423885  10.7681694  78.9413376  64.3399887   3.6485181  71.5346756
  63.5735054   4.2169681  71.4598389  64.6816483   3.5884500  70.6425476
  85.7602692  52.8287392  74.1470566  85.0671310  53.4038429  73.8229523
  86.3979721  53.4222260  74.5437164  10.8679819  57.9583015  77.9417877
  10.3995380  57.4153099  78.5757828  10.7205334  57.5257225  77.1007385
   3.0528803  15.0149860  37.9601936   2.7389736  15.8522739  38.3017273
   2.6715205  14.3598118  38.5446129  28.6862545  23.8042908  67.3067627
  27.8126850  23.9763184  67.6582108  28.7536392  24.3760643  66.5420609
  13.0224581  68.0323486  61.0576973  12.6629620  67.5085449  61.7736740
  12.3407564  68.0195847  60.3858719  54.4399261  57.6953850  50.8510284
  55.2421684  58.2092743  50.9435654  54.7445374  56.8072357  50.6649208
  12.4287424  68.6445160  13.0370703  12.4644089  69.5973053  13.1216726
  12.9885530  68.3202972  13.7425661  35.5840874  14.2607107  72.3021469
  34.9137688  13.9352045  72.9029465  36.2325401  13.5577030  72.2631607
  14.1219807  53.0597649  66.5271912  14.1082382  52.1578903  66.2067795
  13.4142094  53.4939384  66.0509720  74.7718201  56.1518784  17.8521461
  74.4351730  55.2736130  18.0297832  74.6238480  56.6341667  18.6656132
  70.8970413  42.0670547  32.8739548  70.5341339  41.2728386  33.2660713
  70.1934967  42.4030113  32.3186226  57.6511383  20.6941833   1.5854434
  58.3425064  20.5485630   2.2312291  56.8825111  20.9276505   2.1059577
  22.5688839  50.7345467  57.3981209  22.7648411  50.9607391  56.4889069
  22.1304474  49.8853531  57.3445206  53.7937813  55.9299660  76.2318497
  53.5059471  56.8427505  76.2174835  54.5351181  55.9030533  75.6269302
  44.7569618  39.8758545  61.8881187  44.5963440  40.8041878  62.0573196
  44.5064049  39.7524185  60.9725761   8.9336214  63.5816078  25.9638958
   8.2625113  64.2490463  25.8211803   9.6691113  63.8610840  25.4187546
  74.9040070  54.4342499   5.9782882  75.4706802  53.6768456   5.8318095
  74.2590942  54.3909760   5.2722812  80.5255966  40.0961266  52.7410851
  81.2392578  40.6893120  52.5064621  79.9521790  40.6205750  53.2999954
   7.8465462  26.9689980  62.4649048   8.5668344  26.7717915  61.8661346
   7.6728115  26.1404781  62.9116707  35.1475487  42.4991188   3.0806131
  34.8958321  41.5817490   3.1869507  35.7282829  42.5014801   2.3197088
  16.7362881  57.0253906  53.4960365  16.2722950  57.2542343  52.6906967
  17.6613312  57.1474724  53.2824440  14.2567463  21.8350658   0.9855163
  14.0286951  21.8209553   1.9150460  13.4175358  21.7569942   0.5317971
  57.3454819  34.3471870  15.4919443  56.8479767  33.7251587  14.9610949
  56.9997520  34.2364197  16.3776264  85.0530243  43.1942596  27.0761566
  84.3808212  42.8606606  26.4819489  85.7721786  42.5671005  27.0005302
  80.9326248   0.1877709  33.9006577  80.7858276   1.0208249  33.4526558
  80.6723480  -0.4764881  33.2624969  33.7707405  45.3789749  24.4972115
  33.9359169  46.2943840  24.7229824  34.5959740  45.0722923  24.1214848
  28.1006565   6.8764377  -0.0807068  28.4054470   7.1644297   0.7797556
  27.5539055   7.5967131  -0.3945494   4.2499595   6.2834263  74.6507263
   5.1585402   6.5404220  74.8077850   4.2768316   5.8014693  73.8241577
  34.6556931   4.8666010   2.6498485  35.1755371   4.8843942   1.8463084
  34.5063438   3.9361861   2.8179381  63.0428200  30.5513573  28.2338982
  62.6796074  30.9725418  27.4548512  62.3553391  30.6360950  28.8945179
   4.4981723  45.4722252   0.9800962   4.5937624  45.9255257   1.8177179
   5.1513195  45.8797722   0.4112964  58.8990173  62.9498367  59.6220245
  58.6169853  63.2429924  58.7555656  59.4355011  62.1759644  59.4501610
  42.9057350  29.1980381  13.0676451  42.2205772  29.6943569  13.5153694
  42.4426003  28.4690399  12.6549711  49.2783279  69.4108353  24.5176849
  49.3332291  68.4823837  24.7439632  48.4330406  69.5005264  24.0775948
  65.8279419  71.0794220  76.5876999  65.2524872  71.7431259  76.2074585
  66.7063141  71.3332596  76.3043823  77.1071243  58.5033073  35.7070160
  77.2983170  57.7029495  36.1959991  76.4121933  58.9299850  36.2082558
  47.6089401  38.6971016  71.7682724  48.5143738  38.8240051  72.0516739
  47.6826706  38.3483658  70.8799133  55.7346611  64.2862091  14.1493807
  55.6008873  63.6573067  13.4402857  56.6201096  64.1062012  14.4653053
  24.7542114  49.1542397  14.5937796  24.3548222  48.6238670  15.2832899
  24.3291473  48.8595123  13.7883663   7.5048728   8.3211536  69.3538742
   6.7456584   8.8927412  69.2393646   8.1682310   8.8817768  69.7562332
  85.5186615  61.1514893  76.6163635  85.4173813  61.0624313  77.5640106
  86.3321686  60.6877937  76.4178009  64.1303787  34.4164696  35.1296005
  64.3521805  35.0716057  35.7912865  64.4896317  33.5982971  35.4727707
  29.7414360  40.7173996  66.6702881  29.1306973  41.4501381  66.7498169
  29.1812706  39.9425659  66.6246872   8.9420929  69.8595657  48.4465408
   9.7374296  69.3280334  48.4127922   9.2267227  70.7337036  48.1798897
  83.0737610  61.3257675  13.7311611  83.8409653  60.7644844  13.6189537
  82.6406021  60.9856453  14.5140572  79.2455063  39.9096031  48.4610481
  79.8846512  39.4206085  47.9427795  78.4974670  39.3175545  48.5395012
  62.0996933  64.5031433  47.3797646  61.7042427  65.1295700  47.9859352
  62.8400192  64.1366196  47.8633003  36.8020973  52.9928436  87.6232452
  36.1069756  53.4733543  88.0728531  36.6455688  52.0763588  87.8508072
  45.9787827   0.8358306  39.0086861  45.8818588   0.8220829  39.9608650
  45.9035110  -0.0818225  38.7470016  81.1937408  31.1343365   8.3573971
  80.7819290  30.7077999   9.1088715  81.7758179  30.4676056   7.9928565
   9.3982649  57.0909615  24.5841103   8.8272753  57.0910263  23.8158646
  10.0126028  56.3741760  24.4258709  22.3225517  61.0772896  45.7226448
  22.2748947  60.2517128  45.2405853  21.4093742  61.3083382  45.8928108
  76.6350555  66.0722809  68.2035446  75.6857834  66.1808090  68.1457672
  76.9905548  66.9074554  67.8996735  35.9367409  62.2023697  59.1150322
  36.6573448  62.7929802  59.3344498  35.2063599  62.7838440  58.9036942
  66.3825226  48.4768372  68.5110397  66.4279480  49.4058723  68.2850723
  67.2914124  48.2256203  68.6754837  68.0991287  32.9526138  26.5477810
  67.9277115  32.7604485  25.6258698  69.0395660  33.1270027  26.5852432
  67.0912323  16.5176525  29.4753094  67.7774200  15.8540220  29.4047604
  67.3588943  17.2047558  28.8649979  59.8384933  58.0067291  78.6864166
  60.6614151  58.0015030  79.1752930  60.0404434  58.4856911  77.8826447
  59.1851463   7.8719172  15.2275372  58.6723671   8.5061474  14.7264938
  58.5694389   7.5209022  15.8709068  78.4134903  48.7552071  84.9543076
  77.4700012  48.8419647  84.8181915  78.6200027  49.4079590  85.6232605
  80.0367432   5.2719436  26.6097412  79.4343643   5.6646786  27.2415104
  80.8636627   5.1917791  27.0851402   1.5130030  16.3808746  88.6813278
   1.0891035  17.1074791  89.1380463   1.1290907  16.3924732  87.8045731
  39.7913780  69.6345444  27.0885887  39.9820824  69.0608597  27.8307114
  39.0078621  70.1163864  27.3534813  59.5330811  59.4304810  76.3692780
  58.6345634  59.7520752  76.2952881  59.9285889  59.6272430  75.5201111
  70.4266815  20.4514198  11.3977938  71.0624084  21.1024818  11.6947680
  69.7584381  20.4392376  12.0830193  47.8149223  68.3571930  31.1753521
  47.3448677  68.8321838  30.4900341  47.8677483  68.9767609  31.9030743
  28.6493206  20.9988956  82.1500626  28.5606899  20.6774654  83.0473099
  27.7604485  20.9692802  81.7961349  84.2031021  43.1474571  22.6010132
  84.6672897  42.8861847  23.3963108  83.7905731  43.9810104  22.8273659
  26.6298828  51.1953354  56.0243950  25.6775990  51.2196541  55.9306221
  26.9351902  51.9821930  55.5728683  77.5503616  29.9641380  67.5223923
  78.2587357  29.9426098  66.8789825  77.9015808  30.4800529  68.2481384
  56.5649300  42.8877945  81.9138794  56.2089767  42.0514984  82.2141113
  57.4982872  42.7186089  81.7855988  62.4050102  59.3833656  63.6010170
  61.9335861  59.8028831  62.8812981  62.4902039  60.0690536  64.2634430
  70.8455658  71.2182693  79.0187531  70.5116425  70.3377457  79.1902542
  71.1521301  71.5283432  79.8708725  21.2370148  63.8964081  77.9358597
  21.7163887  64.3633499  78.6202621  21.7272034  64.0776062  77.1339188
  70.8936768  58.6008415  79.0781555  71.6105652  59.0700417  78.6513672
  71.3135910  57.8462906  79.4911423  73.2126160  65.7647018  70.4845505
  73.7033615  66.1251144  71.2231369  72.7233810  66.5097809  70.1356354
  72.4068451  36.9146576  89.1852722  71.9756622  37.3476486  88.4485016
  72.3412323  35.9807358  88.9859924   0.9139155  41.3144684  33.0817413
   1.1246641  42.0217667  33.6912842   0.8009211  41.7514420  32.2376366
  71.4129410   4.9744892  42.3638763  71.2644348   4.1052828  42.7362442
  70.6576767   5.1235971  41.7950439  48.8026962  59.1389427  45.6111794
  49.6088295  58.8275452  46.0227776  48.6390457  59.9896469  46.0183029
  72.8799896  40.7134666  65.7887573  73.7205429  40.4546814  65.4109497
  72.2744370  40.0217743  65.5221252  49.2417488  60.0566254  79.7640610
  48.5551224  60.4240990  80.3206024  49.2317734  59.1194611  79.9586105
  48.5315247  58.1726265   1.6478834  48.6275101  58.8077507   2.3575571
  47.6521454  57.8132858   1.7653623  58.0118408  70.9793243  31.8100090
  58.7446518  71.4925079  31.4696274  57.7219238  70.4525757  31.0652161
  20.2585068  25.0658474  87.5563202  20.5124798  25.3735409  88.4264069
  20.5250092  24.1466370  87.5401001  32.6204987  54.2338867  67.6547775
  32.8145027  54.4886665  68.5568237  33.0273170  53.3730583  67.5562668
  56.7582016  30.9195175  42.1254921  56.3475113  30.9578457  41.2617226
  57.6369972  30.5790977  41.9579697  48.8269691   5.4735518  25.0889015
  48.9727097   4.7371745  24.4949818  49.5495872   6.0744276  24.9072342
  21.2593498   6.8484602   3.6089664  22.1327648   6.5034165   3.7942286
  20.6663799   6.2682929   4.0864849  71.2659912  47.2570992   8.8584833
  71.9814835  47.7615662   8.4714270  71.4654083  46.3480568   8.6346388
  39.3145676  68.0198212   4.4551845  39.3607941  67.9166336   3.5046859
  38.5438919  67.5144272   4.7137690  81.4183197  17.4860268   1.4427143
  81.3398056  17.1669903   0.5436686  82.1561356  16.9968872   1.8068622
  76.9162521  60.5432701  58.7914352  76.6631470  61.1103439  58.0630150
  77.5076675  61.0802994  59.3187485  85.5129700  52.3012810  48.4807663
  85.5902405  53.1764107  48.8607864  86.2799683  52.2175941  47.9142494
  11.1271887  62.5132828  70.4664688  11.3615475  63.0679016  69.7223511
  10.7143488  61.7450638  70.0719604  71.0497971  65.7865753  83.9694138
  70.1811676  65.9703064  84.3271179  71.6172180  66.4468994  84.3672028
  32.1863251  45.3969002  61.7353554  32.4424896  44.4770470  61.8022690
  31.3786621  45.3838539  61.2217979  77.5397263   3.4545257  10.2016392
  76.7650757   3.9385128   9.9154482  78.0712051   3.3638144   9.4107304
  66.1850281  23.1589718  18.9858990  65.6210403  23.8022079  19.4153118
  67.0749054  23.4466972  19.1897640  50.5569267  61.2917747  38.6231117
  50.1290665  60.4584923  38.8201103  51.3003769  61.0541649  38.0689850
  86.0864029   8.6127396  13.3063221  86.0261230   8.5528793  12.3528996
  87.0056992   8.4295397  13.5001593  75.5055542  26.4990501  14.2917318
  76.0934143  25.7549858  14.1612635  76.0655975  27.1863804  14.6525068
  82.9777298  34.2522964  58.3203888  82.8059692  33.4446220  57.8362503
  83.6332016  34.0056381  58.9728775  58.0223732  63.4987221  71.5364151
  58.7694168  63.6344070  70.9535370  57.5564957  62.7525864  71.1589584
  83.9167480  14.8379593  16.4646797  83.1393204  15.2688417  16.8199024
  83.6643524  13.9183035  16.3824387  41.7985992  44.5087204   5.8742151
  41.9972496  44.0464363   5.0599289  41.0309258  44.0571136   6.2248721
  64.8553925  32.7486839  39.1027679  65.3565674  33.1363487  39.8202400
  65.5018616  32.5977936  38.4131775  66.0267944   1.1176912  37.8911629
  65.3415604   0.4628934  37.7573090  66.6846237   0.9154008  37.2258987
  43.3164597  59.6284714  16.5579624  44.0108910  59.5105362  17.2061043
  43.5355034  59.0137520  15.8576994  67.8633575  27.6016617  80.1005478
  68.1361389  27.0653381  79.3561172  67.4207916  28.3527298  79.7052460
  83.5018692  43.7429886  72.5789185  84.1934509  43.1563187  72.2727127
  83.1083221  44.0881386  71.7775345  62.2774200  55.9945679  13.7390385
  62.0739479  55.3046150  14.3705444  62.9755287  55.6256943  13.1979198
  74.9871750  63.9350128   9.4572105  75.7733536  63.3918266   9.5129995
  74.4595947  63.5232010   8.7728891   5.6389322  68.3633347   3.9118497
   4.7782249  68.7505569   3.7522321   6.0665708  68.9706879   4.5155745
  44.4355392  54.1911354  65.6289597  45.3214569  54.1055679  65.2767410
  44.4258881  55.0525017  66.0463181  60.5240860  58.0681458  72.1984329
  59.9534111  58.7687988  72.5141068  61.2712860  58.0800362  72.7965851
  80.7677002  22.2480145  72.5025864  79.8487549  22.3796673  72.7359161
  81.2454376  22.8713398  73.0498199   9.5648575  48.5765877  50.0253410
   9.1687822  49.2569466  49.4808578   9.8673124  47.9165154  49.4015961
  25.2223721   9.3593254  77.5460052  24.3648701   8.9344997  77.5248947
  25.0303822  10.2915592  77.4444580  48.9180946  29.4683151  63.3177261
  49.8461990  29.6706581  63.1997719  48.7719383  29.5548248  64.2597427
  70.0866699  68.2926559  79.3661804  69.9526749  67.6157227  80.0295334
  70.9520416  68.1042023  79.0030670  26.4766026  36.2533951  63.9179192
  26.1016293  35.8455772  64.6985016  26.0353355  37.1004677  63.8547974
  11.9052305  13.5838413  16.4559841  12.6364489  14.1540432  16.6935158
  11.8246737  13.6803675  15.5070763  14.1145773  30.5346680  70.4799805
  13.5240488  29.8494625  70.1669312  14.6610937  30.0993462  71.1342316
  37.0949898  18.1310711  69.4367371  36.7184105  17.2885799  69.6909561
  37.7604561  17.9092178  68.7854538  30.7903709  70.6668549  21.4994411
  30.1954765  69.9184799  21.5469990  30.8900013  70.8344498  20.5623093
  32.2401543  60.2740021  27.7968311  31.8413200  61.0773239  27.4624195
  31.5022926  59.6805267  27.9367599   1.4597439   6.4701204  42.7787476
   0.9509192   5.7080278  42.5020790   1.6457835   6.3108091  43.7040787
  29.0803127  43.7728958  21.7031536  28.6171932  44.3123817  22.3440170
  28.3892555  43.4219666  21.1414413  58.7048798  69.4666824  81.7151566
  59.0083618  68.6086349  81.4187012  58.4158478  69.9076614  80.9162674
  75.4237289  66.6965027  88.5812225  75.3704758  65.8645554  89.0516129
  74.5810089  67.1193619  88.7463150  16.3824539  62.6378326   6.8528647
  16.9032612  63.4036522   6.6109772  16.5557003  62.5154686   7.7862697
  59.3545990  30.4027615  41.3884430  59.9462509  29.6756306  41.1948929
  59.7313766  31.1488190  40.9218903  53.8789368  28.4915047  77.5609970
  54.6774330  28.9471149  77.2944336  53.3661766  29.1561069  78.0210037
  72.5972137  34.0332489  64.3953629  72.9595413  33.1521416  64.4881439
  72.4372406  34.3222618  65.2937546  38.6231384   2.6758389  82.4625168
  38.7773438   1.8103689  82.0838165  38.1380043   2.5013993  83.2690201
  52.7929573  56.5855789  88.4182358  53.5361328  57.0834923  88.7588272
  52.0652771  56.8162193  88.9957428  83.2695618  18.2987003  52.7217178
  82.8294296  19.0174942  53.1754303  83.6178360  18.6966267  51.9238510
   5.2882318  33.7066727  85.1026993   5.3394852  34.4746628  85.6717300
   5.6204171  34.0115852  84.2583618  67.0041733  69.9423752  72.5950623
  67.3045120  69.0707321  72.8524857  67.5595932  70.5434113  73.0915451
  11.4454956  46.5071373  10.0548220  12.1176291  46.9670753  10.5577393
  10.9454651  46.0218201  10.7110767  71.9790344  33.7109337  38.9322052
  71.1285095  34.1491051  38.9031219  71.7743912  32.7828941  38.8177643
  48.8621025  51.9128075  34.1659966  48.7053986  51.4559555  33.3395805
  48.0502815  51.7990913  34.6602097  76.0713272  32.3669014  11.1251116
  76.9621658  32.5361519  11.4316931  75.6382828  31.9461727  11.8678741
  49.9492073  35.0274239  25.5164356  50.2881775  34.5622826  26.2812710
  50.3421059  34.5771332  24.7687054  74.4119034  55.1106567  62.1505547
  75.1539612  55.3611794  61.6002655  74.7008743  54.3129234  62.5936737
  46.2652512  51.4785576  27.6791668  47.0046349  51.6426811  27.0938416
  45.5233879  51.9092979  27.2545071   0.7646031  20.6045570  77.9555435
   0.2901063  19.8887901  77.5327454   1.2360282  21.0340023  77.2417068
  76.0277405  46.2298203  23.8923988  75.7863998  47.0500946  23.4621258
  76.8985367  46.0271873  23.5504932  28.9929447  34.0085793  74.3138885
  29.1722202  34.2201271  73.3977356  28.2738152  33.3778839  74.2777786
  74.1193314  24.9016304  17.6572628  74.4689560  24.3543530  18.3604565
  73.2873230  24.4896679  17.4242897  13.8981409   5.0356655   2.9813352
  13.4651909   4.1855249   3.0590997  13.9310713   5.2024031   2.0393445
  32.0593948  37.9776306  15.5330029  31.8179607  38.0914841  14.6137753
  32.2706413  37.0473557  15.6117058   4.1438322  24.2679138  19.4829273
   4.2935848  23.3632450  19.2083683   3.1993299  24.3206215  19.6291084
  49.7623940  50.3826942  61.6066628  49.6631165  49.8928261  60.7903252
  50.4688034  51.0036926  61.4289474  37.5699654   2.4271564   1.9420595
  37.4030609   1.8567580   2.6924059  37.9074249   1.8402208   1.2654068
  16.0426903   5.7280245  85.9306183  15.6057940   6.5088692  86.2706680
  15.4783154   5.0024238  86.1974792  28.9631214  63.3345375  55.1873665
  28.0823345  63.4015732  54.8186531  29.5375328  63.6663971  54.4973297
  63.1814423   0.3270899  81.1813660  63.6761742  -0.1857723  80.5422745
  62.2972488   0.3742742  80.8177643  67.2863846  62.4616013  68.0810394
  67.9180145  62.8833427  67.4984512  66.4366760  62.6254120  67.6719131
  18.6804409  63.1039047  44.7707405  18.9973660  62.8609543  45.6406631
  17.9631081  62.4940681  44.5982170  78.9815903   3.9786904  46.1990280
  79.1568069   3.0843997  45.9061546  79.8184204   4.2843790  46.5490456
  85.8334427  32.6194458   9.2076149  85.3053055  33.3817368   8.9705238
  86.0874023  32.7774506  10.1168842  71.5561600  22.9681149  31.9195499
  71.1378479  23.0069122  32.7796364  71.9880905  22.1140995  31.9015903
  55.5888329  64.8750229  31.4779549  55.7983742  65.7455673  31.1396236
  54.6360512  64.8766937  31.5697918  37.9788933  48.9051857  80.0188217
  38.3439980  49.3796463  79.2719498  37.0948448  49.2585068  80.1180725
  19.9895039  68.6840210  73.0794678  19.9974556  68.4752350  74.0135880
  19.9338760  69.6390839  73.0479813  72.9735794   2.6140022  38.3957062
  73.4894180   3.3966529  38.5896187  72.7672958   2.2443290  39.2542038
  17.9618454  47.5992737  77.5325241  18.6997986  47.2344055  78.0209198
  17.1872444  47.2865715  77.9999008  79.0805054  31.5363045  79.4314651
  79.8265305  31.6844330  80.0126114  79.4426804  31.0374813  78.6991806
   3.0335112  42.0392265  25.6357021   3.5364070  42.4299507  26.3503094
   3.3709216  41.1462059  25.5657063  79.3257599  44.8724136  70.4841766
  78.6612244  44.1877556  70.5607910  78.8516083  45.6864548  70.6537247
  20.1783390  15.1036568  11.1883020  20.9065247  14.7975912  10.6476526
  20.3394356  16.0407047  11.2988558  55.2855835  67.3752060   3.3385034
  56.1015549  67.2444229   2.8554718  54.5983925  67.2721176   2.6801913
  64.5996628  38.8446465  15.3170290  64.4505768  39.7900047  15.3343859
  64.2313156  38.5593948  14.4808569  48.6517296  46.3574600  39.7071686
  48.1784630  45.5626106  39.4612579  49.0368690  46.6698685  38.8884506
  65.5564270  49.0002670  80.6875916  65.0325928  49.7016487  81.0747452
  65.4136124  48.2489700  81.2632523  42.6156387   6.2281966  16.3735790
  42.0258942   6.7266283  15.8078938  43.3711967   6.0330729  15.8192396
   6.7850041  68.7477493  49.8692741   7.6772771  69.0210114  49.6561813
   6.8486352  67.8013840  49.9979858  74.8228302  54.1825790  13.5218334
  75.0432587  54.7825089  12.8092823  74.0937271  54.6062622  13.9747534
  44.9995079  51.5686684  47.7146454  44.0931702  51.3013039  47.5619812
  45.4753761  50.7463760  47.8313332  45.4716988  69.6019135  59.8290977
  45.2711601  68.7527313  60.2226791  45.7335320  70.1521835  60.5672569
  14.8714905  16.8580818  32.5200157  14.0342350  17.3162632  32.5928535
  15.5072756  17.4573498  32.9110222  34.5082817  11.2202349  12.7005482
  34.8735809  10.7128878  13.4253836  35.2104874  11.8208580  12.4507647
  64.4275970  27.4818535  80.9415207  64.5300674  28.4325142  80.8970642
  64.2248001  27.2205429  80.0432892  14.5876532  30.3174343  80.1594772
  14.1156969  30.4757786  80.9770432  14.8713522  29.4052143  80.2195053
  26.0676689  61.8701935  89.0345764  26.6595516  61.6782074  88.3072128
  25.8592930  61.0131416  89.4064255  59.2687263  44.0374527  60.9494514
  59.5018120  44.9563179  60.8168411  59.3305664  43.9088554  61.8959541
  60.0146446  19.5350742  13.2453127  59.7070160  18.7236900  12.8412704
  60.6757622  19.2523384  13.8771496  63.5053673  30.6105900  23.1202888
  63.8360519  30.9676952  22.2960587  64.2802200  30.5370636  23.6774540
  75.4330063  41.2421188  55.5094032  74.6045914  41.7047424  55.3831711
  75.2973785  40.3903923  55.0941963   5.1525207   2.3075237  86.7074432
   4.3583226   2.5922229  87.1595840   4.9510040   2.4161370  85.7780228
  81.6530457  10.2160673  75.7413330  80.7400665  10.0545483  75.5033951
  81.7245178  11.1696730  75.7832870  51.4781342  49.0284805  44.2632675
  50.9350281  48.3295937  43.8988190  51.7688370  48.6891785  45.1097870
  22.3531876  67.7005234  26.7584076  22.2334309  67.7450562  27.7070408
  23.2759342  67.9160767  26.6231022  60.7168427   8.7578058  40.5287895
  60.8470879   8.1998825  39.7619858  59.8474846   9.1382103  40.4033279
  25.4862061  58.9583588   3.8963008  24.8561764  59.6156921   3.6009884
  26.2985897  59.1848297   3.4435604  42.3337288  51.4556770  51.7432823
  41.9878769  51.5068474  50.8522186  43.2141838  51.8258705  51.6800957
  59.6100960  64.2067032  12.1782799  59.5737038  64.2722397  13.1325407
  60.3851814  63.6726685  12.0042629  81.2339554  42.3796082  64.5618515
  80.6518173  42.5392761  65.3047180  80.6455688  42.1615791  63.8390160
  59.1910667  28.5409241  87.6612854  58.9425278  27.8177567  88.2370300
  58.5500870  29.2268715  87.8479691  85.1717529  12.4815445  78.7480240
  84.2329407  12.5865402  78.9023972  85.2556381  12.4492550  77.7950516
  35.5000267  54.7162170  78.8197327  36.1782990  54.6515503  78.1474304
  35.9767570  54.9336205  79.6207962  55.2648544   2.4396515  64.8038254
  55.2211075   2.0730584  65.6869659  54.4902802   2.9981222  64.7376785
  53.9807854  53.8908348  21.1957760  54.2509689  53.8035698  22.1098976
  54.0506287  54.8279800  21.0137978  30.6770115  22.8857708   3.9742286
  30.3919392  23.2260971   4.8222523  29.9750443  22.2929573   3.7058127
  66.4854279  26.2956562  30.6883183  65.6912460  25.7640400  30.6345081
  67.0335007  25.9809113  29.9694424  55.2733383   7.0056434  87.2752304
  54.6653938   7.7351823  87.1552048  54.8707619   6.4681253  87.9573135
  82.8016739  10.0107889   4.9993134  82.4594269   9.2663469   5.4941955
  82.1835098  10.1228571   4.2771325  31.9299450   1.1556159  69.1804199
  32.8711014   0.9885807  69.1299133  31.6728344   0.8198107  70.0391159
  67.0248108  66.8065643   9.5669956  67.8459396  66.3506088   9.3823853
  66.9946289  66.8684769  10.5217152  13.4927053  45.5987091  58.8774948
  13.5054035  45.7178764  57.9278259  14.2153997  44.9960823  59.0529518
  65.6487350  34.8946304  21.1502285  65.1526108  34.1099625  20.9170246
  65.7112427  35.3899956  20.3335667  29.2428169   7.1217608   5.9920616
  30.1258125   7.3626604   5.7118521  29.3303986   6.9366813   6.9271054
  18.7479153  46.3313370  87.4748001  19.2131977  46.8985786  88.0895996
  18.2099628  46.9299927  86.9566727  79.4931183  31.6381760  87.7228546
  79.9086151  31.7657795  88.5756760  78.6721268  32.1268845  87.7808914
  82.6553879  42.5038109  76.5832214  82.1079330  42.8256073  75.8670044
  83.4762192  42.2494240  76.1616058  41.7542305  70.1092682  75.9047546
  42.3307228  69.7494812  76.5788803  41.0771751  69.4427948  75.7879715
  19.7333221  51.5416527  20.3677673  19.8071823  52.4947395  20.3187180
  19.5472851  51.2692795  19.4691925   5.4076319  56.6596336  34.6526794
   5.1727595  55.8740005  35.1464844   5.6238623  56.3369331  33.7778397
  52.2921906  33.4835358  38.4313927  51.6471481  33.6663666  39.1145630
  52.9104080  34.2123871  38.4844704  53.6701851  11.4111071  81.1292038
  53.3017387  11.6945753  80.2924728  52.9111824  11.1399527  81.6455612
  33.4549561  68.6039200  59.3574371  34.0012932  69.2033005  58.8490143
  33.8210258  67.7374191  59.1802177  17.2470551  60.9127808  60.6351433
  17.8726864  60.9163132  59.9107094  16.9712429  61.8256416  60.7178650
  65.3661270  36.1436844   1.3934805  65.1166840  35.2220535   1.3256090
  64.6283798  36.6201477   1.0127646  11.2455072  37.2532768   7.3756776
  12.0122471  37.7393570   7.0722528  10.6821995  37.9177856   7.7723403
   0.5942386  50.1095200   5.6278000   1.3591180  50.0478859   5.0556178
   0.7315459  50.9157372   6.1251845  31.6583385  60.2955284  37.0128517
  30.8121471  59.8733978  36.8645363  32.0025330  60.4572945  36.1344490
  59.1290855  51.7824821  76.0814056  60.0856934  51.7524300  76.0966034
  58.8702774  50.9613571  75.6630707  41.9707985  43.4391098  56.5102577
  41.8309097  42.6077728  56.0568848  41.3773994  43.4055443  57.2605782
  16.1685352  51.3649330  55.2002945  16.6814613  51.9232254  54.6159592
  15.2848101  51.7311859  55.1668434  60.4281502  12.2785349  66.6314545
  59.8629799  11.8521338  65.9872513  59.9239197  13.0360813  66.9282837
  72.9715805   3.1339304  17.6190662  72.9487076   2.8527637  18.5337543
  72.9464340   2.3191493  17.1173382  78.2657013  59.8258171  54.9784279
  77.5383835  59.7576866  54.3598824  77.8865738  59.5792160  55.8220367
  22.4305954  11.2915258   8.6066046  22.1488438  10.3823376   8.5054855
  23.2044582  11.3659763   8.0481911  78.4926682  65.8986359   8.9887314
  77.9296112  66.0016479   9.7559261  78.6611938  66.7934189   8.6934423
  63.5647507   8.1081476  51.4854317  64.2832031   8.7177973  51.6539230
  63.3556404   8.2343130  50.5599098  76.9547958  38.9861870  67.5124588
  76.8659439  38.5827446  66.6489944  76.4447632  38.4222870  68.0939331
  32.3680801  54.6872101  42.6288795  32.7414932  54.8541832  41.7634811
  32.6486244  55.4333305  43.1588135  10.9344425  29.5640068  19.2108707
  11.4108257  29.6180305  20.0393486  11.0496292  28.6571407  18.9270477
  56.8251915  62.4055023  18.0179863  57.3261299  62.1853485  18.8033676
  55.9473801  62.0650558  18.1905365  55.0794067  64.5072708  44.4796562
  55.9954147  64.2776718  44.3233261  55.1170883  65.3563995  44.9198837
  39.1424446  56.1841698   5.4074740  39.0530090  55.7692986   6.2654443
  39.8422852  55.6938667   4.9761286   1.8710572  33.6205292  55.6803856
   1.0437115  34.0886002  55.5679474   2.1920524  33.4839897  54.7890091
  17.9522457  49.0082588  10.2955914  18.2190590  48.6510582   9.4485664
  17.0298748  49.2362862  10.1795473  45.5392151  41.6861382  29.4549828
  45.8250351  40.8729286  29.8711891  46.0382843  41.7259140  28.6391506
  16.8361378  65.7593002  56.6725502  16.5747223  65.5903168  57.5777245
  17.7806454  65.9073334  56.7196846  80.9080811  33.6894531  51.6177216
  81.8425903  33.7172890  51.8230438  80.8491898  34.0259895  50.7235680
  55.9178734  59.5015869  49.5587387  55.0437050  59.2510223  49.2599487
  56.4635010  59.4486809  48.7740593  56.8437767  58.5726013  87.5895233
  57.2950554  58.7564507  86.7656403  57.4683151  58.0508308  88.0934448
  66.1356277  16.1871815  81.7310638  67.0350723  15.8790855  81.8420029
  65.8258514  16.3478947  82.6223755  57.3355370   9.5413723  20.7105770
  58.2674484   9.6563692  20.8964615  57.1482353   8.6403074  20.9736938
  78.7867584  69.1050491  69.6843567  77.9629593  68.9350128  69.2275467
  79.0049286  68.2722397  70.1027679  55.5644073  17.1891861  80.4835510
  56.0124474  18.0107937  80.6846848  55.6361694  16.6742630  81.2872543
  36.4500351  27.1981506  80.3222198  36.0012474  27.2050171  81.1676636
  35.8841324  27.7124462  79.7464676  86.4835281  26.7740002  60.4151039
  87.2196732  26.8444157  59.8073463  85.7507935  26.4848423  59.8713036
  61.9973907  24.7452679  64.1646576  62.4009857  24.2918911  64.9047928
  61.3162613  24.1460705  63.8592796  85.2902527  64.5815887  46.9886742
  84.9115753  65.0744858  47.7166061  84.5631256  64.0602646  46.6484680
  49.7623520  48.4341850  77.8471451  49.4440308  48.9215317  77.0872803
  50.5302505  48.9240799  78.1413727  33.2409935  52.8308029  72.8167877
  33.3253899  53.7842636  72.8117447  33.3985901  52.5812187  73.7273407
  59.4422989  23.7502785  55.8576164  58.6864929  23.9429760  55.3027687
  59.4486656  22.7958927  55.9306831  72.6477966  24.9700127   9.7125483
  72.8228302  25.8356590  10.0816689  73.2763901  24.3930664  10.1464033
  41.6949577  24.9082088  65.0358047  42.3683395  25.2869244  64.4706802
  40.9101486  24.8815269  64.4884567   1.5594906  55.6730957  22.5967350
   1.4981221  56.4739189  23.1174507   0.7409070  55.2093773  22.7731438
  84.4041977  60.7801819  86.1602707  85.2926407  60.4444160  86.0412750
  83.8647232  60.2402458  85.5826263  68.8748856  17.7169743  80.7540131
  69.4751053  17.5734043  80.0223236  68.8766861  18.6654816  80.8827057
  47.6703568  45.2581482  42.8268471  47.8997078  44.6312752  42.1408005
  48.4963036  45.4319496  43.2783318  28.0875416   0.7251261   6.0887566
  28.9169312   0.2904511   5.8902621  28.3140278   1.6524603   6.1593752
  60.3579330  50.9994202   3.9385388  60.4371872  51.8241310   4.4179168
  59.4330635  50.9508858   3.6966929  49.4878235  13.3582182  72.9891205
  50.3122177  13.5267010  72.5328140  48.8690796  13.9777975  72.6024551
  69.4065323  68.6171341  56.7685013  68.8730392  68.1356735  57.4008141
  70.1918411  68.0807037  56.6600456  59.5796890  13.0871515  75.7800751
  59.7587929  12.5219784  76.5315628  59.4330940  12.4808969  75.0539932
  26.5310497  13.6869440  68.2847824  26.3766212  12.7654629  68.0767975
  26.4077721  14.1441507  67.4529190  29.6553593  68.0535583  39.5629539
  29.8466988  68.4272461  40.4231720  29.3293858  68.7918243  39.0482368
   0.6172572  65.8191376  37.5728264   1.5420271  65.6067047  37.6989403
   0.2246700  65.0039215  37.2605247  48.9067612  33.2920151  13.8135386
  48.6422234  32.4383850  14.1564169  48.9668159  33.1618347  12.8671360
  54.4814796  52.3212852   8.4220858  53.8034859  51.7700424   8.8128395
  54.2924461  52.3046303   7.4838853  77.1280441  16.5287056  70.3091278
  77.6856766  17.2790623  70.1035919  77.6673279  15.9778090  70.8765030
  57.8046989  19.5035305  38.4351158  58.4603004  19.1125298  39.0126381
  58.3154984  19.9836330  37.7833328  50.9964218   9.5608397  86.4275208
  51.0678329   9.7253551  87.3677750  50.0631599   9.6569958  86.2377472
  48.2674751  34.9212646  50.0198402  48.2028618  33.9663086  50.0305786
  49.2068939  35.0971870  49.9671516  55.0523911  13.3232965  59.7169228
  54.8415718  12.5818338  59.1494560  55.9691353  13.5195999  59.5238533
  45.8493614  69.6058578  75.0489273  45.7865486  69.3972549  75.9810104
  44.9406319  69.6947403  74.7616119  47.5703468  36.4654274  35.8113441
  48.2949333  36.0027580  36.2322311  47.7537346  37.3915710  35.9690056
  66.4359970  48.2685127  20.7216740  65.9827576  47.5700760  21.1938972
  66.7499008  48.8571625  21.4081020   9.4040823  32.9969788  85.3329086
   9.8612375  33.5260696  84.6792221   8.8274870  32.4296227  84.8211670
   1.8404436  14.7805166   4.2391686   2.1512573  14.6051483   5.1273537
   1.7714615  13.9158316   3.8344567  51.5319252  55.1324921  33.6706467
  52.2407074  54.6114769  33.2932854  51.1713905  54.5798302  34.3640556
  65.3893738  32.2871361  85.1955566  65.7790527  31.7918491  85.9160156
  66.1055222  32.8271027  84.8611908  15.4542150  64.7221375  75.4001617
  15.9811792  64.3205032  74.7093430  15.9399843  64.5448380  76.2056580
  35.8552742  41.0405693   9.0977383  35.0715027  40.8616257   9.6172695
  35.9537849  41.9920425   9.1327896  76.4582367  21.2055969  64.5071869
  76.3093414  20.2621689  64.5704651  77.3421478  21.3322258  64.8520050
  79.0751419  65.3744354  30.1435814  79.9889450  65.1024628  30.2285957
  79.0872192  66.3143768  30.3241138  69.8486938  60.0069542  20.6337337
  70.6184692  59.6689110  21.0913391  69.1093292  59.7425728  21.1811695
   0.5317944  18.2651367  15.9913845   0.1230250  17.6791821  16.6284084
   0.6622975  19.0844269  16.4688416   9.9939728  37.8612442  73.3529282
  10.1761465  38.4105415  72.5904922  10.8561459  37.6714401  73.7228851
   1.0435745  23.2770939   6.9938951   1.6266954  22.7551193   6.4427657
   1.0858884  24.1575565   6.6207623  18.8572330   5.4948354  81.6425323
  18.6048298   5.7815542  82.5202103  18.1286831   4.9467816  81.3508377
  65.8095398  14.0157452  86.0658112  66.5210037  14.0491009  86.7052917
  65.0814667  13.6122332  86.5383835  86.8409195  27.0976524   0.6756237
  86.7214127  27.7675552   1.3488102  86.0811844  26.5233612   0.7716800
  22.5091991  51.2022743  75.9860611  23.3965950  50.8466377  76.0338211
  22.2817421  51.1546745  75.0575027  41.1293259  36.4791260  45.5598221
  41.2201347  37.1001701  44.8371277  40.1863899  36.3306961  45.6310196
  75.5614166   9.2587376  71.3706894  75.6895676   9.8777361  72.0894699
  75.4049225   8.4190550  71.8027496  53.0049934  51.8748512  66.7215347
  53.1869125  51.0285225  66.3130493  53.7213821  51.9992599  67.3440704
   6.3358598  38.6840782  60.6373558   7.2188816  38.4850426  60.9486237
   5.7914009  37.9841843  60.9978294  59.4516335  23.4608860  36.7501984
  58.8267708  23.7824230  36.1002808  59.0480270  23.6674728  37.5932007
  77.7237473  23.6825066  68.7151642  78.5617294  23.4386234  68.3220596
  77.1179276  22.9977398  68.4317780  65.1258240  38.2748489  70.9051056
  65.6473999  39.0101089  71.2269592  64.3186264  38.6764069  70.5835419
  28.7598686  42.3184891  27.8723526  28.4081879  41.4797592  28.1708279
  28.0896969  42.6627197  27.2819233  79.7290344  25.5107288   5.6367340
  79.4586182  24.9020195   4.9492874  80.6613464  25.6555119   5.4752941
  16.9853249  66.9002380   3.6703780  17.8031635  66.6096802   3.2667131
  16.5445004  67.4015274   2.9843645  52.8647079  35.4703865   0.7576151
  52.5646477  35.2172737  -0.1153860  52.0888634  35.8389931   1.1800221
  34.9502640  48.0157547  88.6613007  34.4035606  47.4738274  89.2302094
  34.9312630  47.5693169  87.8147964  55.2267761  12.2554817   5.5813570
  55.0084610  12.2163858   6.5125079  56.0848122  11.8358593   5.5186992
   3.2913539  17.4409580  62.2019272   3.6072061  18.1411438  61.6307831
   2.8099458  17.8948956  62.8936043  66.9239273  13.3188200  31.0996742
  67.8299332  13.0209827  31.0179749  66.9886856  14.1631718  31.5458889
   4.2037859  43.6902809  64.0132065   4.5763445  43.0400543  63.4176979
   3.3526893  43.3287392  64.2604980   3.3654270  23.0672817  36.4463310
   3.7425911  23.5573540  35.7157097   3.8114538  22.2206860  36.4225044
  67.6426392  58.4426613  35.5165558  67.7092361  57.4923820  35.6101990
  67.8443604  58.6072884  34.5954475   6.1510606  28.0336208  64.7435150
   6.4239440  27.7771702  63.8626099   6.2291317  28.9876080  64.7502289
  45.1013069   0.7120755  86.4286423  45.2764282   1.3145149  87.1515808
  44.5036964   0.0619645  86.7980423  61.9375038  68.2554398  76.7749405
  61.7566338  67.3173828  76.8346405  61.5395432  68.6266861  77.5623627
  47.3550224   5.6226726  79.7923965  47.7012978   4.9351468  79.2235107
  47.9419022   5.6260242  80.5485687  28.1941776  51.5275230  33.1521568
  27.6455631  51.2685699  33.8925591  29.0039711  51.0306625  33.2687683
  36.2444267  13.1958990  86.8536835  36.0843735  13.8037157  87.5756073
  35.4238205  12.7117548  86.7618027  11.7028303  61.4640274  59.7580681
  12.5335712  61.1023560  60.0667648  11.7711334  61.4401512  58.8036079
  15.6341105  54.8538399  73.7393875  16.3487434  55.4810982  73.6294861
  15.0596895  55.0115051  72.9901047  15.9469748  33.9288979   5.2221575
  15.4962835  34.5804253   4.6849213  15.4601755  33.1181450   5.0740471
  48.7450256  14.3475075  51.6716614  48.6245728  13.4018583  51.7581024
  48.5277481  14.5341349  50.7583199  18.5324211  69.0211868  60.6236229
  18.8311501  68.4151306  61.3016243  17.5965786  68.8401947  60.5360298
  65.3414536   4.9714303  33.7940292  65.4865265   4.0612335  34.0523453
  66.0826645   5.4476581  34.1682625  81.0340195  47.5284538  44.8081017
  81.8060837  47.2492981  44.3159409  81.3880997  48.0029373  45.5602493
  64.9389572  17.0291939  49.0741158  64.1477509  17.2341652  48.5759125
  65.3253632  17.8823681  49.2716484  79.5295868   3.5045118  58.1781998
  78.6345367   3.8434012  58.1617813  80.0612030   4.2460876  58.4674759
  85.3266830  54.2210579  32.0055580  85.6016541  55.1335030  32.0953636
  85.3132629  53.8856125  32.9019547  33.5315475  54.7771301  23.7902966
  33.9010735  55.6002922  23.4707870  32.6247673  54.7867470  23.4838867
  36.8883629  41.9018860  17.0952549  37.0726357  41.9596558  16.1577377
  37.6169434  42.3625793  17.5113869  12.5736742  63.5953064  82.1252899
  11.6349707  63.5406036  82.3043900  12.6794958  64.4204712  81.6518707
  80.0528336  12.5467558  65.0047760  79.8766174  11.7128811  65.4404678
  80.7985764  12.9126205  65.4804230  61.5484734   1.4387037  52.0021820
  61.3812904   2.3321648  52.3021965  60.8318634   0.9235725  52.3727760
   7.6759210   5.9380231   4.5832982   7.7622690   6.6334295   5.2353606
   6.7869406   5.6046433   4.7049665  38.1018982  70.9028320  84.7541122
  38.0499344  71.8212509  85.0187454  38.9112587  70.5839310  85.1534500
  68.5231171   1.2591983  23.8561287  68.0912399   0.5556300  23.3716660
  68.5603867   1.9883889  23.2371597  55.7011337   3.6087127  75.7628632
  55.0778503   3.6190670  76.4892578  55.9754601   4.5210085  75.6696320
  32.3577118   1.3540035  60.4066048  33.2539558   1.4040786  60.0742302
  32.3442459   0.5595568  60.9403725  57.8191566  39.9989471  68.0762787
  57.4033813  39.2443504  67.6592102  57.9839172  39.7150116  68.9754333
  60.6842690  70.8042603  16.7283821  59.9422798  70.6759949  17.3193398
  61.4464035  70.8445816  17.3060989  43.3133812  59.6579628  26.0173626
  44.0389023  60.1390152  26.4154167  43.3556023  59.8861351  25.0887146
  48.9660683  23.9204826   9.0691633  49.6881065  24.3287106   8.5914192
  49.3735542  23.1990337   9.5484314  56.1648445  67.1651688   7.3573761
  56.1216164  67.7578430   8.1077757  56.1938133  67.7445145   6.5959578
  79.6258240  62.2168427  53.1558800  80.0652924  62.9771538  53.5367050
  80.3379135  61.6695137  52.8248482  10.3193483  39.6479530  59.7598190
  10.0731354  39.8578720  60.6606750  10.7904816  38.8174896  59.8276062
  74.0873184  51.7329254  39.3964844  74.7110596  51.3986435  38.7519417
  74.5785599  52.3934174  39.8850136  38.6256485  29.0522575  80.2378616
  37.9121933  28.5096951  80.5737762  39.4022293  28.7419300  80.7035370
  38.6831856  59.9685287  71.0004883  39.2988129  60.6942825  70.8979416
  39.0592079  59.2598915  70.4783096   9.8221359  52.7035904   1.1263134
  10.2987108  51.8792114   1.2238057   9.3436041  52.6076698   0.3028823
  49.7499809  27.1292057  75.8038864  50.3422661  27.4026794  76.5043488
  48.8756981  27.3318882  76.1367264   5.6221704   9.5965796  17.9745255
   5.6488171   9.5930052  18.9313469   6.1351252  10.3647575  17.7235031
  69.8348541  70.4603195  52.3831253  69.9622498  69.9743576  51.5683594
  70.4976807  70.1090393  52.9776726  74.7859726   6.8832536  28.2514515
  74.7433243   6.7819877  27.3005791  75.2211990   7.7255216  28.3833370
  56.4989548  22.8448162  20.4975052  56.5980873  21.8989944  20.6062527
  56.0205193  23.1267071  21.2771664  15.6128883  38.6347961  65.4376221
  16.3047657  38.1720428  65.9102707  16.0188026  38.8913956  64.6095963
  86.1392441  28.4024029  27.8064499  86.3056030  27.7288036  28.4658566
  85.7208176  27.9329643  27.0847950  52.5016632  68.2254562  76.2318039
  52.3053703  69.1199341  75.9532166  53.4421349  68.1288986  76.0820618
  71.8191833  12.3681574  27.7292500  71.6187515  12.3266258  26.7941914
  71.7572403  11.4608870  28.0280056   9.0886164  52.6004143  10.0960245
   8.6980658  52.0398178  10.7664232   8.4746637  52.5602074   9.3627596
  31.7861614  63.7639236  62.2722969  31.5045605  64.4266281  62.9029694
  31.9456711  62.9823074  62.8013191  56.9232712  12.7106686  70.8768539
  56.7999306  13.2001486  70.0635757  57.6150208  12.0807114  70.6747055
  67.6931686  48.8388748  50.1007233  67.6523514  49.5814896  50.7032928
  66.7794724  48.5840836  49.9723740  81.9245529  55.0646858  58.0016861
  81.5861206  55.2239113  57.1205826  82.5561142  55.7692146  58.1466217
  61.2411766  71.2104263  43.5784721  60.3752365  70.8196335  43.6953239
  61.1438484  71.7858963  42.8197937  51.4828072   0.5214522  64.5727539
  51.0976219  -0.1395696  65.1480026  52.2871132   0.1168154  64.2477951
  69.8349075  14.4929514   8.7201548  70.3269577  13.7266388   9.0149155
  69.6682510  14.9925556   9.5194368  61.5854721  17.4582481  79.5531769
  62.1370621  18.2024307  79.7943802  60.9620018  17.8169823  78.9216537
  74.0566406  36.4319611  83.0965729  74.2889252  37.3392830  83.2941666
  74.0654602  36.3852234  82.1405563  28.8011036  62.0352364   5.4280295
  29.0410805  61.2036552   5.8368301  28.1201935  61.8038826   4.7963104
  21.3054333  16.3111782  56.1377716  21.4183750  15.8101654  56.9455223
  21.9032536  15.8985405  55.5144157  81.4010849  18.0114231  41.7989159
  82.0958862  17.7117767  42.3851738  81.6816177  17.7258720  40.9294357
  32.4911690   1.0232215  21.2337799  31.8348885   0.4230061  21.5877151
  33.0410156   0.4742952  20.6746902  50.6170311  25.8996887  26.3825970
  50.6233025  25.7660732  27.3304062  50.4593658  25.0284138  26.0189304
   2.6124012   9.5568972  70.0716782   3.2892694   9.2539911  69.4664230
   2.8489516  10.4649744  70.2605438  52.6731110  28.3262138  80.6615982
  53.2605972  27.7428093  81.1419449  53.0365639  29.2005672  80.8017426
  86.9459991  63.4817085  81.7606812  86.7734070  63.4370804  80.8202286
  86.6260147  64.3451004  82.0222092  61.5619202  32.6630974  10.1668911
  62.1938858  32.0771370   9.7503548  61.6558495  33.4908142   9.6954088
  19.8541889  58.5561752  58.0100861  18.9864540  58.1975021  58.1961632
  20.4504719  57.8180275  58.1358452  35.7506294  68.9587250  69.7286911
  36.2549629  68.1466446  69.7777557  35.2385979  68.8744507  68.9243622
  54.5464859  31.2918243  60.2608643  55.4699173  31.0587616  60.3567390
  54.1518860  30.5342979  59.8288002  65.3453598  62.0808411  51.0068283
  65.8610153  61.2749748  51.0369949  65.9182129  62.7461624  51.3881645
  65.3192902   9.2760792  41.3423653  65.8073196   8.6361427  41.8605766
  64.4126282   8.9711771  41.3773003  52.2368851  26.9758282  40.5133133
  52.1291199  26.6226807  41.3964386  53.0861092  26.6422062  40.2239304
  29.3942204  60.5429497  64.8080978  30.0192814  61.2110252  65.0895386
  29.9156342  59.7438011  64.7324753  79.8146973  43.0405197  79.2814941
  79.8604813  42.8662643  78.3414078  79.7870789  43.9950676  79.3470917
  38.2559547  33.2079430  85.6884308  38.0352898  33.2170830  84.7570572
  38.9261932  33.8848305  85.7824326  17.5555573  43.1662788  46.1013184
  18.2171345  43.5530434  46.6748695  16.9736443  43.8939819  45.8821030
  23.1209393  26.3848610  88.0309830  22.1640472  26.3698101  88.0500870
  23.3528118  27.2621555  88.3356476  50.0428848  46.5518570  64.0857849
  49.4710464  46.0287933  63.5239754  50.8118095  46.7308731  63.5445480
  74.5316925  36.4610901  41.8849831  73.6140289  36.6118546  41.6582832
  74.7068634  37.0767708  42.5966606  11.6558285  58.9633522  48.9069061
  12.5771723  58.7819481  48.7212982  11.4596100  59.7504654  48.3987885
  86.2264709  54.1143875  43.4465828  87.0838013  54.4215393  43.7413216
  86.0573273  53.3338280  43.9741707  38.7494049  65.5295105  51.6515503
  39.1311798  66.2654190  51.1730919  38.7884903  64.7975082  51.0360260
  59.5930443  10.8409786  10.1430321  59.8020058   9.9160662  10.2738113
  58.8982620  10.8387842   9.4846210  69.0091019  37.8065453  71.2301254
  68.2494659  38.2987633  71.5414200  68.7595749  36.8885574  71.3362579
   0.9401976  26.4098244   6.5602078   1.0580666  26.4279633   7.5099497
   1.0369802  27.3227921   6.2893667  71.2564011  43.3330688  53.5550346
  70.6210403  43.5743675  54.2290726  70.8995361  43.7012100  52.7467308
  72.8941650  49.8900337  40.8625984  73.6315155  49.5784836  41.3874664
  73.2191849  50.6858749  40.4416084  17.6580391  49.1867676  38.6614037
  18.3171692  49.6193199  38.1185608  17.9112873  49.3984375  39.5598984
  81.6948166  64.4015732  47.6687622  82.0298004  63.5215569  47.8407784
  80.9746933  64.5094147  48.2900620  19.6290569  40.3339882  29.6862640
  18.8604469  39.8948288  29.3221073  20.2630424  39.6305885  29.8259773
  81.3901367   1.8683895  79.6235657  81.9567490   2.6384687  79.6700592
  80.9002151   1.8815166  80.4457779  86.2789459   8.4854727   1.0071781
  87.0471039   9.0542431   1.0587745  85.5360870   9.0731649   1.1450442
  62.8883820  61.5771751  65.5172424  63.5398521  61.0154114  65.9370499
  62.4455757  62.0150146  66.2441940  70.3556366   2.8816314  71.9788361
  70.6347885   2.2773302  71.2909927  69.4111786   2.7433677  72.0503082
  59.1186867  18.9748726  49.4272766  58.7757645  18.6621189  50.2644272
  58.3806877  19.4291878  49.0208397  26.3587570  50.5941849  12.6210356
  25.5190430  50.5653152  12.1624765  26.1241474  50.6303635  13.5483341
  16.5487251  39.2375870  63.1105385  16.8424416  39.8041649  62.3971291
  16.2444763  38.4416351  62.6745033  60.2365761  26.1759815  84.4261475
  59.7311020  26.9376926  84.1423874  61.0217628  26.1921959  83.8789291
  41.1835022  25.9448395  67.4306870  41.3391495  25.3609543  66.6883392
  40.4428749  26.4865379  67.1581726  77.1554947  56.6682510  47.8625832
  76.6867981  56.2377701  47.1475716  77.8152390  56.0303802  48.1347885
  52.2141647  17.7392750  85.5895081  51.6180573  17.3457794  84.9522858
  52.3195305  17.0689659  86.2646484  30.4677124  17.8064442  85.8436813
  30.0050163  18.1340580  86.6149216  30.1313515  16.9186211  85.7217560
  76.0916977  63.5346489  88.2043152  75.3816071  63.7835312  87.6126556
  76.8903503  63.7051163  87.7049942  57.3488159  67.9753342  67.4368820
  57.2957230  67.3625565  68.1703033  58.2841454  68.1556244  67.3426285
  59.1750069  59.2521095  67.3185577  58.3690262  58.8256607  67.6097183
  59.7735252  58.5294304  67.1294861  33.0222855  53.7251091  28.8943729
  32.5937576  53.6476898  29.7467823  32.8683243  54.6322212  28.6304054
  80.6355591  66.3067245  67.3078766  81.0656281  65.4609833  67.1813736
  80.3843002  66.5819092  66.4261932  37.8695793  63.8488731  47.0433922
  37.2386780  63.2005882  47.3563156  38.0065956  64.4302292  47.7913818
  64.1212540  22.5010281  71.6072464  64.5550995  22.5462627  72.4592743
  64.8263702  22.3079109  70.9893875  59.9487076  70.2514038  61.1334076
  59.7229080  71.1438217  61.3957825  59.9268684  70.2702713  60.1766434
  41.2541199  56.1546364  76.6684189  42.0399132  56.2479057  76.1298447
  41.5658340  56.2604713  77.5672302   7.1949534  48.0020561  81.5630722
   6.4690504  48.1363373  82.1723862   6.8668432  47.3551712  80.9384766
  29.2386513  13.9773455  79.3616714  28.7009068  14.0205069  80.1523666
  28.6955738  13.5086031  78.7279739  10.4040651  63.4431229  43.8491898
  10.5237875  62.5112648  43.6660576  10.1229134  63.4733086  44.7636719
  78.0663376  46.2825432   6.8566189  77.5018921  45.7291336   7.3964047
  78.0801773  45.8499527   6.0028591  81.8589249  44.2397423  70.2432404
  81.0415115  44.7053375  70.4201279  81.6492920  43.6564102  69.5138474
  31.0080738   3.9243712  24.0106621  31.6464310   3.8017411  23.3080292
  30.3790188   3.2131319  23.8895741  48.3595123   9.8334408   8.5650587
  48.2754517   8.9526834   8.9303427  48.8169670  10.3311424   9.2427473
  83.3573837  24.4982605  25.4349022  83.8071289  23.8367233  24.9092350
  83.5428543  24.2510433  26.3408356  17.7698059  48.3960304  26.0822372
  18.1965752  48.3761978  26.9388027  16.9194107  47.9817696  26.2286911
  58.8553085  55.5390053  42.3942909  58.4614830  54.6725731  42.4963837
  59.5879173  55.5432014  43.0103226  64.9151993  70.8040543  79.2817841
  64.8039093  70.7623596  78.3319931  65.8633652  70.8262634  79.4110947
   2.9145730  39.1378479   8.3420782   2.9594646  39.7043762   9.1123142
   3.3675218  38.3372574   8.6068840  28.4159222  10.8527708   1.4713048
  28.8255615  10.6264992   2.3063073  27.5298367  10.4963398   1.5348545
  28.3341770  22.4214840  72.5250854  27.3892059  22.2691422  72.5322571
  28.6248074  22.0837536  71.6779175  69.2478638  24.3933029  86.2742462
  69.2704468  23.7656956  85.5518646  68.5671921  25.0190945  86.0266495
  82.5349808  33.3640785  75.2077255  81.9088287  33.5819016  74.5172729
  83.3818054  33.3344917  74.7624817  30.4185066   2.4092631  67.2973709
  30.9533920   2.0608907  68.0106506  29.5162048   2.2562525  67.5778580
  75.2424240  27.1584187  19.1139469  74.3949661  27.5926208  19.2115383
  75.3051071  26.9628925  18.1790276  75.2019958  18.6304646  88.8283844
  76.1254425  18.7478561  88.6054611  74.8120117  19.4945908  88.6963654
  15.5805845  23.6590576  88.7272034  16.4188232  23.2769375  88.4672623
  15.1298332  22.9540539  89.1919937  56.5229263  51.1423569  72.5568085
  56.9265366  51.9491272  72.8768921  57.0210266  50.9211922  71.7699051
  50.1841736  49.1173515  10.5033751  49.7996635  48.9903107  11.3706951
  49.5559235  49.6728287  10.0418806  85.0385666  31.7159042  15.2822685
  85.5628738  30.9814816  14.9629602  84.3771591  31.8509407  14.6036396
  14.1870289  18.9054298  72.7189789  14.4763689  19.5126896  72.0379868
  14.8476229  18.9848404  73.4071274  74.9961548  70.6198502  57.7501907
  74.8193665  69.7264786  58.0449409  74.1439667  71.0547638  57.7794571
  71.1353531  27.0073032  51.2760201  71.1997452  27.6253338  52.0041199
  71.0668030  26.1495495  51.6952972  52.4689980  41.3868065  13.3564348
  52.3819084  41.0026779  12.4840298  53.2595139  40.9852753  13.7171125
  36.1188660  55.9640388   3.5270612  36.1898880  56.8946114   3.7397215
  36.9851074  55.7272873   3.1956935  43.0156746  36.1853714   2.5944526
  42.5634804  35.3643074   2.7883818  43.9430161  35.9490433   2.5740347
  18.5492802  62.0263443  24.2612534  18.9310036  62.7739601  23.8012676
  17.6826534  62.3290482  24.5324726  20.4399452  46.1103783  75.2010956
  20.8636208  45.2598991  75.0852737  20.1105461  46.0934792  76.0996780
  78.9638824  52.7699242   5.6730537  78.4696655  52.2618828   6.3163862
  79.2130051  53.5683365   6.1385765  86.8702927  55.6192093  83.5730133
  85.9526520  55.5918503  83.3020630  87.1484909  56.5158844  83.3864441
  25.2077999  46.6475983  18.7094688  25.7274609  47.3740883  19.0535583
  25.8556919  45.9992332  18.4336205  54.7619896  34.5001717   3.1157582
  54.1792068  34.6362877   2.3687165  55.5825310  34.9210396   2.8592148
  79.5307159   2.4455316   8.4486952  79.9775162   2.2176464   9.2639694
  80.2215652   2.4360404   7.7862253   6.8507705  22.7263374  60.7025146
   5.9448190  22.4196148  60.6650314   6.7874217  23.6747208  60.5894356
  47.8860703  22.5078526  14.7807770  48.6516571  22.4166927  15.3480473
  48.0262527  23.3352814  14.3204041  56.3886108  12.2098875  86.9779663
  56.5248070  11.7865295  87.8255768  56.4943085  11.5053949  86.3386307
  64.1788101  10.8296165  15.7496290  64.6769714  10.1367817  16.1832695
  64.1019897  10.5369081  14.8415251  68.5629883  13.0789814  33.9505806
  68.0464935  13.0076036  34.7533073  67.9812698  13.5175247  33.3296814
   4.5136886  38.1019859  36.8449211   3.7081411  38.6073799  36.9540253
   4.7535295  38.2288094  35.9269753  21.7946167  12.7463636  75.4922485
  21.3377838  11.9497652  75.7623749  22.3857517  12.4591742  74.7963257
  70.9664383  63.3168907  40.8545036  71.0093842  63.7510452  40.0025101
  70.0785675  62.9618874  40.8979378  51.5354195  50.3096962  32.4909096
  51.1048470  50.4532890  31.6481628  50.8158188  50.1769028  33.1079788
  70.7160797  16.0471973  52.1395493  71.2701263  15.2734156  52.0369225
  70.8738403  16.3372822  53.0379906  61.9493637   9.1771116  58.0568771
  61.0534859   8.8956060  58.2423363  62.1685448   9.7684040  58.7769928
  59.7787437  43.2816544  78.4556198  60.6643257  43.1535301  78.7955704
  59.8995018  43.8070564  77.6646729  21.8383141  43.1181564  15.9945364
  22.5691910  42.6859627  15.5526552  21.2909508  42.3994675  16.3109493
   4.6333704  71.2657318  27.2324581   4.6584311  70.5252838  27.8385468
   4.9550958  72.0066452  27.7460499  26.2815857  59.1898079   6.5718155
  26.2541084  60.1423073   6.6624846  25.9755478  59.0251884   5.6799226
   9.5874090  38.0305214  31.3279476   9.5902605  37.5694504  30.4891167
  10.2623253  38.7027588  31.2340508   9.8349171  32.8957329  74.5462570
  10.6598082  33.0400124  74.0826111   9.2172375  32.6385155  73.8617554
  37.5589485  17.5339661   6.2381606  37.7414093  16.7410851   5.7338986
  38.3186531  18.0956440   6.0845346   6.1125798  31.4044189  10.1115913
   6.0915604  31.7313175   9.2121868   5.3474369  30.8329716  10.1766768
  63.9114151  55.9136429  18.8081245  64.7523880  55.4619789  18.8787956
  63.9839706  56.4308128  18.0059395  80.7655792  63.9590111  70.6971436
  80.1133652  63.9190559  71.3966064  80.7853317  63.0723114  70.3371429
  62.4604836  12.0177774  88.3040848  62.5003052  11.7466946  87.3869324
  63.3702774  12.1990442  88.5399780  17.2293053  39.9731827   8.0736284
  18.0115509  39.4223251   8.0439453  17.4639988  40.6909561   8.6618042
  12.2381144  39.9493446  36.1269188  11.8031378  39.7385139  36.9531021
  11.5499744  39.8684959  35.4664955  78.6431503  33.5307541  32.1525841
  78.0843582  32.7771606  31.9626312  78.2468796  33.9341431  32.9249001
  51.7597961  68.7340546  39.9546280  52.6790543  68.6285095  39.7095680
  51.5573921  69.6443863  39.7388344  77.4375153  39.0920677   8.0993052
  77.9451904  39.8526840   8.3820715  76.5696487  39.4436989   7.9008236
  74.1549988  10.9019756  20.6878834  74.9136581  11.4460592  20.4765873
  73.9877243  11.0737305  21.6145725  27.6937294  31.3155136  12.1043148
  27.4025402  30.4089699  12.2023869  27.8817749  31.4069557  11.1702328
   4.4723630  66.5337067  87.3699036   4.4569063  66.1979904  88.2661667
   3.9833207  65.8856125  86.8629150  85.6482544  39.8159981  23.3315105
  85.9451675  38.9306221  23.1213245  86.4266434  40.3621063  23.2214317
   0.7551423   0.8000662   6.8518829   0.7452313   1.6298594   7.3289328
   0.0281573   0.8707598   6.2332335  70.5286560  70.9717255  30.2617416
  69.7888336  70.4604187  29.9339352  70.9085388  71.3719025  29.4795780
   8.9445295  30.5543938  69.0232391   8.0968742  30.8064537  68.6569290
   9.0051794  29.6129990  68.8609772  68.6664047  49.2142906  60.7199440
  69.0108261  49.6476479  59.9390450  69.3862762  48.6617355  61.0243988
  77.6184845  10.2174664  18.6104507  77.8503647   9.8304558  19.4546585
  76.9444733   9.6365204  18.2576885  58.1236305  21.1819096  59.4165344
  58.9678688  21.2943611  58.9796753  57.4833870  21.1855145  58.7049789
  69.2057343  43.4254913  31.3407211  68.3052673  43.1019173  31.3145084
  69.3077011  43.9163094  30.5252876  69.9259491  46.0725555  22.9264336
  69.0617294  45.6787910  23.0460739  69.8510590  46.9399910  23.3241482
  37.7553177  12.3503284  21.0721188  37.4087448  13.0839024  20.5641937
  37.1455879  12.2564974  21.8040047  36.0775566  51.3512497  83.0299911
  36.2163734  52.1460342  83.5450439  35.4454498  51.6082153  82.3586960
   4.4273849  45.0383301   8.9535561   4.9264936  45.0903778   8.1384401
   3.5828016  44.6700630   8.6941490  34.3341103  43.0596962   7.7964869
  33.7249718  42.8310852   7.0944061  33.9513435  42.6693840   8.5822210
  11.3330574  10.8690176  17.4348125  10.8335104  10.2765570  16.8729630
  11.1373377  11.7425108  17.0957928  45.7903748  27.8662548  33.7645531
  44.8644409  28.0111847  33.9591560  46.0106354  27.0615501  34.2337761
  22.2136860  67.1759186  38.8457184  21.5696831  67.6639023  38.3325233
  22.4255428  67.7553635  39.5775642  63.5452499  49.9293823  64.9875183
  62.5881004  49.9285202  64.9974060  63.7903099  50.6356277  65.5853424
  14.6763067  47.9253883  22.1336460  15.4162521  47.4991570  22.5661278
  14.7929173  47.7236748  21.2052345  38.0589561   2.2538753  68.1667328
  37.4091301   1.6474971  68.5220718  37.6236496   2.6588609  67.4165802
  33.0677872   1.0316406  32.0707588  32.2179451   0.5961142  32.1364937
  32.8775826   1.8638183  31.6377068  27.7755184  48.6014824  70.6334229
  26.9894238  48.1004448  70.8507843  28.4806900  47.9542198  70.6369553
  20.7142906  38.1974220  80.9399185  20.5656090  38.8258591  81.6464539
  20.1637096  37.4478531  81.1662827  12.7939196  43.5775566  23.7714806
  11.9034786  43.9284439  23.7864475  12.7418747  42.8167953  23.1928902
  24.4489059  32.5890846  10.6152115  23.6259842  32.4189415  10.1568613
  24.7310715  31.7295170  10.9278755  21.7354927  44.4703369  46.0157967
  22.4335499  44.9800301  46.4270935  21.5489464  44.9345398  45.1997414
  25.6839504  19.4818974  20.2230244  25.1204815  19.1194916  19.5393620
  26.4075069  19.8887081  19.7463646  35.2698212  49.3275528   8.0820827
  34.9539032  50.0136452   8.6700487  34.4740524  48.9237900   7.7357359
  38.9262962  67.5244446   1.7180530  39.7075233  67.6688766   1.1841496
  38.2173920  67.4234695   1.0828441  65.6735687  13.0940037   8.0188198
  66.4563217  12.5609074   8.1578693  65.4024887  13.3555508   8.8987856
  27.8695526   3.3530602  39.7566948  28.5662785   3.2529063  40.4053650
  27.0626297   3.3629143  40.2714882   5.0050240  45.5989418  59.5102310
   4.1594319  46.0301819  59.3867912   4.8436222  44.6844177  59.2782211
   8.0300684  13.6732922  56.8531113   7.3043776  13.5806103  57.4703712
   7.7161818  14.3067446  56.2077827  40.3971748  17.7586727   9.7252836
  40.2950172  18.6652203   9.4355145  40.5038376  17.8211956  10.6744661
  33.1754532  44.2675476  12.7385416  32.3898163  43.8209267  13.0540342
  33.8810883  43.9288139  13.2895145  72.4437637  48.8196678  60.3245544
  72.2208939  48.9943504  61.2389145  72.9095688  47.9837570  60.3470535
  61.6840782  17.0933609  28.7760296  61.3279305  16.2800636  29.1337128
  60.9132156  17.6036663  28.5278454  57.0531731  67.2127151  36.4670525
  57.6635170  66.6125107  36.0387306  56.3383369  67.3160400  35.8389091
  71.2676849  44.2665176  36.2411957  70.8316803  44.9403687  35.7196083
  70.8677063  43.4455299  35.9544334  84.0892334  52.7879066  83.8617859
  83.5833511  52.0443153  83.5340958  83.7786179  53.5337448  83.3484802
  77.6657715  70.1689529   6.4113712  76.8619080  69.7347336   6.1259127
  77.3644791  70.9005432   6.9501100   0.6516167  70.8830032  59.7072258
   1.4934024  71.1436157  60.0810089   0.0002013  71.3152695  60.2595253
  42.2832298  50.2836037  46.8158531  43.0274887  50.1977463  46.2200851
  41.5399437  49.9373589  46.3220253  24.1785412  42.7751045  76.7460022
  24.9890194  43.1764259  77.0595245  24.2797985  41.8442192  76.9445724
  59.1713448  43.3786850  69.1502762  58.6087189  43.2190590  68.3925171
  58.8910217  42.7313919  69.7973175  50.5862236  35.7404289   2.1872787
  49.9525642  36.4578133   2.1789308  50.8093834  35.6287231   3.1113737
  38.1675873  52.5167122  66.4844971  38.5709190  52.4013481  67.3448715
  38.3408890  51.6942482  66.0265121  34.2965546  36.0093651  74.9546585
  34.3371124  35.5365334  74.1233826  35.0304298  35.6637878  75.4628296
  46.0600967  69.2392426  35.7612648  46.8539467  69.4586334  36.2490196
  45.6265678  70.0805969  35.6183891  50.8075676  46.3783264  25.2967892
  49.9537392  46.7939491  25.1765137  51.2959709  46.9896278  25.8481579
  85.4981537  70.0296402  37.3441505  86.1902313  69.4024506  37.5536461
  85.6449814  70.7585449  37.9469528   9.1112957  25.4387302  22.9617577
   8.2661076  25.7072906  23.3219872   9.7540245  25.9541492  23.4490738
  34.0383110  43.8252335  26.9912071  33.8772659  44.3661880  26.2181206
  34.2554932  42.9622345  26.6386471  26.3173428  47.1811905  25.2442188
  25.4344559  47.3714409  25.5613117  26.8564720  47.1602631  26.0348721
  66.9133682  36.2658768  23.2667427  66.5033493  37.1145439  23.4337196
  66.2988434  35.8123589  22.6897602  78.9549255   6.1709871  24.1042156
  79.2907028   5.8737154  24.9498615  79.6453476   6.7361755  23.7576466
  81.8529663  31.8789501  12.4820175  81.6695175  31.3751793  13.2749825
  81.1922302  31.5864735  11.8542299  78.2590942  16.5589237  44.9032402
  79.1969910  16.3836098  44.8267174  78.0707169  16.4518814  45.8355942
  52.2927017  36.1097336  77.3227615  52.3792763  36.7533722  78.0259476
  51.4129829  35.7494850  77.4347839  70.1267853  12.8205795   5.3173518
  71.0780334  12.8380318   5.4225411  69.9896317  12.4739866   4.4357100
  28.2711563  65.0112305  73.3234329  28.3953648  65.3345490  72.4310913
  28.4247913  64.0685654  73.2601852  52.1545944  32.1491699  19.5216427
  52.4790611  32.3277092  18.6389904  51.2506905  31.8625450  19.3911285
   9.2340527  41.2242928  13.0211725   9.0281115  40.4186478  13.4952507
   8.8142099  41.9166107  13.5317211  22.6191311  59.2457047  50.9023666
  22.3539791  60.1652298  50.8823586  22.5487881  58.9562988  49.9926834
  52.2961006  51.1201630  10.3579521  51.7401924  50.3413467  10.3834772
  52.4634895  51.3251991  11.2778273  51.3634262   9.7867031  50.4322128
  52.0123367   9.6298084  51.1181641  51.6755486   9.2752438  49.6857414
  71.0926132  14.6132851  43.9985199  70.7710190  14.6191816  43.0969810
  71.4984894  13.7526417  44.1024055  30.1299934  50.2817841  80.6085358
  29.1815872  50.2296371  80.7270126  30.4785309  49.5756416  81.1526947
  36.3370514  50.3053246  38.0727692  37.0270157  50.3394203  37.4101830
  36.1907082  49.3706360  38.2182884  12.7260256  66.6476517  66.6658707
  13.0607920  65.8764420  66.2082748  11.9243336  66.8760834  66.1953964
  49.9058189  69.3595581  49.3853531  50.6944580  68.8181152  49.4187431
  49.5373306  69.3006134  50.2668152  49.6559792  16.0048962  77.0135345
  49.3369408  16.7819958  76.5546646  49.5620842  16.2193737  77.9416580
  10.9715004  48.7335014  25.3562508  10.0346527  48.5532532  25.2784023
  11.2988749  48.6919479  24.4577351   6.1922507  45.0049515   6.7896614
   6.7263756  45.5857697   6.2478161   6.7304168  44.2216072   6.9035864
  74.6981354  49.0702782  87.8044739  74.0032730  49.3529892  87.2099457
  74.9753571  48.2205162  87.4620056  81.0908203  69.3777161  57.0672874
  81.1207199  69.6250763  56.1430855  81.6943130  69.9837646  57.4970894
  24.1743107  64.3383636  71.6750107  23.4138165  63.7950172  71.4684753
  23.8348122  65.0111237  72.2652359  44.7087173  56.3515854  17.0263653
  44.5232048  55.8260651  17.8045979  43.9067459  56.3007622  16.5062828
  61.7214165   2.6256917  79.0658722  61.6058884   3.5599298  79.2393265
  62.1017456   2.5902727  78.1881943  27.4281082   7.0117998   4.1096888
  28.0416965   7.0818119   4.8410153  27.9842548   7.0000200   3.3307190
   2.2180040  17.2455616   7.9787984   1.6432172  17.3060741   8.7418127
   2.8266861  16.5385361   8.1929293   4.2262402  19.0808964  59.8397789
   5.1098080  18.8074780  60.0863228   4.0233841  18.5620098  59.0614243
  83.7354736  23.2633762  60.0873489  82.9487991  23.2512054  60.6325264
  84.3096085  22.6061459  60.4806137  63.5299683  57.3846626  16.3191872
  64.4196930  57.7248421  16.2248325  63.3183517  57.0252342  15.4576406
  66.3743591  36.1471481  63.7681961  66.6072769  35.2214661  63.8395462
  67.2067871  36.5919800  63.6087646  32.5562744  31.5996876  68.9825897
  31.8256378  31.2857227  69.5153427  32.3422623  31.3184528  68.0930176
  57.7153969  25.3348408   9.7172585  57.8524055  26.2246265   9.3920803
  57.9048996  24.7733040   8.9655952  11.7417269  17.8721523   8.1111889
  12.2738028  18.3008442   7.4408536  10.8404303  18.1008720   7.8840675
   2.3913782  45.9061356   5.5417523   2.9529424  46.6101799   5.8660951
   2.8058295  45.6258583   4.7257214  32.2625809   7.8734012  76.6639709
  32.5961266   8.7381554  76.9030991  32.1547241   7.9126635  75.7136765
  16.2977924  59.4738617  25.1477737  16.2736664  59.9138565  24.2980347
  15.5509167  59.8345909  25.6255646  62.1469765   2.0892346  19.4212322
  63.0505142   1.8482579  19.2168331  62.2258949   2.8613899  19.9813919
  24.5658474  51.6337090   1.2530589  25.0866470  51.5469398   0.4546423
  25.2111721  51.6449013   1.9599270  37.0071640  37.5283127  74.5272369
  37.0268784  36.6871758  74.0708008  36.4843369  38.0959206  73.9609375
  56.6475983  43.1104927  45.8316612  56.6275558  43.7125587  46.5755348
  56.3312378  43.6312561  45.0934525  29.4199142  69.8699646  25.1161728
  29.2532272  69.6838150  26.0401840  28.7309723  69.3977280  24.6486416
  23.6560135  29.5439320  11.9468889  24.2753754  29.1976757  11.3044491
  22.7946529  29.3661175  11.5691681  67.9890289   6.5993323   7.6462727
  68.5785217   6.8536673   6.9363122  67.1212158   6.8683090   7.3449855
  39.8505936  52.7780495  46.7892914  39.4282265  53.3545227  46.1524925
  40.6998405  52.5714417  46.3990021  45.5876236   0.6819531  78.5420074
  45.3038330   0.6768075  79.4561539  45.0417175   1.3488389  78.1254959
  38.4473724  50.6452789  82.2791290  38.3923302  49.9365501  81.6381073
  37.5437622  50.7810783  82.5642166  70.0922623  61.3563805  29.3321209
  70.4329376  61.9026146  30.0405006  70.8395691  61.2282791  28.7478638
  63.0930061  33.7109566  17.8113651  64.0456772  33.6179237  17.8116722
  62.9190178  34.3957176  18.4571667   5.9131465  46.7849808  27.1276398
   5.4074850  47.4116707  26.6101456   6.5003142  46.3707504  26.4952812
   1.0743363  21.6464672  64.6095886   0.8100853  20.9048538  65.1540298
   0.2764286  21.8987980  64.1449356  73.7844315   9.0760307  56.2945480
  73.8362122   9.0874720  55.3388176  73.5058670   9.9610338  56.5299301
  17.2496319  60.5776634  15.7686577  17.7166843  61.1569862  16.3707199
  17.8962917  59.9161644  15.5227327  56.5457916  54.7178078  23.0840321
  56.5629387  55.2850380  22.3131943  56.3582878  55.3095207  23.8126965
  43.9137001   7.6156712  67.5403290  43.9764404   8.4216824  68.0528183
  44.0560455   7.8951650  66.6359787  64.1550751  36.5584259   5.3909936
  64.4127960  36.8894539   6.2513604  64.4061737  37.2529755   4.7820778
  78.7983932  29.0969639  57.1051826  77.9468231  28.8462811  57.4632607
  78.8980103  30.0178623  57.3465385  79.4858780   9.2788429  79.0374374
  80.3706131   9.5850725  78.8382111  79.5161057   8.3362551  78.8735886
  64.2659073  32.0815887  20.6410770  63.7052231  31.7461090  19.9415627
  65.0840607  31.5937347  20.5470085  49.8292122  53.2934799  81.0585022
  50.0198441  52.6302071  81.7218018  49.3225136  52.8280220  80.3930435
  43.6981812  62.9677124  24.2675171  43.8425179  63.9135513  24.2955322
  42.9736328  62.8179016  24.8748207  49.5908165  70.3850784  88.0181732
  48.8438110  70.7962646  87.5832596  50.0656013  69.9445801  87.3133469
  39.3608627  50.3205643  21.7400799  39.5866318  51.2505493  21.7203083
  38.4865990  50.2945518  22.1289482   7.5009017   4.3280826  78.2666168
   7.8594484   3.9043317  77.4868011   7.9249663   5.1859174  78.2894440
   4.7730727  69.2230301  29.4174271   5.5442128  68.9082718  29.8891277
   4.1404786  69.4317169  30.1048183  74.4364395  46.9804268  32.2642403
  74.7800293  46.9198608  31.3728886  74.9542694  47.6734009  32.6739693
  41.1768494  44.1346283  62.3639526  40.5004234  43.7712135  62.9354515
  41.4084740  44.9706192  62.7685547   6.0169511   1.8828213  46.4117241
   5.9500446   2.8286152  46.5429840   6.6611214   1.5961461  47.0591011
  47.6895294  17.4352379  67.1685486  48.5097542  17.8962860  67.3443222
  47.4924393  17.6373158  66.2539139  72.1208954   0.8771368  21.9904041
  71.3528748   0.3097883  21.9233704  72.6492767   0.4838940  22.6849575
  22.9623947  53.8593330  52.1594963  22.4438343  54.6024895  51.8512039
  23.1287079  54.0498619  53.0826797  31.2015972  27.1499329  79.2996597
  30.5742626  27.8587456  79.4420319  31.9809570  27.4185467  79.7861557
  44.7751923  49.4870911  40.9947586  45.3112907  48.8481865  41.4644699
  44.5088997  50.1157303  41.6656761   2.3939757  28.5749722  21.7965698
   2.5239131  28.9112892  20.9098682   3.2794745  28.4623737  22.1421776
  58.7613335  48.7557068  37.3573074  59.2202377  48.6637840  36.5223274
  58.0491714  48.1178322  37.3106956  63.2588463  22.5439377  34.6732903
  63.8493500  21.8098736  34.8426552  63.6437531  22.9921207  33.9201546
  11.6278915  -0.2283264  11.9593468  12.1681786   0.5097186  11.6771927
  10.7439461  -0.0026194  11.6696405  14.4863329  60.0807304   0.3311200
  14.6375618  59.5707169   1.1268904  14.4544725  60.9891014   0.6312522
  71.5694885  16.7735424  54.8507309  72.3581543  17.1567650  55.2346306
  70.8475723  17.2480659  55.2629204  35.1370621  17.2223396  11.7757530
  34.2396164  17.0123730  12.0340967  35.3305054  16.6119576  11.0642452
  83.0862045  31.0878181  54.7998695  83.7105789  31.7790508  54.5794449
  83.4973297  30.2836723  54.4827576  65.9699249  51.8999863  34.4487534
  65.5726089  52.4946594  35.0849419  66.1047821  52.4386597  33.6690865
  55.9763451  42.0512924  31.9145489  55.6135101  42.8497429  31.5310650
  55.5428619  41.9754410  32.7645912  34.0569344   4.4867568  16.0560532
  33.5219078   3.6930478  16.0577183  34.4689445   4.4960637  15.1921120
  83.4527206  40.4568977  21.6123924  83.5273285  41.3631363  21.9113865
  84.2501678  40.0334206  21.9301586  41.3263054  45.3083534  30.3254700
  41.5321465  46.2393723  30.2414265  41.0033150  45.2144127  31.2216206
  44.3470192  42.1501160   6.0914516  45.1763916  42.0189972   5.6319041
  43.9217453  42.8655663   5.6186876  78.8128738  63.4972305  10.6043758
  78.4466324  63.8311234   9.7854662  79.7309875  63.3186378  10.4009056
  42.7068405  57.1961594  68.0383759  43.0493546  56.9707680  68.9033051
  43.4243050  56.9962730  67.4371109  53.8599052  39.9653778  67.6041946
  54.2921486  39.5244865  66.8727493  53.3069077  40.6285400  67.1911011
  17.8030014  22.1788216  88.2536163  18.5668449  21.7234173  88.6077042
  17.8853302  22.0826244  87.3048248   5.1364636  49.1385193  63.2547798
   4.4201593  48.5517349  63.0122490   4.7397075  49.7621956  63.8629303
  15.2468157  64.1519394  21.9884624  14.7705650  63.7495346  22.7147484
  16.1639824  63.9327736  22.1527901  13.0216322  35.7541122  36.1440201
  12.6355677  34.9458733  36.4815636  12.3322439  36.1419449  35.6049843
  65.8990936   2.8704588  40.7586899  66.0820694   3.1210976  41.6641884
  65.8106689   3.7021434  40.2931633  66.0263977  25.9449959  88.1209030
  65.0840225  26.1127701  88.1165924  66.3597183  26.4313965  87.3668823
  81.1081009  29.2304993  67.1326599  81.1083908  29.2638550  68.0892792
  81.8472672  28.6635609  66.9125519   3.9087064  67.0074310  32.5263901
   4.5684204  67.4853439  32.0237846   3.0858326  67.4539185  32.3269844
   6.4446502  51.5011253  79.6922989   6.5779004  51.6378860  80.6302643
   5.6731677  50.9369583  79.6397324  35.6558723  59.8927689  68.1986389
  34.8164711  59.4343147  68.2369080  35.8529892  60.1080246  69.1102524
  65.8387833  23.4559536  85.0054626  65.2304764  23.8280773  84.3669281
  65.2810745  22.9683914  85.6116638  33.8566742  29.1941414  87.0042496
  34.5964661  29.3140335  86.4087982  33.9288521  28.2853374  87.2959671
  79.6836777  39.3336182  45.5273361  79.5593872  39.7003975  44.6519737
  80.6243057  39.4096832  45.6875534  33.6260033  11.9944487  87.1558456
  32.8836632  11.5130043  87.5210495  33.3707390  12.1785002  86.2518539
  86.4317627  47.7325096   9.2828159  85.6048965  47.5617981   8.8318386
  86.5226288  48.6851997   9.2639551  85.0356674  27.5617027  56.8326263
  84.6345291  27.3200207  57.6674347  85.3704300  28.4470577  56.9751701
  53.7148590  38.7346840  56.2968636  53.2695274  38.4607849  57.0986710
  54.4047852  39.3267403  56.5963745  63.7050552  60.2081871  49.7761459
  64.2322311  60.8410416  50.2638016  63.8079987  60.4660454  48.8600960
  80.6904984  48.4976768  22.8451424  80.7525253  49.0262070  23.6407795
  80.5810242  47.6008453  23.1612778  65.0941086   5.8197579  43.6575317
  64.5728683   6.3081293  44.2947388  64.6292267   4.9894838  43.5538063
  39.2866096  56.4376068  73.7734833  39.5167770  56.5364304  72.8496399
  39.9438553  55.8346329  74.1208878  63.7973900  62.2929726  20.8798676
  62.8473396  62.1966782  20.8138123  63.9269905  63.1956558  21.1707268
  65.4739380  55.2112885   3.1556928  66.2045364  55.6988716   2.7752755
  65.3877182  54.4367065   2.5999746  34.6964836  43.9607048  88.1600189
  34.9436340  44.8575287  87.9345093  33.7394562  43.9643402  88.1422272
   7.2555995   9.1725597  80.3882217   6.7665763   9.6829367  81.0336685
   8.1413889   9.1184349  80.7469406  51.2984428   1.3602211  54.6412582
  51.5981827   2.1297624  54.1573219  50.6652145   1.7049050  55.2708969
  56.4320526  51.5984306  21.4184532  55.7859764  51.9428711  20.8018627
  57.1713524  52.2029343  21.3533039  72.6965103  66.9846191  86.0162659
  72.2146454  66.5778809  86.7364044  72.7015915  67.9179840  86.2284775
  79.9469604  29.0351849  44.2129555  80.3174286  28.1662903  44.0580292
  79.0058670  28.9214668  44.0801239  78.8825150  42.2569275  47.0174332
  79.0298996  41.3257408  47.1829681  78.7988052  42.6447372  47.8885384
  66.6274185  17.5214214  62.6940041  67.5678711  17.4932785  62.8700409
  66.5227814  18.2351093  62.0647736   7.4886861   5.7199802  30.5267887
   6.8292365   5.9248266  29.8639202   8.0385513   6.5024309  30.5674229
  85.0573044  15.1351471  41.3845215  85.9139175  14.7893953  41.1337242
  85.1337738  16.0806427  41.2563705  64.2061996  31.7439880  50.5295258
  65.1367035  31.9645214  50.4875908  63.7805443  32.5538940  50.8107758
  77.9929199  22.1434822  27.8316593  78.5262909  21.3493366  27.7988605
  77.8776550  22.3926296  26.9146690  80.0804367  53.4310684   9.7514734
  80.1171875  52.6024666   9.2736664  79.1451797  53.6082077   9.8521709
  70.2043076  44.2293167  51.1567764  69.5434952  43.7136497  50.6945534
  70.1686630  45.0912895  50.7420959  49.6396294  32.3748398  62.4756012
  50.3417549  31.7601738  62.2624474  48.8546181  31.9842758  62.0916176
  56.9180412  25.3642044  32.5670586  56.2961082  25.9438992  33.0068169
  56.7157364  25.4578419  31.6361790  78.1465454  19.3627815  38.9517937
  78.3000565  19.0465927  39.8421249  78.4554977  20.2686844  38.9627419
  54.6293068  69.2370453  32.4240227  53.7253342  69.3359985  32.7228088
  55.0738297  70.0231781  32.7412453  85.9729996  13.7921171  88.6786118
  86.5193787  13.5661869  89.4313812  85.9436264  12.9913435  88.1550369
  30.8340588  12.1967545  68.6079102  31.5306473  12.1407967  69.2620239
  31.2033329  12.7385225  67.9105148  40.7442703  27.6976585  81.8232422
  41.0250053  26.9833488  82.3952408  40.9687462  28.4932556  82.3058090
  20.4864101  34.3729210  74.3972855  19.8569412  34.7763176  74.9950104
  21.1588211  35.0422020  74.2701645  42.2954903  67.3316803  30.9531155
  43.0718613  66.7998123  31.1280365  42.6198921  68.2321472  30.9406204
  75.6121445  69.2467194  61.5804977  75.4022293  69.0813370  60.6613617
  76.5381088  69.4891739  61.5748253  85.8339539  64.3817825   3.1527669
  85.6391678  63.4954300   3.4571707  86.7816925  64.3860626   3.0185392
   0.7169774  65.6402664   1.2747064   0.3837620  66.1657486   2.0020735
   0.3993806  66.0879974   0.4905525  43.4069633  58.1334839  28.6012001
  44.3550949  58.1615372  28.7296257  43.2619705  58.6082535  27.7827854
  24.7231979  71.2353516  70.6276398  23.9394836  70.7003250  70.5020523
  25.0512466  71.3912125  69.7420197  18.1482239  40.8923950  83.5947800
  18.1925163  40.3210983  84.3615112  17.2137356  41.0627289  83.4766693
  55.5985641  43.9353790  88.2714462  54.7541199  43.4850655  88.2523880
  56.2395897  43.2368393  88.4032211  60.1658478  40.3156395  80.3347549
  60.2844849  39.9688187  79.4505234  60.5902519  39.6728897  80.9030762
  79.7474518  66.5223007  69.8486404  80.0280991  66.5205231  68.9335022
  79.9238968  65.6327896  70.1549988  51.6588058   4.5072169  34.2760811
  51.7866554   5.4439998  34.1266708  51.6457481   4.1243591  33.3988800
  43.1623840   5.9266086  10.4256516  43.7280235   6.0367451   9.6613522
  43.0187836   6.8165383  10.7475758  24.2876225  50.3992958  87.0375061
  23.9284534  50.1082687  86.1993332  23.9382687  49.7780495  87.6764374
  49.2676697  21.3265266  76.9425888  49.1636314  20.9453907  76.0707321
  49.5013618  22.2401047  76.7782898  40.8078957  24.2591362  62.3096313
  40.7747383  25.0207005  61.7307091  41.4815826  23.6968060  61.9273262
  84.5010300  45.1885834  86.5333405  83.8811722  44.8153114  85.9067078
  85.3452377  44.8082199  86.2906876  31.1615200  56.4314384   1.1240525
  31.9508991  56.7226334   1.5804746  31.3737030  56.5246315   0.1953299
  31.2089691  43.1307526  77.4153595  31.4606400  43.9903145  77.7530670
  30.3773880  43.2837868  76.9667053   3.4754841  65.9916534  13.4803467
   3.7560134  66.3894958  14.3045149   2.8422763  66.6115799  13.1184511
  75.1982269  18.6761894  64.7925797  75.3862686  18.4853020  63.8736496
  75.2388153  17.8243752  65.2273178  17.8235283  40.7446480  20.9224663
  18.5681477  40.4402466  21.4412270  18.1011562  40.6284142  20.0138168
  52.9535103  40.5933571  33.6224174  53.4304619  40.4315186  32.8084412
  52.0358925  40.4408226  33.3967171  68.9972076   7.4477134  15.0433626
  69.3043747   8.3526268  14.9884872  69.0822144   7.2216759  15.9695978
  60.9020615  45.3588600  13.5228672  61.3328476  46.0891304  13.0786180
  60.7161522  45.6892624  14.4017878  79.0619202  50.9801865  72.9173813
  79.7180786  51.3691063  73.4956818  78.4564285  50.5330124  73.5086975
  78.4071579  67.6260376  55.9020348  78.1296082  67.7535706  56.8091927
  79.2677917  68.0422668  55.8541069   7.6468616  31.6776676  12.2434235
   6.8442774  31.5804291  11.7309427   8.3259897  31.2725487  11.7040768
  65.7339020  42.6108398  27.2802982  65.2588501  42.5636559  28.1099510
  65.0487976  42.6839638  26.6158333  43.7354126  63.3772278  15.2648230
  43.9247818  64.2455902  14.9094105  43.8685760  63.4702644  16.2081375
  44.2608070   8.4508305  46.4023666  43.3976440   8.7889252  46.6408539
  44.8441010   9.2055655  46.4822159  44.9866676  44.0842400  43.0857124
  45.2876511  43.2317390  43.4001656  45.7226677  44.6737061  43.2502289
  17.9573593  31.7391205  10.5465660  18.3639603  30.9101162  10.2942572
  18.1804638  31.8435841  11.4715214  79.3042679  45.4593735  53.9882660
  79.7950821  44.9537582  54.6360893  78.7924957  44.8056335  53.5118790
  83.3207245  45.8723869  32.4532509  82.8125153  45.0617943  32.4832344
  82.6694641  46.5580482  32.3050423  52.1829033  71.7866821  58.9017868
  51.6143074  71.7256165  59.6693840  51.8088570  71.1657715  58.2766495
  32.6892700  40.4743538  56.7926865  33.1360321  39.9851570  56.1018028
  33.1014137  41.3381767  56.7793884  31.0349712  70.7646255  65.7043152
  30.6767826  70.3025208  64.9464340  30.9847698  70.1289062  66.4181595
  74.1542435  53.3241882  28.2111530  74.7128983  54.0941772  28.1050777
  73.4688721  53.4328804  27.5518456  61.2668076  14.5814400  87.0653458
  60.4861565  14.4334631  86.5315628  61.5325432  13.7066221  87.3487320
  10.7345114  57.8083344  51.2240028  11.2666111  58.1498032  50.5053215
  10.7316179  58.5105324  51.8744965  22.0005493  37.1515007  24.8680458
  22.4989262  36.4704971  25.3198013  21.5044575  36.6808052  24.1982918
  33.4811172  68.0713425  30.2890339  32.9615021  68.5460281  30.9378033
  33.6412506  67.2166901  30.6892395  23.9255409  50.7714653  65.6401443
  23.0983391  51.1968994  65.8659210  23.8001328  50.4654350  64.7418976
  25.8432140  68.1041870  74.9507370  25.5170670  68.7276154  75.5997314
  26.6451569  68.5050430  74.6154251  41.8852997  71.3761826  87.9031143
  41.2539978  71.0826492  88.5600204  42.3608208  72.0890503  88.3296432
  56.6120186  25.0433292  46.4384842  56.3621788  25.5559559  45.6697044
  57.4645615  25.3953609  46.6943779  40.7494507  57.2658958  59.7221642
  41.0787888  56.7088318  60.4274635  40.9929237  56.8049622  58.9193611
  80.4866257  13.5601273  20.7184086  80.4475555  14.4988508  20.9014492
  80.3809128  13.4965897  19.7691879  30.6203651  29.3935604   4.5620031
  30.7175865  28.4443932   4.6385636  29.8595390  29.5112896   3.9932184
  18.6124134  43.7236252  20.8308201  19.2125931  43.7634087  20.0862179
  18.6011486  42.7995682  21.0802631  85.6312332  63.8832283  20.7024574
  85.9215698  63.3595047  19.9556961  84.7138367  64.0810242  20.5140610
  19.5467949  12.9462557  19.1163597  19.1467209  13.6288271  18.5775928
  19.8046150  13.3964396  19.9207821  78.2051926   7.6767998  37.3891907
  78.9154129   7.2648053  36.8971748  78.3770828   8.6156759  37.3171005
  62.0117226  48.0756569  83.6851349  62.2109566  47.5506630  84.4603271
  61.9309006  48.9702148  84.0159912   7.5109305  41.3991394  70.7819290
   6.7329240  41.0543251  71.2201538   7.3771896  41.1907005  69.8573227
  24.4035892  62.7717285  36.6593361  23.6879444  62.2173805  36.9704247
  24.2033939  62.9256058  35.7360382  24.9257889  51.4872665  58.6206932
  24.1160851  51.1743813  58.2173195  25.5748768  50.8174210  58.4057007
  30.8727684  54.5730476  22.8966980  30.4445667  55.0204659  23.6265545
  30.8130169  55.1913872  22.1684685  29.5709820  54.9911766  76.4291382
  29.9941101  55.8094635  76.6891479  29.5801163  54.4544601  77.2216568
  73.8498383  56.0234642  15.2916965  74.1975708  55.9465866  16.1801834
  73.0791321  55.4558296  15.2861795  37.0756340  15.3625870  76.1241608
  36.9868469  16.1419029  75.5755081  36.2974663  14.8411312  75.9272537
  84.8265915  58.0767670  66.1820068  84.3796921  58.5209961  66.9025421
  84.5805893  58.5761719  65.4033508  51.6182213  62.5444450  67.0090027
  52.1599617  63.3291855  67.0922623  52.0633049  62.0152588  66.3471146
  14.6283360  48.4082718  33.9074898  15.4688416  47.9581642  33.8227196
  14.6755924  48.8457642  34.7575493   8.8397417  67.4099884  43.3696823
   9.0235529  68.2616196  42.9732437   7.9013743  67.4307327  43.5574799
  19.6802330  29.8700581  75.6524963  20.1810913  29.1333637  76.0027161
  19.4896507  29.6216717  74.7479477  74.7469482  15.8779249  81.4521484
  75.6202087  16.1011677  81.1299667  74.3600311  16.7183952  81.6973801
  31.5681820  42.1887512  88.9347229  31.9268360  43.0654411  88.7968445
  30.6200943  42.3186150  88.9570389  37.8048859  43.0168648   4.5259490
  38.3904495  42.2598953   4.5074620  38.1839218  43.5968094   5.1864233
  64.6727295  60.8631134   1.7628448  64.8385544  61.0294418   0.8349070
  63.9683151  60.2150307   1.7678628  42.6335182  69.5927963   6.7275338
  43.2066193  69.1301498   6.1161809  43.1182938  70.3856125   6.9570131
  32.2611427  66.1776886  13.9871178  32.4988556  65.4418030  13.4230337
  31.8626156  66.8148880  13.3943348  81.9107132  63.2417145  12.1575060
  82.2165756  62.5677071  12.7644558  81.3082428  63.7752037  12.6758204
   7.3981161  32.3944740   1.5949426   7.1804285  31.5985203   2.0800216
   8.3517275  32.4556847   1.6507102  71.1970596  36.8469620  20.3353443
  70.2580719  36.9163666  20.5077209  71.6108856  37.2597694  21.0933495
  40.8387756  65.2541885   1.0253278  40.9830742  64.3476334   0.7540895
  40.9667549  65.2436523   1.9738753  26.6845837   9.0853205  87.8598785
  27.1332321   9.5602264  87.1603012  26.0795727   9.7256489  88.2342682
   0.0971043   8.2480383  17.2477493  -0.1852424   9.1547804  17.3674583
   0.5879691   8.2565298  16.4260368  69.9309692  38.8929634   6.3399391
  69.1870270  38.6351585   5.7955866  69.5339661  39.2637558   7.1280599
  36.8872070  38.1634064  60.3146667  36.8037796  37.7690964  61.1828766
  37.3939400  37.5269890  59.8102608  21.6590290  24.4316959   5.6617804
  20.8644505  24.0213299   5.3204932  22.3744431  23.9279919   5.2735825
   1.5277492  62.5311890  83.9037781   1.3143080  62.9085770  84.7571564
   0.9655711  63.0001526  83.2871323   8.3577366  29.6549053   5.1847930
   8.4478655  28.7022190   5.2071223   7.8541164  29.8663311   5.9708571
  71.6723099  68.0894241  50.5335464  71.3364792  67.4481812  49.9072456
  72.0826874  67.5623856  51.2191582  66.1674500  50.1211395   6.3190932
  65.8826294  50.5602570   7.1205187  66.9325409  49.6108398   6.5845389
  46.4574280  39.4477196  11.2115316  46.8238564  38.5813675  11.3887119
  45.7283440  39.2817612  10.6139297   0.7164554  31.6739712  46.7980652
   1.1644660  32.5177307  46.7381859   1.4078791  31.0256519  46.6644669
  65.6151962  47.8023834  44.6576424  66.5452194  47.5825310  44.7119484
  65.5252075  48.2577171  43.8204994  70.8629837  33.3383408  26.6027584
  70.9354477  33.0936127  27.5253029  71.4889679  32.7698135  26.1542606
  22.9161415  52.2170601  32.0562630  23.3676090  53.0403519  31.8702564
  23.3273087  51.8942871  32.8581314  81.9402924  47.3635979  69.7533951
  81.0358276  47.3239632  70.0642090  82.4100647  47.8331223  70.4426651
  53.4277878  44.8229599  27.8472900  52.7428055  44.4044342  27.3258801
  53.9373970  44.0945549  28.2021885  84.6306076  54.0324936  18.9874439
  84.0575714  54.4313507  18.3326321  84.0881271  53.3632622  19.4046574
  51.2765465   1.7321603  49.3317490  52.1309090   2.1019163  49.1090889
  50.7079201   1.9888486  48.6057930  74.9344635   6.8047428  72.2937469
  74.0964737   6.5814900  71.8885803  74.8649826   6.4699173  73.1877823
  82.8243256  25.5831242  78.5718613  83.5818939  25.8242664  78.0387726
  83.1702499  24.9615631  79.2123489  69.3153687  10.2843599  15.0370512
  69.7548599  10.4666262  15.8676291  69.8185196  10.7749557  14.3871336
   9.6433439  50.2515755  68.6357574  10.0257788  49.3832359  68.7621002
   8.8756742  50.2606812  69.2074509  79.7356339  40.6406441  25.9335880
  80.4068527  40.0701370  25.5591354  79.0516663  40.6766739  25.2649117
  16.7625065  34.2759743  13.9878502  16.0123119  34.5971413  13.4875584
  17.3710632  35.0145493  14.0077019  72.4591599  18.7094288   4.8296566
  71.8170166  18.3317909   5.4307141  72.5994339  19.5981140   5.1564465
  54.6707115  64.8348770  34.2478714  53.8534966  65.0906372  33.8201141
  54.3975029  64.4813080  35.0943794  62.2101059  22.2789154  37.2705841
  62.3421097  22.3066597  36.3229370  61.2614555  22.3409157  37.3821831
  74.9356308  63.6790352  37.9232941  74.1880112  64.1799011  38.2495270
  74.6082840  63.2463036  37.1347389  84.3650360  49.3571701  12.0995865
  85.0479355  50.0278130  12.0887880  83.6748199  49.7090988  11.5374651
  56.2434654  33.9848404  27.7529697  55.8210449  34.8165398  27.5383396
  56.9345398  33.8909912  27.0973454   4.9771051  69.3053894  87.0537338
   4.7448487  68.4350510  87.3774567   5.2937727  69.1531296  86.1633606
  39.8490753  68.9692535  79.0343552  40.5772934  69.5774460  78.9077225
  39.5687675  68.7432632  78.1474533  23.9274921  62.8196449  58.6329308
  23.1372833  63.3592339  58.6074753  24.0880280  62.6738472  59.5652428
  10.7944555  35.0792809  54.0013199  10.2730198  34.7971611  54.7528152
  10.2376575  34.9017181  53.2432442  52.9358063  49.0683594  61.3685379
  52.9365158  48.3032799  61.9437637  52.0573769  49.4370842  61.4614868
  48.6166954  65.3159943  32.0873184  47.7007523  65.4811096  32.3109589
  49.0560913  66.1516800  32.2447548  34.3908691  21.7284470   2.6525867
  33.7667427  21.9385357   1.9579237  34.9373512  21.0354252   2.2820323
  35.3049049  66.9301758  17.3827267  35.6159058  66.3443832  16.6925373
  34.6088295  66.4384842  17.8185616  10.9533482  35.6620522  78.9691696
  10.7395086  36.4416504  78.4565964  11.5557060  35.9764709  79.6433640
  55.6900978  35.8517799  67.1774521  55.0785828  35.6465797  66.4702225
  55.8325005  36.7955246  67.1046600  38.0066109  11.7730436  81.4819717
  37.5999298  12.0432148  82.3052902  38.3700104  12.5803633  81.1180954
  48.4459305  69.8291245  75.4012222  48.4154129  70.5033951  76.0799408
  47.5375633  69.7374649  75.1136551  34.9723778   8.0250883  80.2394409
  34.0352783   8.0455637  80.0453873  35.3957176   8.0913782  79.3835068
   1.7782276   8.1819210  40.7029305   1.7313247   8.0313826  41.6470566
   2.0974045   7.3539801  40.3439445  73.2025681  54.8800468  46.3722191
  72.9681091  55.7857132  46.1696625  72.5582199  54.6060715  47.0248947
  68.9049301  58.9994354  57.7891693  68.4364319  58.1738052  57.6663780
  68.2951431  59.5500984  58.2802467  17.8037434  14.0944633   8.7880821
  17.9100704  14.5393410   7.9472432  18.6964531  13.9848413   9.1156263
  38.7863159  27.4007549  66.9306030  37.9572411  27.3820591  66.4525681
  38.5958176  26.9585342  67.7578812  35.6791267  64.6081619  70.5128098
  34.7326927  64.4766541  70.5694046  35.7774582  65.4664993  70.1007309
  47.4521637  40.0712814  43.7511520  46.7673721  39.4235001  43.9175186
  48.2363091  39.5511627  43.5755882  61.4960136  16.6875610  25.4064026
  61.6112747  15.8541107  25.8628101  60.7640877  16.5342197  24.8089085
  75.6357803  66.5652313   4.3071427  76.2532730  66.3137589   4.9939446
  75.4566422  67.4907303   4.4732685  83.6131897   6.6456223   5.2739291
  84.3993301   7.1357889   5.0331898  83.3962173   6.1409020   4.4900827
  52.0986519  40.1776581   8.8419886  52.7472000  40.8793831   8.8985825
  52.1873512  39.8408775   7.9503927  33.0681076  58.2250099  72.7773590
  33.5510139  57.4020653  72.7012177  33.7280846  58.8665581  73.0401764
   9.7082052  58.8016090  18.7592888  10.0660706  57.9580421  18.4825954
  10.3546047  59.4437943  18.4660320  44.9834709  36.3847504  66.3551483
  44.3147659  36.6864929  65.7403107  44.5148773  35.7999268  66.9506607
  63.4137878  13.3029270  34.9928093  63.7132378  13.7678661  34.2115326
  62.6779671  12.7718801  34.6881943   3.4813743  54.2860184   9.3230143
   3.1431742  53.5328979   9.8074360   4.4177656  54.2974014   9.5211897
  26.9926701  25.9890270  14.1000071  26.4046555  25.4160252  13.6079283
  27.3844032  25.4189339  14.7616482  77.7372513   5.0502720  41.9344025
  78.4509048   4.6803546  41.4146996  77.9756775   4.8564138  42.8409348
  65.2484512  14.3986807   5.8125925  64.4257965  14.8422041   6.0193954
  65.4553680  13.8977022   6.6015391  53.9430733  44.7338524  75.0973816
  53.7550621  44.4269714  74.2104187  53.5894508  44.0508041  75.6671448
  68.3863297  55.6835365  35.6835632  68.7200317  55.9010620  36.5539398
  68.7867279  54.8388176  35.4777527   2.2606094  38.2436867  54.1363525
   2.6561038  39.1147346  54.1033401   2.5900278  37.8617477  54.9498863
  28.1048508  24.1269894  15.6199141  28.2465858  23.2239590  15.3358736
  27.3804722  24.0711498  16.2431240  77.4713516  10.7198734  66.8466263
  76.6871719  10.2066507  66.6519547  78.1725616  10.0713444  66.9094238
  16.8701153  68.2117081  67.8439789  16.9529552  67.4534836  67.2656479
  15.9336481  68.4098434  67.8464966  15.0384521  47.1301193  84.5986557
  14.7724705  46.2111435  84.5675659  14.3041019  47.5779305  85.0186844
  32.5125427  40.8530121  65.9596710  31.6622658  40.5963173  66.3165512
  33.0177155  40.0403099  65.9362946  29.3532410  46.2762756   7.3727832
  29.3437347  46.3657227   6.4198189  29.1331959  45.3579636   7.5293617
  50.0376472  42.5474930  77.6442642  50.4632339  43.3441315  77.9612350
  50.1709366  41.9095535  78.3453293  48.4973869  30.1088257  43.2192497
  47.6257401  30.2863655  43.5727234  48.3601379  29.4041328  42.5861588
  55.9369087  41.7374611  56.6796265  55.9794579  42.4442406  56.0355110
  56.1697350  40.9503326  56.1872330  82.2163925  30.9110374  17.8821335
  81.8198242  31.3089352  18.6571445  82.1226273  29.9687805  18.0221004
  66.5401154  42.6092720  31.3346767  65.8547745  42.4914513  30.6769047
  66.7120819  41.7264328  31.6621742   2.0994105  14.6076126  84.6440735
   2.5800388  14.5753431  83.8169174   1.7360166  13.7277784  84.7444077
  35.3770142  35.3647804  84.3678818  35.2388611  35.9953270  83.6610870
  36.0625038  34.7830811  84.0393066  83.2429657  26.8961525  52.2410431
  83.8920059  26.5111179  51.6522102  82.4320755  26.4277287  52.0428848
  24.6635265  62.7449455  74.3444672  25.0874996  63.4542847  73.8614349
  24.6534290  62.0101242  73.7311478  34.2887955  12.2334986  82.3769150
  33.6675110  11.5480900  82.1310501  34.0326195  12.4815493  83.2652130
  61.7532463  42.5555382  74.9751816  60.9058609  42.2801170  74.6254501
  62.3920593  42.0201530  74.5045319  83.5273666  31.0183353  66.5973816
  83.6881409  30.3488693  65.9324036  83.5193939  30.5370541  67.4247513
  77.8349152  14.3139896  61.6475105  77.3291473  13.5013294  61.6439896
  78.6767120  14.0705290  62.0326500  46.3340454  63.8034248  19.6403561
  45.8325081  64.4172058  20.1769791  47.1680183  63.7089996  20.1005745
  80.7579041  39.2082634  63.5405197  81.4388962  39.8789520  63.5921440
  81.1105957  38.5548286  62.9364777  18.5097408  67.0565491  21.0090866
  18.1694622  67.3092194  21.8673401  17.7768612  67.1978531  20.4097919
  16.9240017  53.6028519   0.2796544  16.0348663  53.5465508   0.6296577
  16.9341831  54.4204597  -0.2179865  38.3754311   2.6261191  87.3924713
  38.3542976   3.5816102  87.3393478  39.3062820   2.4050999  87.3625183
  70.6435471  46.1327019  59.9812469  70.3470383  46.6753998  59.2506371
  69.8935776  46.1000557  60.5751495  76.7710190  41.4707336  35.1229782
  76.3836746  41.4810219  35.9982414  76.1676483  41.9864235  34.5879631
   9.4624081  13.3741598  80.1151352   9.3878050  13.7376499  80.9974823
   8.5655985  13.1402950  79.8758240  26.9203396  43.3761749  81.6273804
  26.9837189  44.2300644  82.0552673  27.4536705  43.4639664  80.8373871
  15.6430693  54.5246964   5.6701670  16.4027290  54.6992340   5.1145706
  15.8152466  55.0169220   6.4728508  84.4495316  24.9546394  32.3577919
  84.8505020  24.4338875  33.0536919  85.1806946  25.4289951  31.9620323
   6.1498394  60.4280663   4.2721791   6.1023998  59.5070686   4.0157661
   6.9832211  60.5047226   4.7367544  74.2658691  44.6099510  33.7431755
  74.5521927  45.3774147  33.2479515  74.1498947  43.9277420  33.0818329
  50.5098991  39.5224648  32.5476723  50.5125999  39.9863853  31.7104130
  49.5938950  39.2807846  32.6846237  70.6744385  40.7252731  59.4028320
  69.7324600  40.6571579  59.5586128  70.8115997  40.2808800  58.5662117
   0.3517964  32.6649933  40.4782486  -0.4503367  32.2964859  40.1080894
   0.5146708  32.1432571  41.2640572  45.8296242  11.4986324  78.7312851
  46.7419662  11.2100296  78.7551575  45.3511467  10.8197975  79.2071762
  20.4540672  59.6784821  19.9954929  20.7675381  59.6209526  19.0929070
  19.5130482  59.5147057  19.9331169  64.9909210  26.6227875  13.5924826
  64.9301453  25.6818447  13.4276695  64.3509598  26.7864380  14.2852268
  29.6429253  52.4469337   7.4607544  29.3025417  51.7111282   6.9518719
  30.1035519  52.9886131   6.8199430  46.7662163  31.9692669  35.9138985
  47.7109184  31.8199577  35.8754120  46.6655693  32.7156334  36.5046921
  82.5076294  20.2289295  59.6774139  83.4561768  20.2408905  59.8052483
  82.2175522  21.0978260  59.9551010   0.3017808  36.7368546  53.1155243
   1.0573964  37.0834999  53.5899849   0.2728120  37.2467232  52.3059387
  11.0369091  31.2277966  15.2786236  10.4475422  31.2581635  16.0322514
  11.9145937  31.2521515  15.6598167  54.9716530   4.2426181  21.6220818
  55.1104469   4.8721433  20.9145050  55.7120590   4.3794851  22.2130966
  50.0037231   8.6424799  43.1239204  50.5768776   8.9747009  42.4330101
  49.2345352   8.3129225  42.6591911  22.0436077  33.7188301  24.9101009
  21.7668610  33.6317215  25.8222713  22.4529095  32.8787727  24.7027187
  32.5999680  55.8564758   9.9227972  32.3762703  54.9951057  10.2752590
  33.2458076  55.6754761   9.2398901  82.7995682  50.1088600  18.6464748
  82.9850845  50.7185745  19.3606625  81.9934540  50.4409523  18.2513485
  10.7460051   2.9027035  88.3442917  10.6728535   3.2838454  87.4692993
  11.5543766   2.3908885  88.3157806  22.2993183   0.8214810   6.4667478
  22.2650452   0.3398201   5.6402731  21.9692841   1.6933746   6.2496991
  57.2718353  21.1772842  16.7053394  57.9351196  21.5955334  16.1563816
  57.4283409  20.2391644  16.5973186  36.3519859  40.3416023  34.7670135
  36.0202637  39.4792633  35.0171432  37.0720024  40.1556740  34.1643219
  29.2090969   0.8086324  51.0088348  30.1333637   0.8621925  50.7657433
  29.1990070   0.9779391  51.9508858  80.3044739  13.3605328  84.9606171
  79.4371872  13.7523985  84.8582535  80.4026642  13.2395058  85.9050446
  57.8926964  25.4824524  14.8138800  56.9818077  25.3313446  15.0662260
  58.3553848  25.5967960  15.6439877  44.9126015  66.8564301  55.4108658
  45.6673126  66.3514557  55.1081276  44.7103157  67.4443970  54.6831245
  84.2211761  15.8647757  64.6161041  84.5095520  15.7555075  63.7099419
  83.3285751  15.5192518  64.6267166   0.3582289  35.3858871  10.2111397
   1.2865434  35.5720978  10.0704603   0.2940759  35.1788864  11.1434841
  84.4074478  45.1826668  69.0324020  83.7337875  45.3680992  68.3781662
  83.9266357  45.1077805  69.8566818  59.4062576  18.4384575  52.0110054
  59.4851074  18.9211216  52.8338394  60.1741409  17.8672390  51.9938660
  45.0031548  70.6824265  84.2417679  45.0906830  71.2815704  84.9831161
  45.2837868  71.1959991  83.4843292   4.3564372  11.7496243   1.9806975
   4.4868956  12.3359632   1.2354332   4.8705840  10.9713049   1.7659771
  58.6909294  21.1663113  11.3218517  59.5490189  21.5870552  11.3756361
  58.8081856  20.3257084  11.7644253   3.3766892  63.4808846  17.6338348
   4.2940764  63.3009529  17.8394012   3.2296870  64.3710022  17.9537048
  56.3496323  68.5727463  56.3382111  56.4311829  67.6744385  56.0178757
  55.4170685  68.7724380  56.2565079  66.6297836  23.8382854  79.9896164
  66.8976746  24.6165886  79.5010376  67.3591232  23.2272072  79.8853226
  63.3905220  43.7486610  14.5319271  62.5030060  44.0079651  14.2843151
  63.8744087  44.5727463  14.5864067  31.4768372  63.0148849   6.2918358
  30.5231800  62.9556198   6.3489046  31.6430435  63.9021034   5.9733248
  35.7286339  10.7632809  15.1394863  34.9907188  10.3484707  15.5863047
  36.4145126  10.0955992  15.1392603  54.3589935   5.7359452  59.2299232
  54.6356964   6.3700881  58.5684624  54.9590454   4.9982743  59.1203308
  66.9017868  30.9769096  15.3304987  67.6775208  30.4791546  15.0722170
  66.6237183  31.4200706  14.5289259  79.3324966  31.5687332  34.6627922
  79.5528870  30.7171307  34.2853889  78.4301605  31.4698315  34.9664993
   1.3828750  15.9170761  26.4794464   0.4819198  16.1630459  26.6892319
   1.6750026  15.4093571  27.2364902  32.1412125  66.8004227  73.7352905
  33.0772133  66.6001053  73.7376938  31.8114777  66.4139481  74.5465469
  46.0686607  48.2691574  19.5374889  45.7345200  48.8221130  18.8312168
  46.7106514  48.8179092  19.9879951  27.5804691   0.8130806  62.5442047
  27.6334782  -0.1424668  62.5629425  28.4895744   1.1018764  62.4644775
   3.7972929  24.5059528  69.3020248   2.9781046  24.9959888  69.2311172
   4.4237270  25.1366711  69.6569977  77.0177689  56.6945877  15.8844080
  76.4912872  56.5548172  16.6714973  76.3790665  56.9054298  15.2033482
  44.6990433  29.3210506  81.0953217  45.1730156  29.3421555  80.2639694
  44.1426125  28.5446014  81.0341415  67.8137054  55.3093567  12.9030151
  67.9884872  55.6206894  13.7911329  67.3373718  54.4883194  13.0264368
  36.9218407   0.9029812   4.9251599  36.9829407   1.3911214   5.7462673
  37.5342140   0.1752442   5.0330148  30.3466396  24.3381271  69.4064941
  31.0085773  24.7285976  68.8358765  29.7130909  23.9464436  68.8053055
   5.6364799  13.1734171   3.7885630   5.3297706  12.7649679   2.9790382
   5.8918509  14.0584917   3.5284448  81.8593750  36.5816269   8.5558701
  82.0444031  36.5511780   7.6172175  81.6321411  37.4958305   8.7256660
  17.1980381  56.9088020  72.8792038  18.0295200  57.3258209  72.6534500
  16.5312481  57.5298233  72.5860291  60.2893181  59.4821968  45.1905823
  59.5938148  59.8407745  44.6392822  60.4926796  60.1854401  45.8072853
  62.9692078  18.9917622  13.7637863  63.6384163  18.3259544  13.6053839
  63.4642944  19.7852230  13.9675999  47.5314445   0.5680695  34.7707443
  47.8940277  -0.0935505  34.1816559  47.1982002   1.2506092  34.1882362
  33.2339592  27.9623814  80.7625809  32.7784805  28.4530811  81.4466782
  33.2162437  28.5412292  80.0004501  35.2378769  25.6407032  16.9330387
  36.0401154  25.3633327  17.3754292  35.2540016  25.1778297  16.0953503
  19.1466694  68.8192139  10.2074738  20.0654411  68.9971161  10.0063858
  19.1463299  67.9284897  10.5579796  63.9107590   3.0865269  59.3594780
  64.2352295   3.5355790  60.1400566  64.2711258   3.5875039  58.6277733
  18.9381409  65.1905441  74.6145554  19.2177238  64.4782410  74.0394897
  18.5947418  65.8575592  74.0200806  54.8417015  10.5669422  71.3152542
  54.6380730  10.1103439  70.4989929  55.7185669  10.2617702  71.5480804
  79.7271957   4.9110756  80.9004211  78.9777985   4.3293195  80.7731400
  79.8821106   5.2944779  80.0371552  43.5461159  70.5990601  73.7548141
  42.9352913  71.0144043  74.3635941  43.8564644  71.3153687  73.2009048
  57.8537636  56.5877380   2.2156649  58.2233391  57.3088913   2.7251601
  57.1507454  56.2416954   2.7654393  26.4705753  17.8021717   1.0035909
  26.2783146  17.7343788   0.0683518  25.6909142  18.2110138   1.3793688
  12.5519295  46.9391060  78.2200928  11.8514414  47.5740395  78.0704041
  12.7271042  46.5674591  77.3555603  74.4316406   8.4720297  76.5232010
  73.8261795   7.7739692  76.2734833  74.7350235   8.2248240  77.3967438
  78.0307617  23.9200497  33.0336723  77.2302017  23.4079475  33.1480827
  78.5771561  23.3849621  32.4580307  50.1501808  67.2389984  53.5471535
  49.4962349  67.7787781  53.1030502  50.8282127  67.0929565  52.8874741
  51.4613991   8.7139225  58.0697479  52.3822975   8.9052124  58.2474556
  51.2215233   8.0601397  58.7264519  68.2175674  25.4688129  42.6224785
  67.5429230  25.7887745  43.2214088  67.9186020  24.5953827  42.3695488
  14.2979336  42.6910210  31.8237343  14.6766672  42.1153412  31.1593666
  14.3032684  42.1677818  32.6252480  49.4422264   3.1783943  71.3005676
  48.8815498   3.6054130  71.9482727  48.8646317   3.0135877  70.5552750
   0.6630878  51.1332970  72.9281311   0.0965017  51.7979927  73.3197861
   1.3498464  50.9900703  73.5793457  52.0124359  31.7147369  30.7809925
  51.3371620  31.0493698  30.9133739  52.8314629  31.2207146  30.7440090
  10.7506971  41.0419044  47.7151299  10.4228096  40.5569725  46.9577904
  11.2091751  41.7929878  47.3384285  71.0178528  12.0665159   9.5090866
  71.7560806  12.1011915  10.1174002  71.1128845  11.2239552   9.0649109
  22.4670105   8.0186186  84.0762634  21.9011383   8.3928194  83.4009857
  21.9067612   7.9544969  84.8497238  83.5561905   8.1376247  78.6879730
  84.3685913   8.1671228  79.1933136  83.3391190   7.2067246  78.6376038
  43.7356224  14.5577917  87.1648941  43.1582489  15.2461033  87.4951859
  44.4961205  15.0271721  86.8220291  14.8657084  45.0735588  34.3378487
  14.0275965  44.7575989  34.0002594  14.9556990  44.6489258  35.1909752
  82.7624512  13.7101994  27.6010647  83.4465866  13.0563879  27.4571209
  82.9563675  14.0735245  28.4651394  56.5168686  43.0777168  23.7365265
  56.0116882  42.7847824  22.9780998  55.8992157  43.0354309  24.4665585
  51.9531746   0.6945130  68.0458679  51.6752014   0.1941283  67.2786789
  51.6565704   0.1734475  68.7920227   4.1767049  55.5172005  52.8982773
   3.3652477  55.9980087  53.0613556   4.1070724  55.2318497  51.9872589
  50.3861885   5.8241272  71.9045563  49.5681763   5.5277743  72.3036270
  50.2081871   5.8225555  70.9640503  36.9912529   5.0280704   0.8063928
  37.1208763   4.1204634   1.0814908  36.5397682   4.9611654  -0.0349847
  82.9979019  21.7385178  13.2067957  83.6943665  21.3834667  13.7591610
  82.5671844  20.9669342  12.8388615   8.6685028  60.7735939  76.3661118
   8.5635357  60.0782127  75.7167587   9.2693386  61.3956490  75.9558945
  22.4090977  45.3150597  72.2384949  22.7653084  45.2755470  71.3509216
  21.6408424  45.8810616  72.1632767  74.5524063  39.5288353  20.1089306
  74.9316330  38.7514076  19.6990204  74.2621536  39.2280998  20.9700584
  75.5443268  62.6476364  33.1109009  76.0912094  62.9019699  32.3676224
  75.3008423  63.4762115  33.5237160   8.6551628  53.1726189  30.8825169
   8.6105185  52.2424736  30.6609936   9.1547947  53.2007828  31.6984863
  53.1578026  49.0382462  17.2885628  53.3428345  49.6085739  16.5424252
  52.8727226  48.2136574  16.8948364  51.3216743  43.5717964  43.1386452
  51.9698830  43.9983025  42.5781517  50.8891640  44.2928162  43.5961342
  79.7791901  26.6371059  56.1306419  79.0388794  26.0792065  55.8920631
  79.3866806  27.4908409  56.3131409  76.6100845  67.4851608  25.5378304
  76.5706787  66.8874359  24.7912331  77.3071747  67.1321640  26.0907192
  38.4986572  37.7906075  24.8653355  37.8138084  38.4325752  25.0526638
  39.2568665  38.3165741  24.6109543   8.7673340  46.9465714  31.4878025
   7.8961515  46.7275581  31.1571884   9.3627501  46.6853981  30.7853069
   7.6260624  17.8745289   3.3531015   7.3030267  18.6445293   2.8851516
   8.5455122  18.0713863   3.5322390   7.1832657  41.9102859  33.2301178
   7.6639118  42.1312141  34.0278625   6.5881605  42.6480865  33.0969582
  69.1944199  49.7026062  29.5865555  69.5107651  49.1167107  30.2742214
  69.6558151  50.5265579  29.7429199  61.4864922  -0.0102874  49.4983978
  61.6039162   0.7749183  48.9637070  61.5741425   0.2986630  50.4001198
  64.2425537  16.3150234  35.9812737  63.7087479  15.5205679  35.9701042
  63.7094955  16.9681416  35.5279312  17.2000675  46.2875252  34.7912254
  16.5184593  45.7029343  34.4597168  16.9446049  46.4641113  35.6966438
   1.9839259  17.7632198   5.0276661   1.7755183  16.8502560   4.8294330
   1.8243175  17.8466454   5.9677706  77.6111221  66.7834854  79.6553192
  78.0000076  67.5600281  80.0577698  78.2299118  66.5340881  78.9689255
  31.8493843  63.0185738  41.5002251  32.1079559  63.9064636  41.2531967
  31.6318035  62.5929947  40.6709023  54.2878685  12.4769726  44.5750618
  54.4081802  13.3665648  44.9072990  53.5269699  12.5378656  43.9975166
  27.9301338   1.8313568  48.8364601  27.9648170   2.7754095  48.9907112
  28.1123505   1.4420711  49.6917305  58.5960426   2.3418317  82.3240128
  58.2998962   1.9664770  83.1532593  57.8497200   2.8541229  82.0129013
  45.9458771  59.1989174  67.8122025  46.5574188  59.1288795  68.5452423
  45.9361115  58.3240204  67.4240036  10.3525295  37.6894188  83.0252075
  10.5592127  38.4944000  83.5000992   9.6722021  37.9464417  82.4028549
  46.2776489   9.2984209  71.5571289  46.9833679   9.7909641  71.9761658
  46.3597755   9.5069904  70.6265488  42.1848030  40.1138687  37.2173386
  42.8455276  39.6607819  36.6935196  42.0386658  40.9398537  36.7562256
  51.6817284  19.2008629  36.3517418  52.4940796  18.9806919  35.8958435
  51.8709564  19.0299225  37.2743492   0.6626991   1.0508190  26.9057236
   1.4536579   0.8018470  26.4275723   0.6901429   2.0072484  26.9325848
  72.2877350  34.6144066  53.8370056  72.2481689  34.6563187  54.7924690
  71.6633606  33.9282341  53.6012993  49.4744263  35.6279984  64.7360077
  49.0759621  35.5072746  65.5979156  48.7385597  35.8298454  64.1580963
  -0.0307184  56.6197777   6.0674500   0.7020521  56.2568130   6.5649786
   0.3784156  57.2102165   5.4348183  15.1444302  37.5682182  57.8169556
  14.5898333  38.2186394  57.3861351  14.5764389  36.8060265  57.9295883
  12.0717859  47.4862366  54.0675545  12.4793720  47.9460907  54.8014755
  11.5783405  48.1634865  53.6048698  49.7118988  42.5795441  63.4900475
  48.7598000  42.5086823  63.4213295  49.9631577  41.8679466  64.0788803
  69.6284790  22.3061886  53.1829643  70.1576767  22.9178333  52.6710281
  68.7948074  22.7590351  53.3100624  22.5001278  12.2073345  51.2843666
  21.5791702  12.1366091  51.5354996  22.8024635  11.3010807  51.2249603
  58.8840561  46.7640266   8.4877300  58.9671745  47.4294319   7.8046803
  58.5264549  47.2360916   9.2397308  27.2256374  47.7664795  50.0643730
  27.5207806  47.6496239  49.1613388  27.7928982  48.4532547  50.4147835
  50.7797623  52.6559868  38.4482765  49.9697151  52.2947273  38.8082085
  51.3811073  52.6836891  39.1924858  53.2099800  55.0181999  28.8803291
  53.4157066  55.8589020  28.4715137  52.3944206  54.7418175  28.4623508
  72.3098526  41.5223045  80.5990677  72.0317078  42.4355354  80.6688690
  71.4928436  41.0266342  80.5439224   3.5874701  35.2643661  34.0823860
   3.8718588  34.3843956  33.8353767   3.8451889  35.3505554  35.0001984
  54.8706436  60.5293007  84.7047043  54.5308762  60.0993767  85.4895325
  54.1519051  60.4800491  84.0744476  85.9293365   4.4441605   5.7831473
  86.3914337   4.8045883   5.0263162  85.2054825   5.0521212   5.9336400
  25.8471756  61.9949684  50.9702911  26.4164848  61.9664459  50.2013283
  26.3239174  61.5040741  51.6395988  82.4781647  31.6180305  57.3811607
  82.6837463  31.4277782  56.4658585  81.5719452  31.3289928  57.4881744
   1.7586374  40.4290848  86.5881271   1.2404127  41.2333603  86.6166611
   1.8522025  40.1717834  87.5053406  27.1033249   5.0893960  58.9422493
  27.3581028   5.2972374  59.8412056  26.1484890   5.0290041  58.9717979
  59.0512123  41.6965027  71.2803574  58.9147148  42.0954437  72.1396866
  59.9081993  41.2751007  71.3453293  70.9369354  69.3270340  26.5116806
  70.6510239  68.7022095  25.8452892  70.2136993  69.9501266  26.5817909
  42.6400261  53.1954727  87.7904816  41.8111839  52.7288933  87.6829758
  42.4097099  54.1191101  87.6900787  81.0697556  38.3858070  17.7377357
  80.9696655  37.4400177  17.6295910  81.5314331  38.4841347  18.5704517
  17.5165062  55.1561775  46.7697525  17.4273109  54.4408493  47.3995018
  17.4347439  55.9509506  47.2968979  62.4060707   8.5592909  26.2440166
  62.2107964   8.0411015  27.0247707  63.1070213   8.0769491  25.8055573
  56.2046928  56.0618248  20.3396511  56.1827011  57.0004349  20.5260792
  55.4268837  55.9057236  19.8040466  80.6537476  23.7286224  26.9328995
  79.8749237  23.5675640  26.4002457  81.3858566  23.4843311  26.3667126
  34.5919647  67.6515350  61.8225288  34.0131073  67.9472427  61.1198845
  34.0021515  67.2789001  62.4778900  68.9535675  46.7530556  84.7122421
  69.7988739  46.8624115  84.2766571  69.1452789  46.8772278  85.6417923
   0.0839792  32.1148949  83.3626099   0.9350533  31.7117958  83.5341187
  -0.4778431  31.7984447  84.0700302  45.4190788  70.8927460  31.2447014
  46.2414780  71.3725815  31.3429337  44.8739204  71.4607697  30.7002945
  47.2875290  53.6161880  87.2384567  47.2505836  53.4084206  86.3048096
  48.1320648  53.2705727  87.5274963  81.7493515   2.1162772  51.9251175
  81.0976028   2.2779207  51.2429733  82.3501511   1.4804690  51.5365105
   6.3654613  63.7950096  29.8450623   5.4805822  63.9865074  30.1557865
   6.7064357  64.6415939  29.5565090  30.6982460  50.7190666  63.5994339
  30.3796005  51.3354568  62.9400711  30.4673653  51.1227417  64.4360809
  48.0126419   7.5783286  26.4754963  48.4426041   6.8885417  25.9699688
  48.2568359   7.3976598  27.3832188  36.6682243  55.0125542  62.2512321
  37.0376396  55.4632301  61.4918480  35.7283440  55.1860924  62.1989059
  58.7172318  14.6536798  67.2727814  59.1573830  15.4793854  67.4745407
  57.8172302  14.7826443  67.5721130  61.0301285   2.0301204  57.7697334
  61.6944695   1.4178586  58.0859947  61.4785576   2.5443602  57.0983925
  49.0798187  11.4978781  59.6287422  49.6345520  11.4315748  58.8514977
  48.4471664  10.7859812  59.5329056  70.9798813  32.9638481  29.5405502
  71.5936661  32.2560005  29.7366581  71.4091110  33.7520866  29.8732262
  22.5345001  15.2725811   9.4700842  23.1847572  15.0977068   8.7897768
  22.9374523  15.9449816  10.0193911  23.4283504  59.1268921  40.7449646
  22.5575523  58.7402840  40.6529045  24.0164700  58.3760033  40.8256493
  34.5232925  43.4084740  14.7485943  34.1857567  43.2277412  15.6258841
  35.4706001  43.4790726  14.8662872  73.4316025  61.8437767  59.6149826
  73.8463058  62.6243324  59.9823799  72.6769943  61.6841660  60.1818352
  44.7110214   2.4788215  46.7397995  44.8123436   3.2675486  46.2070007
  44.3397484   1.8311480  46.1407127  13.0050240  27.7883129  76.6180573
  13.0474176  26.8755264  76.9031067  12.4359407  28.2134132  77.2596664
  26.2662907  33.9971848   7.5970502  27.1790695  33.9448509   7.8804774
  26.0206738  33.0907669   7.4118152  62.5212555  59.6507339  68.7822342
  62.0850487  60.4997215  68.7103348  61.8134537  59.0106926  68.7074432
  46.6383591   2.4287276  74.0074921  45.7155571   2.6519272  73.8856125
  46.7302742   1.5636055  73.6083069  43.9909401  34.6732826  55.9263420
  44.6760635  35.2978592  55.6881332  43.2920609  34.8307343  55.2915115
  84.5585022  70.8891220  67.2678299  85.4617767  71.1135101  67.4913864
  84.0847626  70.9478455  68.0975037  71.7137375  17.3592548   0.0298092
  72.5728912  17.0341244  -0.2392014  71.9052582  18.0189495   0.6964080
  31.9858074  32.3641052  14.5508566  32.1129684  33.1837158  14.0730476
  31.0692730  32.1359825  14.3954411  75.6946259  25.0538158  62.0084152
  75.3568115  24.5737705  61.2523270  74.9641037  25.6057396  62.2876053
  75.4974518  40.5981369  16.3212376  75.4341812  39.8248749  15.7606182
  75.0701141  41.2928276  15.8202200  16.3816452  41.0934410  67.6765518
  16.1477261  40.2208595  67.9929581  15.6065769  41.6272888  67.8512115
  57.8487015  46.9007988  57.9869347  58.3448181  47.1446800  57.2055092
  57.4595299  46.0538940  57.7689247  43.3008614  17.7117233  76.2545700
  44.0112076  17.1965599  75.8721390  42.5086861  17.3756428  75.8353500
  51.1323853  34.2577820  23.1423550  50.2684631  34.1310158  22.7501774
  51.6704369  34.6031990  22.4300213   5.6208138  46.7981148  79.7652130
   5.0604491  47.4683571  80.1563644   5.2466826  45.9691238  80.0635986
  50.5745049  26.6942501  18.8068523  51.4553871  26.4364223  19.0785217
  50.2480354  27.2298813  19.5298672  62.4137878  43.3691940  63.6663551
  62.3326263  43.6679573  62.7606049  63.0230446  43.9879990  64.0689926
  73.2852097  29.8946438  62.3665886  73.3772430  29.2031040  63.0219765
  74.0964432  30.3981857  62.4341736  41.1430779  36.2988701  61.2305527
  41.9122581  36.1783943  61.7873955  40.3991127  36.1539803  61.8151512
  60.3537712  17.9075966  17.1395035  60.2643394  17.9076881  18.0925159
  59.4773521  17.6980152  16.8167152  55.6246414  22.2822132  31.1157856
  56.5090294  22.1299362  30.7827606  55.1206627  22.5450802  30.3456306
  34.1120491  49.3963814  45.8841324  35.0052757  49.0762520  46.0102043
  33.7189865  49.3592110  46.7561111  22.7705441  37.9630623  67.8407745
  22.2285004  38.2528801  67.1070023  22.8034058  37.0104904  67.7527008
  77.0689163  42.3276596  74.0527039  76.8997269  43.0920639  73.5019836
  76.3564072  41.7222710  73.8476105  46.2038536  54.4424515  37.4643898
  45.3455009  54.7563286  37.1798820  46.2518234  53.5448952  37.1352692
  39.5954399  12.2671423  75.5806656  39.6189079  12.4287624  74.6374969
  39.8012085  11.3365421  75.6693954  78.9536438  68.3160477   7.8834829
  79.5439987  68.1328583   7.1526265  78.4064102  69.0379333   7.5741987
  85.2790146  57.6305428  82.4772949  84.9898300  58.5233040  82.6659241
  85.7345734  57.6985970  81.6382065  50.2802277   7.6001310  64.0727692
  50.0613861   6.7348304  63.7269440  51.1815605   7.5131245  64.3830338
  59.0592728  25.7114105  71.6128006  58.5134087  25.3863316  72.3287506
  58.9183502  26.6581783  71.6150208  14.2546139  50.4427376  36.2538376
  13.3647614  50.7486458  36.0782928  14.2453604  50.1972733  37.1789818
  83.4932251  52.1871567  59.3640900  82.9600677  52.8282585  59.8341599
  84.2197800  52.6967697  59.0054054  40.6890182  62.8594208   5.2282109
  40.6002655  63.3303719   6.0568008  41.6330376  62.8204384   5.0747967
  56.5596695  63.7839317  48.9418182  57.3752289  63.2868271  49.0049438
  56.0231514  63.2865257  48.3245964   3.1213698  57.8597183   3.3953943
   3.4321094  58.2893333   2.5984604   3.7630255  57.1689796   3.5609004
  86.8054581  52.8855057  40.8938332  86.4793396  53.7263107  40.5730133
  86.7569275  52.9577332  41.8470726  48.4114380  15.3721466  20.1197491
  48.4693146  16.2941570  20.3703060  49.3042870  15.1357470  19.8684158
  47.2445450  69.7524567  28.8941078  47.5104065  70.3296356  28.1782799
  46.4238396  70.1282730  29.2125969  25.2639160   0.8106688  25.6663113
  24.8600750   0.9251082  26.5265713  25.0007076  -0.0681610  25.3931580
   8.8563185   1.2420496  13.3504505   8.4082470   0.8240762  12.6150846
   8.5235510   0.7866443  14.1238222  42.8222504  48.4069977  53.9483986
  43.4605713  48.4735107  53.2382164  42.5148201  47.5013237  53.9100761
   4.9032712  27.5873890  86.1286163   4.3480706  27.6975746  86.9005280
   5.6249595  27.0352459  86.4295044   1.7946726  63.2964897  68.2954102
   1.1998441  62.9245262  68.9466095   1.2177839  63.6498413  67.6182327
  59.9234467  30.1765919  63.7535400  60.1351128  29.4116573  63.2184677
  59.1763992  29.8987999  64.2836151  66.1735458  63.1111908   7.4110503
  65.8624649  62.7877235   8.2565260  66.9029999  63.6909790   7.6300969
  20.3134785  37.3014717  56.4891548  21.1966267  37.5040169  56.1805191
  19.9128628  36.8167305  55.7675171  28.1490936  35.7658958  79.5684052
  27.3787785  36.0153580  80.0789108  27.9452801  36.0445251  78.6756287
  83.9892731   2.0109093  15.8205347  84.3099976   1.1598257  16.1188984
  83.3019562   2.2405126  16.4459248  76.0686111  71.1550293  84.5594864
  76.5809402  70.5249634  85.0662079  76.5148697  71.2017670  83.7139664
  47.1505623  36.8868256   7.4139276  46.8776436  36.1635437   6.8494740
  47.3425293  37.6034164   6.8090463  68.0682602  47.9948845  65.3741074
  67.4768829  47.2722664  65.5846329  68.9070435  47.7371063  65.7564926
  44.2810516  10.9865503  87.9778061  44.8712311  11.6217299  87.5722656
  44.4505920  10.1691074  87.5095367  70.9031830  10.9833765  12.8828335
  71.7175980  11.0632935  12.3862705  70.4111404  11.7749834  12.6649265
  74.1754990  44.0854683  72.3434677  74.7720413  43.7681007  71.6654968
  73.5332794  44.6136284  71.8692932   2.3176711  29.6479893  65.5476074
   1.4714521  30.0920010  65.6023636   2.5085571  29.3844280  66.4477844
   2.6778255  23.2120819  24.6041565   2.3358741  23.4742336  25.4588947
   3.4461243  23.7677059  24.4728909  51.5629768  14.4319630  70.9143829
  52.4142342  14.4648838  71.3508606  51.6963310  14.9055901  70.0933304
  82.8660202  26.6836567  43.0817413  82.3264847  27.1848869  42.4702682
  83.4915848  26.2202435  42.5248337  48.4698715  28.0134144  41.4519501
  48.3534584  27.3979759  42.1757698  48.5082970  27.4606743  40.6714172
  73.1396179  14.2552776  75.3905640  72.5493469  13.7547541  74.8272858
  73.2319183  13.7185822  76.1777573  19.1980801  38.3475952  40.4031830
  20.0122375  37.9452858  40.7057190  18.5244007  37.9882240  40.9804535
  20.6614056  51.9935799  80.2895508  19.8449020  52.4919701  80.3236465
  20.3897285  51.1039314  80.0638351  60.8022194  26.2242775  30.9174576
  60.4779587  25.9824009  31.7849712  61.3012047  27.0279198  31.0637646
  56.2733459  62.6493454  25.7140617  55.6674728  61.9208183  25.5784187
  55.9830360  63.0531960  26.5318985  21.5004463  67.5815582  35.0719223
  22.2773800  67.4415436  35.6132164  20.8364258  67.8994370  35.6836929
  13.6095381  38.3003769   6.3484354  14.4739075  38.1102486   6.7130566
  13.7222910  39.1303902   5.8851891  72.9940948  21.1148529  53.2399788
  72.4589615  20.6721706  53.8986893  73.1065521  20.4647999  52.5464287
  30.2654457  66.0659256  18.9001427  30.3936443  66.6365967  18.1424255
  29.6820107  66.5599976  19.4761028   2.4011068  58.4947662  30.9282150
   3.2790773  58.7357101  30.6326714   1.9903489  58.0978584  30.1601181
  55.7169151  48.3797340  12.7540226  56.2749939  47.9071045  13.3715992
  54.9244423  47.8465958  12.6909103  14.4264050  66.4711914   0.6334730
  13.8443594  66.6239166   1.3778709  14.4072380  65.5228348   0.5050771
  49.3264809   3.9406712  35.4688148  50.0398521   4.2471499  34.9089890
  48.8307571   4.7318602  35.6797867  31.2470398  18.7653618   4.5005951
  31.6258888  17.9079094   4.3070016  31.0604305  18.7384071   5.4390416
  53.9984245  17.5492401  55.7340584  54.3662033  16.7580910  55.3402901
  53.1199112  17.6167831  55.3600464  76.1347198  49.2551193   4.8245511
  75.4430008  48.6415901   5.0722384  75.8667221  50.0878258   5.2131553
  16.1949768  62.4729309   9.5223751  16.8046341  62.7636566  10.2006302
  15.5517912  61.9406891   9.9906330  81.5856018  61.5733185   2.6407275
  81.8514862  60.8349876   3.1888168  82.3680573  62.1214523   2.5812340
  39.6322784  65.4646606  69.9387512  40.0387535  65.1008835  69.1521912
  40.3299675  65.4575729  70.5940475  44.5247650  38.4736176   9.5664444
  43.7864456  37.9150009   9.8094797  44.3222771  38.7648582   8.6773939
  55.3781509  56.2103081   3.3444312  54.6166534  55.6524124   3.5028923
  55.5892181  56.5770264   4.2030358  41.6967735  23.5287914   3.7457585
  42.2115631  22.8316975   3.3392050  40.7982559  23.1989059   3.7375844
   9.3348331  38.8990669  14.4209995   9.2699881  38.2108040  15.0830545
  10.0469332  38.6141853  13.8482981   9.7521009  23.6189938   4.0031905
   9.7912760  24.5184002   3.6779749   9.8354826  23.7038879   4.9529653
  80.9334793  66.7047882  44.6292000  81.6000671  66.8100586  43.9503746
  80.3943253  65.9749985  44.3243141  22.3072453  14.8667727  80.4571228
  22.4630833  13.9226847  80.4825134  21.5553493  14.9698067  79.8737946
  38.8358002  67.4687347  65.2083588  39.1210861  67.1868591  66.0774841
  38.5619965  66.6616135  64.7726822  43.7084007  49.5735779  26.2260399
  42.8481750  49.7634468  26.6004581  43.7951660  48.6228294  26.2952061
  60.6103554   3.3331995  37.6394806  61.2021675   3.1585240  38.3712463
  60.3227310   2.4666924  37.3519592  16.9295597  61.9480057  56.7372246
  16.0858345  62.3066978  56.4620895  17.0654678  61.1912231  56.1670990
  80.3421707  46.4077492  63.8136978  80.7883835  46.9436646  64.4693832
  81.0012360  45.7718697  63.5352631   5.8816037  37.0821457  15.2143621
   4.9374194  37.0137405  15.0726995   6.0538993  38.0235863  15.2297525
  14.5331278  50.1489563  52.7470322  14.5923500  49.2587395  52.4002762
  14.9180040  50.0914497  53.6215591  15.6069260  43.9748650  50.8270645
  16.1509075  44.3980637  51.4913101  16.1316547  44.0136986  50.0274506
  23.4894962  34.7935295  62.8687630  24.1480637  34.8353233  63.5621414
  23.5726833  33.9090309  62.5124245  86.8794861  50.0266991  45.7454948
  86.9131241  49.9637794  46.7000313  86.4508667  49.2173805  45.4670677
  76.5040894  13.1468925  11.9012871  75.7261353  13.5761223  12.2573566
  76.1905441  12.2939577  11.6005754  45.4304695  11.3783751  11.1180925
  45.2717209  11.5054703  10.1827440  44.6405678  11.7129850  11.5427322
  65.2438126  18.1601105  76.1330414  66.1454620  18.0732994  76.4424210
  64.7476273  17.5363235  76.6630630  67.1603012   6.1315451  66.9646912
  67.9289856   5.9405327  66.4272308  66.6394806   6.7330794  66.4325867
  47.0663185  60.5780716  81.5320511  46.9046326  61.5045929  81.3541489
  47.6949081  60.5789375  82.2539291  71.6437378  27.8495750  79.5944901
  72.5618439  28.1184788  79.5628052  71.6237717  27.1409779  80.2377090
  46.6854057   3.5956686  61.4254951  46.6514702   2.6735353  61.6799545
  46.7653542   4.0697489  62.2531929  35.5047073  48.1856956  74.0274658
  34.9344673  47.5091896  74.3927078  34.9196815  48.9224930  73.8510971
  84.3837891  26.3281479   7.2645302  84.0733871  25.9890614   8.1041145
  85.3284225  26.4292183   7.3815255  79.4364090  54.9572182  48.5697823
  79.2367554  54.1637421  49.0665359  80.3905029  55.0268593  48.6029663
   5.7670274  42.9417534  20.7050438   5.4494824  43.8387680  20.6012993
   6.0368166  42.6798668  19.8247814  21.3869267  43.0056419   3.9832797
  21.4319267  43.7651596   4.5640926  20.7188854  42.4434166   4.3755236
  60.3837547   8.3911791  69.1767349  59.5496864   7.9260125  69.2413635
  60.4642830   8.6106768  68.2485275  58.4505234  50.5040970  47.9937668
  58.7633972  49.7245178  47.5348549  59.0956535  50.6497498  48.6857376
  29.8144798  60.3117828  48.7934303  29.9119530  59.4768066  48.3356667
  30.6655216  60.7389946  48.6962204  52.2158775   3.8183501   1.8867276
  52.1760979   4.7483234   2.1098833  52.7668991   3.4320526   2.5674484
  50.3344421  27.0320415  73.0682602  51.2893257  27.0074253  73.0064163
  50.1503525  26.8769283  73.9946976  74.3977661  37.6335793  30.7183533
  75.1804047  37.9118156  31.1940575  73.6798401  38.1033020  31.1428165
  22.0636578  18.8658657  57.8626556  21.3994598  19.5239296  58.0676613
  22.0587902  18.8102551  56.9070854   8.7908630  48.6671181  35.7416191
   9.4361782  48.4607964  36.4178085   9.0590734  48.1432228  34.9867516
  10.6382589  42.7029533  52.1097298  11.1447897  42.0215073  52.5516434
  10.9667559  43.5228271  52.4786835  85.4711838  56.0699577  87.4768753
  84.9361343  55.4302635  87.0070343  85.1032639  56.0871849  88.3603668
   1.9102340  63.0005989  43.6127357   1.9431878  63.5513916  42.8305740
   1.3896949  62.2416725  43.3494835  39.6230965  56.5504074  87.4679260
  39.3269615  55.6960754  87.1538467  39.2312393  56.6350365  88.3371353
   3.9000220  44.7428360  84.2739944   3.3196487  44.9766922  84.9983673
   4.0346651  43.8000069  84.3697586  84.1736069  58.7726479  21.5771770
  84.6999435  58.9786148  20.8046589  84.7865753  58.3503494  22.1789799
  10.9517727  27.9973450  28.4939194  10.1797647  28.1146374  27.9403152
  10.7953739  27.1710396  28.9510746  22.2312870  33.5770721  85.8868256
  22.5767593  34.4631348  85.9953232  22.3963547  33.3665047  84.9677811
  30.8932934  65.5803757  75.8415070  30.4444847  66.0071030  76.5713730
  31.3169460  64.8171082  76.2341537  50.3023415  22.5575142  29.1682339
  49.4715424  22.1235199  29.3622742  50.7506981  22.6049938  30.0125999
  23.3697453   7.6489024  72.9480591  23.9725246   8.2559280  73.3774872
  23.8416634   7.3534112  72.1694641  72.8922195  24.1350307  87.7217331
  73.2285538  23.7979012  86.8913956  72.5383606  23.3651752  88.1670761
  38.5517197  54.1475410   7.2752814  38.6984863  53.2360344   7.0225954
  37.7546539  54.3999252   6.8092117  50.7796097  61.9464302  87.7921295
  49.9653702  61.4432220  87.7867279  51.4539490  61.3083725  88.0253220
  52.4996223  39.0350533  -0.1000656  51.6107254  39.1934013   0.2177694
  53.0356140  39.0053482   0.6924379  55.7980995  10.3826122  48.0874062
  55.4370956  10.3321381  47.2023277  56.1116219   9.4966507  48.2690773
  85.2102509  30.5352402  31.8855019  85.3846893  31.3588982  31.4300976
  84.2824097  30.5809765  32.1162453  44.0547943  47.8221321  51.5008850
  43.8683205  46.8866882  51.5809021  43.3953247  48.1461983  50.8874359
  54.7059288  13.0720615   8.3560257  53.9892159  13.5998030   8.7082243
  55.4991302  13.4976759   8.6814747  74.7977066  36.6146088  73.9553528
  74.7870026  35.6734428  73.7812119  75.2467651  36.9929581  73.1994171
  58.0059013  41.2107086  10.7157526  58.3835373  40.6021767  10.0806818
  57.9554253  42.0443001  10.2479839   6.6480765  33.9146461  75.0104446
   7.3277121  34.3456306  75.5286942   6.2632222  33.2724419  75.6068420
  46.2407799  53.5155640  69.1254120  45.5766144  52.9721489  68.7013702
  46.9015617  52.8930550  69.4288559  47.9389267   4.7683001  44.7114563
  48.7534714   4.3139544  44.9266739  48.0068054   5.6089911  45.1640701
  64.0415344   4.6469102   2.5089502  64.2120972   3.7315092   2.2871850
  63.7313042   4.6202736   3.4140911  80.9163666  24.9124889  36.3753853
  81.6090088  24.3807487  36.7674599  80.5942993  24.3851128  35.6443710
  60.8971672  47.1608276  29.1828346  60.6375313  46.6549225  29.9528236
  60.2598038  46.9186020  28.5110264  37.6080894  56.6115074  60.2148552
  38.3399277  57.2282486  60.2313614  36.9098396  57.0805588  59.7580528
  47.1404800  32.3849373  88.1849060  47.0617676  31.5129776  88.5718460
  48.0373573  32.4192810  87.8522491  38.1193352  64.0028458  76.4800644
  38.6407318  63.7137604  77.2289352  38.4982758  63.5413704  75.7319489
   5.1777234  34.9210701  59.8146248   4.5990195  34.5354156  59.1568985
   5.5624299  34.1694031  60.2654381  10.2702856   1.1319041  69.7864990
   9.4425430   0.9568377  69.3388062  10.2596483   2.0750732  69.9494400
  82.7658234  26.8178978   3.4212389  82.8882980  26.3176804   4.2280931
  83.0491180  26.2241135   2.7259719  66.8966675  14.2692537  27.7690258
  67.4600677  14.6651201  27.1041183  66.5767746  15.0101023  28.2838459
  43.3870621  59.0166092  58.2169189  43.2589188  58.6421165  59.0884476
  42.7842216  58.5289345  57.6556778  85.4188461  35.8274193  78.3299103
  85.7713242  35.6587372  79.2037125  85.2620773  34.9574127  77.9628296
  69.0266800  27.4414024  45.3893166  69.6201401  27.5688438  44.6491852
  68.1921844  27.1986713  44.9881592  33.3101616   4.0817585  64.1761856
  33.0053520   3.3632615  64.7303314  32.6069221   4.2078776  63.5391731
  17.5403557  56.2411613  21.5752010  17.9731140  56.6380081  22.3311558
  17.5046692  56.9421463  20.9243717  35.3492966  67.5447540  51.7752914
  34.8600960  66.7611542  52.0260696  35.1392174  68.1858063  52.4543724
  21.6379356   3.9768016  61.0703011  22.2144852   3.2137442  61.1098633
  20.7719002   3.6343653  61.2915573  38.9980316  10.3376999   2.2875931
  39.5443687   9.5680065   2.1284664  38.1150322   9.9856119   2.3997405
  85.4197922  69.6180649  13.6021328  84.4721069  69.7317734  13.5300512
  85.5333252  68.6972122  13.8374386  85.8973770  22.5723057  24.7374401
  86.4560928  22.3377438  25.4784184  85.0485611  22.1811829  24.9442539
  20.2820473  59.7104988  74.8251190  19.4408073  59.3124084  75.0488892
  20.0608044  60.6013336  74.5536499  16.9978752  24.4196491  71.1333237
  17.1081638  23.6728992  70.5447388  16.4280319  25.0207043  70.6534882
  13.2285557  45.6835175  56.2973785  12.6114120  46.2279472  55.8085442
  13.4397068  44.9657249  55.7003708  56.3214912  68.4550400  41.0501022
  56.1229439  68.4163589  40.1145172  57.2130699  68.1138229  41.1200447
   6.8219824  29.2061062  25.5109749   6.1873856  28.8582153  26.1374645
   7.1342878  30.0172882  25.9118271  45.3360481  66.5035324  46.4650726
  44.5521393  65.9552460  46.4982452  45.1025734  67.2857285  46.9649658
  24.6799927  66.9373245  78.5308228  24.4079418  67.5572586  77.8541412
  24.5760765  67.4181671  79.3519287  53.4300232  17.5972614  24.9123020
  52.8956718  18.1126919  25.5164814  53.3829536  18.0746288  24.0839691
  55.0284500  19.5782375  40.2410660  55.7417412  19.8419247  39.6597595
  55.4509010  19.4319115  41.0874443  14.0198574  47.6171608   7.9191952
  14.6482983  47.9532700   7.2801919  13.6873579  46.8100548   7.5264411
  62.9319000  63.7881737  87.0453873  63.3538628  63.4406815  86.2596207
  62.6405487  64.6643829  86.7932053   8.2577715  51.5113640  18.4945621
   8.3221340  52.2208672  17.8552723   7.3536358  51.2054291  18.4226189
  76.9684982  44.9407463  72.7227325  76.5347137  45.2618370  71.9321899
  76.3640747  45.1577492  73.4325333  48.0370750  63.4174461  26.1339397
  47.7494354  62.6761894  25.6009884  47.2662621  63.6553955  26.6491699
  14.6026583   1.7984693  83.7830658  15.2986135   1.1919386  83.5300827
  14.2710342   1.4506595  84.6108856  76.4073792  48.3257751  62.0628777
  76.0844345  48.9348640  62.7269135  75.8232422  47.5701599  62.1266327
  30.1954784  63.3405037  86.6147614  30.0427151  62.5395050  86.1134644
  30.5439205  63.0358963  87.4526367  63.9830208  64.0834503  25.5906887
  63.2905846  64.4061050  25.0139236  64.7585220  64.0375366  25.0314693
  24.8947411   2.0029202  87.8408737  25.0111618   1.5638111  86.9983444
  25.6352215   1.7062343  88.3699265  19.3312912  11.9854488  11.4466505
  18.8211575  12.6711369  11.8777266  19.5958195  12.3725395  10.6121340
  69.1016541  66.3019333  43.9216042  68.3746719  65.7911758  44.2777710
  68.7003555  67.1225128  43.6355438   5.8454642   0.3933924  59.9546394
   4.9637337   0.7548391  60.0448570   5.7067161  -0.5414203  59.8026314
  43.2277489  49.0770378  61.2227440  43.5891266  49.0138397  60.3386383
  42.3345490  48.7427902  61.1408577  55.7867432  57.8307686  37.4172974
  55.2789726  57.4434700  36.7042732  56.1861191  57.0824661  37.8608856
  47.5563011  51.2914314  30.1595459  47.0309410  51.1689034  29.3688412
  47.8244743  52.2097893  30.1290035  11.9829712  50.7325897  29.3539524
  11.0456781  50.9250145  29.3801594  12.0888510  50.1604042  28.5939350
  41.8408012  32.8184013  62.9666443  41.1495438  32.3057709  63.3856926
  41.4014740  33.2679062  62.2447205  60.2513428   7.1219730   2.8879278
  59.9440346   7.6625304   2.1601973  60.2448845   6.2292638   2.5425863
  82.2354813  43.2595444  80.2537155  82.2666168  44.0453491  79.7080231
  81.5579529  42.7156677  79.8519897  17.5318069  31.8392544  13.1117296
  17.5335388  32.7420769  13.4297552  16.6665859  31.5041294  13.3469172
  69.6461258  26.4391804  47.7593956  70.4105148  25.9988766  47.3878212
  69.1397629  26.7230682  46.9983177  48.3514290  10.7016010  72.5316010
  49.1174507  10.1580877  72.3471146  48.6912384  11.5962744  72.5494766
  55.4629021  66.9687195  75.8993225  55.9528809  66.5742416  76.6208038
  56.0938301  67.5452423  75.4682999  41.3498116   2.7607083  87.1951828
  41.8670959   2.4156506  87.9229126  41.7887878   3.5767055  86.9550247
  20.4345932  12.3134670  71.8628922  19.6947250  12.5634050  71.3093948
  20.0321865  11.9895115  72.6687164  65.4333038  20.2097054  28.0585918
  64.7622910  19.7563801  27.5482235  65.8691101  20.7816620  27.4267921
  85.0480881  48.0421944  45.2261276  84.6860733  47.1721077  45.0584106
  84.3601837  48.4984856  45.7107162  37.0283127  66.6902695  69.1796494
  37.8004341  66.2622147  69.5495529  36.7854462  66.1426392  68.4330902
   3.8258712  51.0217209  70.7314987   2.9938641  51.4130936  70.4653702
   3.7015550  50.0818596  70.5994415  59.5967064  23.2818012   2.1199133
  58.9623871  23.0786362   1.4324585  59.2834511  22.7993908   2.8850167
  64.0513077  59.4565201  53.5541115  64.4457855  59.5345383  54.4227486
  64.7943268  59.4762039  52.9509811  54.9954300  17.4459019  48.1978455
  55.3026428  18.0570145  47.5282249  55.6368713  16.7355156  48.1861877
  70.9654694  20.7149467  55.1178856  71.4016418  21.4269485  55.5859032
  70.4656677  21.1522541  54.4285431  33.8336372  63.7759209  20.2357101
  33.2663765  63.3462868  20.8759155  33.6457100  63.3283463  19.4107304
  66.6534042  37.9536743  73.9682312  66.2136154  37.2283096  73.5247726
  66.5208130  37.7803383  74.9002228   2.7752564  66.6823578  49.5236130
   2.1548796  66.1345291  49.0427284   3.3994379  66.9763870  48.8601532
  38.7451897  39.9763947  18.6521130  38.9708672  40.2738991  17.7707558
  38.4492989  40.7670059  19.1033440  39.7855453  58.9142113  17.5520706
  39.0779381  58.2789917  17.6617088  39.4327126  59.5630798  16.9432087
  35.3810310  11.5940866  77.4183121  35.7125206  12.1582317  78.1169434
  36.0840416  10.9624157  77.2666626  51.0379639  67.0887680  12.8774004
  50.9259644  66.2423859  12.4445877  50.2158241  67.2280884  13.3474073
  83.5696335  50.4140015  35.5015450  82.7556763  50.8697968  35.2871742
  84.0798874  50.4415436  34.6921501  48.2503242  57.6843872   6.8316975
  47.4207687  57.2335205   6.9891353  48.6894264  57.6819611   7.6822352
  77.6697235  70.7589340  13.4933901  77.1458435  70.0330582  13.8323393
  77.6863632  70.6205597  12.5463915  68.5216522  57.0887451  47.7920723
  67.7858429  56.5145912  47.5795364  69.0469437  57.1109505  46.9921913
  18.3334274  58.9046364  13.1482611  17.5136375  58.5533981  13.4958344
  18.0611191  59.5136681  12.4618483  51.6109848  39.5376854  78.2764053
  51.7509766  39.0709610  79.1002960  51.8306007  40.4476509  78.4763107
  68.8854065  16.8962383  84.7227554  69.7847519  16.5887203  84.6094437
  68.6722641  16.6836185  85.6313782  85.1520920   4.3290753  11.3894167
  84.5059967   4.8322620  11.8849964  85.2036667   3.4895957  11.8464136
  11.5004168  23.0893173  16.8212090  11.0951805  23.2609844  15.9711828
  10.8281946  22.6218071  17.3169746  63.1630287   2.1655331  34.1068039
  62.9098129   3.0876186  34.1500778  62.4984245   1.7605429  33.5495644
   2.2046440  37.3253555  84.0476379   1.7429919  37.7704506  83.3370056
   2.0864301  36.3935204  83.8634033  69.7411957  26.5414467  71.8144379
  69.4149017  25.7461834  71.3933563  70.4762878  26.2441998  72.3506546
  37.6306763  45.3256378  42.4893761  36.9708862  44.6738129  42.7260818
  37.1528740  46.1548843  42.4725342  61.2237473  61.4053688  20.1408653
  61.2002869  61.2695274  21.0880871  60.5162582  62.0271912  19.9704857
  51.1096077  62.9117279  78.1189957  51.1251183  62.8809395  77.1624146
  50.9981422  63.8393822  78.3269958  31.9662666  45.2860031  69.7294998
  31.2064056  45.8229103  69.5046082  31.9448891  44.5651245  69.1001282
  85.9451523   8.5185003  33.3735275  85.8628922   9.3068228  32.8368568
  86.8858566   8.3435078  33.3994865  22.8139324  59.5800018  48.1761703
  23.7071018  59.2357979  48.1773300  22.8101292  60.2338371  47.4770889
  59.1199951  13.1719980  60.6224594  59.0036545  13.5410719  61.4979477
  58.6789246  13.7912703  60.0409164  70.2997894   0.3430089  36.3624840
  71.2502975   0.2552380  36.4336052  70.1516342   0.6173294  35.4574776
   1.2210220  60.9193573  73.5928268   1.2387929  60.2641220  74.2903748
   2.0924659  61.3148232  73.6134338  73.6759109  62.4362411  79.7990265
  73.2804337  62.0915451  78.9983902  73.1012115  63.1560936  80.0593338
  12.7159309  52.3285141  58.5188484  12.9941950  52.1442947  59.4159927
  11.8199511  51.9948654  58.4726944  31.4241352  67.4247437  85.0685806
  30.9720154  68.0082092  84.4591599  32.1815300  67.9290390  85.3656921
  18.8607750   3.9173663  11.8139019  18.3290558   3.1423094  11.6328163
  18.9664536   3.9183900  12.7652502  27.8744392  71.6466064  32.7236290
  27.7486382  70.7315521  32.9747810  28.4095459  72.0163345  33.4259071
  47.6125565  45.8344574  55.1117439  48.2491226  45.1829262  54.8176041
  48.1364250  46.6131020  55.3001785  80.1062241  30.2962742  10.7145462
  79.9842529  29.6712303  11.4291611  79.2329941  30.4017754  10.3369617
  20.4945164  69.4215088  87.5919571  21.1188431  69.7838135  88.2205963
  20.9112511  68.6200867  87.2752686  28.4056950   8.8854675   9.6116610
  27.5236855   8.7526035   9.2643318  28.9325123   9.1149654   8.8461370
  13.1857958  15.6073370  73.2109299  12.4607077  15.0986996  72.8479309
  13.4426146  15.1292486  73.9994202  78.5996552  57.1891136   2.9893656
  79.3338165  57.2903137   2.3835652  79.0026855  56.8995132   3.8078589
  55.3835716  63.6584816  83.0777817  54.4985390  63.9706230  83.2662506
  55.3112831  63.2357178  82.2220535  32.7430763  61.1122894  86.6393661
  32.1226120  61.1428032  85.9111328  33.6010971  61.0455742  86.2203445
  64.5315094  51.8260727  70.2175064  65.3645935  52.2933998  70.2791595
  64.4012985  51.6914444  69.2788086  40.4042091  69.9699020  16.2855396
  39.5022812  69.6515198  16.2482624  40.3196793  70.9131699  16.4245377
  83.9241333  62.9538383  10.3421535  83.7515945  62.2802658   9.6843061
  83.0609818  63.1718483  10.6938171  69.9347992  37.5762215  13.3439350
  69.9862747  37.3657646  14.2762918  70.2603912  36.7915268  12.9029408
  71.8845825  67.4567642  56.9367485  71.3863525  66.6417313  56.9976959
  72.7884598  67.1749802  56.7959328  56.6889992  62.6050491   2.4869549
  57.4686127  62.0500259   2.4673252  56.0351677  62.0832596   2.9522209
  30.7158051  64.0649261  29.6903839  30.7446957  65.0167694  29.5934391
  30.0626373  63.9134674  30.3735142  39.9534531  54.9815025  40.1373940
  40.1888428  55.5048523  39.3712845  39.8452988  54.0935097  39.7968063
  81.3406143  14.2651463  80.4504089  81.2958450  14.6780300  79.5879974
  80.8610229  14.8606586  81.0262451  81.5833359   4.2423687  47.2858391
  81.6685486   4.9082289  47.9681854  82.0448380   4.6109195  46.5325699
  33.2852821  52.7368088  54.3160400  33.7397575  53.2417107  54.9904022
  32.3664093  52.9893265  54.4062729  50.7092361  20.8971977  79.2117462
  51.2691307  21.6717014  79.2655334  50.1204796  21.0776920  78.4789352
  14.9836626  69.1770172  47.6810684  15.2563009  69.5527115  46.8439560
  15.5297375  69.6190567  48.3311729  24.6804829  37.2330513  33.2638779
  24.9221325  37.0742340  32.3513985  23.9174232  36.6740150  33.4103470
  86.7272949  23.9012146  61.5964432  86.4641495  23.1972351  62.1892357
  86.0451126  24.5653210  61.6955414  17.7056694  61.2088661  48.8128777
  18.3707752  60.6543236  49.2207336  17.5583572  61.9113655  49.4461479
  60.7960701  40.5630951  24.1014061  61.0515213  40.1157570  24.9081669
  59.9090080  40.8790207  24.2732868  68.9915543  43.2860718  39.7920570
  69.7573471  42.8376656  39.4332771  68.7120056  42.7350159  40.5230980
   0.6013575  19.6290874  60.5040436   0.6525304  18.6799946  60.3907394
   1.3749857  19.8504715  61.0224266  76.1740036  40.4359207  80.1336288
  76.3214722  41.0363197  80.8643875  76.8674088  40.6453552  79.5078888
  77.8270569   5.3345346  14.0035810  76.9439240   4.9656429  13.9888296
  77.7810593   6.0895967  13.4170685  57.2573128  67.0545349  23.6067276
  56.6161308  66.3680115  23.7905960  57.3862076  67.4933090  24.4476166
  76.6158905  65.2301025   6.8598342  77.3159637  65.5926514   7.4026914
  75.8172073  65.3846817   7.3642573  63.5123024  59.3189049  57.4768066
  63.7616119  59.2964783  58.4006996  62.5554390  59.2953453  57.4862976
  33.3456306  58.6675415   6.7069750  33.6331139  59.5698624   6.5676937
  32.9743919  58.4018745   5.8656459  57.6282082  51.4212952   3.9297276
  57.5514145  52.2556343   3.4669001  57.0054512  50.8440857   3.4878690
  24.3164825  28.9386177   8.9525232  24.1715679  28.5900841   8.0728893
  24.9846649  29.6139450   8.8354931  13.2325850  53.2963676  36.7105446
  12.6549921  52.6328354  36.3332596  13.9236155  53.4112587  36.0582352
  13.6006079  30.6829376  77.7241135  12.7873049  30.1792011  77.6921844
  13.8957052  30.6041031  78.6312714  31.8681717  34.2215958  25.3786469
  32.2437935  33.4881706  24.8915863  32.5728378  34.5097694  25.9588490
  14.2357254  49.1966209  42.9293785  14.6976929  50.0280647  42.8220520
  14.8637533  48.5346222  42.6402931   6.5703344   5.2292733  25.9369125
   6.5328145   4.3292904  25.6131001   6.2942410   5.7634778  25.1921787
  72.9448090  65.0138397  35.9907112  72.1605988  65.5228348  35.7853622
  73.2597427  65.3817368  36.8163643  40.2803802   1.7741290   5.1489654
  40.0059242   0.8585036   5.0986004  41.0432854   1.8275018   4.5733294
  70.8870010  68.2365723  54.0175514  71.5319977  68.7349472  54.5193825
  71.4098206  67.6983948  53.4231987  11.4810858  64.7056274  52.4636002
  11.4954710  65.3881226  51.7926178  10.6009321  64.3335190  52.4079208
  64.0741348  35.2904854  32.5232353  64.0384598  34.8713570  33.3830566
  63.2994728  35.8521919  32.4982681  54.0617332  53.2431107  36.4345474
  53.1334152  53.3999825  36.6073112  54.0862389  52.9176941  35.5346909
  85.4023132  62.9794235  27.3108387  85.0046310  62.1171188  27.1903744
  86.3278809  62.8470726  27.1058102  83.0002289  71.1768494  20.2096195
  83.3677444  71.0520706  21.0846024  82.6598740  72.0714493  20.2181339
  14.0272741   8.3360481   1.6292201  14.3856163   7.4925542   1.3529220
  13.3022728   8.1090965   2.2115407  22.8852444  63.9224892  87.4250717
  23.6484051  64.3425827  87.8217316  22.7175350  63.1593475  87.9779892
  83.4101181  40.5928955  66.2786102  83.5653000  41.2070465  66.9962234
  82.8160858  41.0580177  65.6895294  80.9886169  27.2910995  58.7780914
  80.6311798  26.8498592  58.0075188  80.9181671  28.2236919  58.5742760
  86.3350525  70.9948959  20.2316132  85.7551880  71.5883026  19.7542686
  86.5289612  70.2957687  19.6072292  72.5191116  58.4969139  48.4180107
  72.5719910  58.3481407  47.4739227  72.9683685  59.3310356  48.5545654
  43.2790756   0.1272606  63.3213120  42.7052269   0.8345526  63.0269165
  42.7007370  -0.4671900  63.7992058  26.7395000  63.6359711  18.4963551
  27.3116531  63.9474182  19.1976910  27.2559547  63.7482147  17.6982918
  42.2509499   7.5722642  72.9778900  42.7244949   8.1004953  73.6205063
  41.3495445   7.8910699  73.0233154  42.6678200  55.3440514   7.0472941
  43.3318634  55.1569061   6.3837752  41.9557304  54.7349510   6.8519592
  75.2733383  39.8746567  64.4449768  75.3411560  38.9440155  64.6583862
  74.9107819  39.8914795  63.5592575  59.5955582  11.1171341  70.6264954
  59.8298264  12.0384264  70.7386169  60.2375641  10.6409492  71.1530991
  62.7040329  24.6572189  59.0481415  62.7777824  23.7048435  59.1095963
  62.2278633  24.9120655  59.8384247  21.0709400  11.1405420  89.0271072
  21.7593937  10.5059004  88.8283768  20.7233448  11.3926077  88.1716156
  20.9867954  26.5173550   0.8284038  21.6990623  27.1224499   1.0352132
  20.2215309  26.8894634   1.2667366  54.2516365  12.3141003  62.5829163
  54.6602783  12.7357225  61.8269539  53.3356361  12.2022295  62.3286400
  12.6675901  37.8329773  74.2355423  13.1538105  37.2998009  74.8644714
  13.3291664  38.1284676  73.6100540  78.8174820  65.5341873   3.2031894
  78.9081650  65.2167511   4.1016545  78.3900375  64.8155594   2.7372568
  48.2259064  20.6752052  84.2231216  47.7812805  20.2561741  83.4862671
  48.2134094  21.6085300  84.0110321  43.2845535  70.0320740  66.4649048
  42.5073395  69.9364166  65.9144363  43.6304703  69.1433868  66.5474243
  63.6305428   2.4480703  85.3048935  62.8835373   2.0200210  85.7231979
  64.3399429   2.3688893  85.9426346  27.6744175  21.1521969  19.3711033
  28.4133358  21.6247921  18.9878502  27.1387577  21.8337727  19.7770042
  16.9132824  50.5248375   6.9683504  17.1031647  50.8756142   7.8384838
  17.7739506  50.3840904   6.5737963  33.8857536  16.1302814  74.2145233
  33.3151855  16.2007694  73.4492035  33.3754501  16.5105019  74.9295502
  57.6985626  51.4043808  82.9129257  58.5140495  50.9457626  82.7107391
  57.6007729  52.0421104  82.2058334   0.4575102  42.4520264  76.4502487
  -0.1248336  42.8301659  77.1091309   1.2751523  42.9407082  76.5445023
  61.3577309  32.6273193   1.9715494  61.6735725  32.5624847   2.8728099
  62.0368881  32.2013931   1.4485208  65.3760986   1.4811924   4.5164928
  65.9296570   0.9841191   5.1187534  64.4886703   1.1696219   4.6943431
  72.4130936  18.3988628  78.0232620  72.3591537  19.3035755  78.3311768
  73.2644196  18.0905323  78.3337708  37.5803261  33.4349632  83.0996323
  38.3968582  33.1700363  82.6761703  36.9306374  33.4213104  82.3968124
  10.0693512  36.9502640  19.3503380   9.3768320  36.3062744  19.2022667
  10.0289183  37.1339493  20.2888775  17.1874523  25.8104839  34.4474182
  17.2815418  25.2945633  35.2481728  16.4476280  26.3920002  34.6227112
  36.5232048  64.8523331  36.5782318  36.8170090  63.9786072  36.8361244
  35.7605476  65.0215378  37.1313629   3.7495389  64.3716354   7.6624475
   3.0604599  64.6160355   7.0446520   3.3019767  63.8442802   8.3241253
  46.0561295  36.5859718  87.9900513  46.6929588  35.8821182  88.1136322
  45.2079201  36.1724434  88.1505890   1.6205049  52.2823715  25.0868244
   1.5505714  51.3724442  24.7980824   0.9054511  52.3902817  25.7139492
  12.0586414  45.6018486  72.7386780  12.7168894  45.7733002  72.0652237
  11.7371731  44.7221947  72.5409546  52.2299576   0.9070641  27.2695770
  51.4983482   1.4722825  27.0215588  51.8163528   0.1388967  27.6633854
  73.3961945  36.9753036  63.6749382  74.2258301  37.2410240  64.0715790
  72.7322083  37.2282639  64.3163147  70.8697357  27.0847664   5.3835721
  71.5742264  27.0951824   6.0315118  71.3205643  27.0422325   4.5402575
  60.8517189  62.2732277  56.6376572  60.9638596  62.1775398  57.5834389
  60.7901688  61.3753395  56.3117104   9.0612602  48.1401215  13.1532278
   8.1528997  48.3720360  12.9600229   9.5645657  48.5253258  12.4359179
   9.3474798   6.2834482  26.4953117   9.2974825   7.1132159  26.9698830
   8.4404497   6.0861368  26.2616558   5.9893947   1.7310171  81.0224228
   5.6608024   0.8833312  81.3218994   5.5176134   1.8959358  80.2060547
  61.9229088  62.2219925  89.1679077  62.6181297  62.5497932  88.5974274
  61.5911522  61.4445381  88.7187500  45.1854744   3.9643056   0.9059657
  45.9029198   4.5954394   0.9622838  44.5591774   4.2538013   1.5694225
  29.6086807  10.6128902  13.7467232  29.7639942  10.6123371  14.6912384
  28.6563263  10.6557932  13.6606236  22.1748600  49.3296814  22.2747383
  21.7847519  49.8796692  22.9541225  21.9466095  48.4357872  22.5298615
  79.4305878  18.0633450  14.6287174  79.6518326  17.2704830  14.1401958
  80.1092606  18.6925220  14.3842230  80.6949234  18.2996902  66.5818863
  80.5940018  17.6068745  67.2346115  80.0796204  18.0655842  65.8870316
  13.0127563  29.1905098  32.8968086  12.5045843  28.7559433  33.5817528
  12.4093666  29.2572021  32.1567383  26.7279625  41.4221344   9.9155407
  26.4210300  40.6104965   9.5114765  25.9809856  42.0175438   9.8543453
   0.5713090  11.9079189  82.5478439   0.5968026  12.0811224  83.4888992
   1.0038939  11.0598307  82.4486008  16.6330166  11.0600805  24.6189880
  17.2848072  10.3703852  24.7443733  17.1478577  11.8607101  24.5181847
  48.0237923  47.0231476  89.2554398  48.6234779  47.7672005  89.3100815
  47.4528122  47.2295647  88.5154343  62.1552315  22.3319759   1.8028831
  62.6457291  23.1270924   2.0112927  61.2393456  22.6100979   1.7973133
  56.3729401  56.5939445  30.1284542  56.9941978  57.1651611  30.5800991
  56.1863556  57.0460815  29.3056602  60.4516678  62.8966408  40.5758286
  60.6172714  62.7608185  41.5087585  59.5264778  63.1376686  40.5294037
  84.2396164  18.7825470  36.1624260  84.3737411  17.8869343  36.4724541
  85.0449448  19.2416859  36.4008980  75.1839294  56.9987793   4.5455790
  75.6647873  56.2210999   4.2623472  74.2873764  56.8483582   4.2459002
  73.2561264  56.4994202  71.2495041  73.6906662  56.5831261  70.4007339
  72.5030899  57.0875282  71.1920853  70.8379974  34.3994102   4.9133515
  70.7068253  33.5800591   5.3905220  71.6164856  34.7873306   5.3129869
  78.5270462   5.7941179  28.8110447  78.2483292   4.8887892  28.6734657
  79.1686935   5.7421618  29.5194378  54.5188179  70.4598007  12.8938828
  55.3281898  70.5258026  13.4006281  54.7832527  70.6515198  11.9941339
  35.8024445  28.2583370  12.0918665  36.6756516  28.6495762  12.0659418
  35.5430832  28.3121738  13.0116835  69.9962387  53.6417656  35.0897903
  70.2089844  53.0513191  35.8125267  70.7915268  53.6651993  34.5576248
  50.5618858   4.4056511  45.5837135  50.4915695   4.7643170  46.4683876
  51.5037270   4.3418231  45.4253044  38.0374794  51.5701218  30.4895573
  37.2156143  52.0513306  30.3935871  37.7726326  50.7020073  30.7936325
  24.6519508  57.0812416  20.8700886  24.3016739  56.1932297  20.7995605
  24.1191292  57.4956856  21.5487404  78.5078964  63.2139893  13.4614916
  78.8416519  63.1079254  12.5706568  77.8645325  62.5123177  13.5613451
  70.3372040  51.2119751  37.0797501  70.8391647  50.3992844  37.1414185
  69.4718018  50.9854012  37.4203110  25.6839371  52.3634186  47.3598099
  24.8581619  52.0821686  47.7537956  26.3066902  51.6743279  47.5912476
  51.7784653  22.5675640  27.0306892  51.4465027  22.5221043  27.9273300
  51.0448875  22.9112816  26.5208340  62.8184624  47.4106293  86.0917664
  62.1593781  46.7919006  86.4064331  63.6527061  47.0368614  86.3756104
  29.8161373   9.9908562   3.6531274  30.4601746  10.6404514   3.9350402
  29.1694756   9.9728794   4.3586321  55.0557060  43.5449524  65.8786926
  55.6129799  42.9131279  65.4242935  55.2732773  43.4340782  66.8042145
   3.7168744  38.3077164   1.9920329   4.3382211  37.9263000   1.3718046
   2.9843051  37.6917915   2.0065503   7.4087124  52.3120880  72.6089020
   6.9464211  51.5111198  72.3619843   6.7971206  52.7747078  73.1817627
  80.8160934  54.6943932  14.1916103  81.1568298  53.8011055  14.2381220
  79.9409714  54.5976753  13.8160601   7.1958718   8.4151659  86.6989441
   7.8523498   8.3341789  87.3908386   7.6547990   8.1517229  85.9013138
  27.9914055  31.5549088  18.0495129  28.2745724  30.6434383  18.1221046
  28.7894516  32.0653038  18.1868191  85.5301666  43.9653168  12.1600075
  85.0452576  43.1418839  12.2152843  84.8745422  44.6123657  11.8997965
  61.7779312  40.0813789  86.5876846  60.8242493  40.1290054  86.5209351
  61.9585304  39.1626320  86.7864761  81.8558960  11.5750322  83.6824417
  81.4724960  11.5661345  82.8054199  81.4519348  12.3285875  84.1128006
  16.2467117  51.3110428  24.2578735  15.3168755  51.1081848  24.3602638
  16.5287361  50.7745514  23.5170155  50.6704597   7.2327771  22.0065231
  51.5109978   7.4208975  21.5889835  50.1343613   6.8581471  21.3076077
  35.4959908  32.5596504  18.2843723  35.8947372  31.8156815  18.7357540
  36.1923943  33.2149353  18.2413063  53.4500885  40.6368523  26.8545246
  53.1693954  39.7694702  26.5628166  53.0493126  40.7406120  27.7175694
  19.0017872  50.8163795  17.9421444  19.6326809  51.0712051  17.2688942
  18.1469593  50.9682922  17.5391235   0.8789842  30.5804558  28.5365047
   0.2665840  29.8590145  28.3925591   0.3412464  31.2810555  28.9055958
   3.6364605   6.3195996  25.6451550   2.9329057   6.1166315  25.0286770
   4.0894675   7.0666509  25.2540913  56.6124229  22.0780811  45.9974174
  56.9928398  21.8446045  45.1506538  56.5169754  23.0298824  45.9628448
  12.2326527  52.2088623  85.1085052  12.3531361  51.6361542  85.8659515
  12.1557035  53.0868530  85.4819260  86.7711182  55.2357254  10.5913687
  86.8015823  54.9185410   9.6887627  85.8677139  55.5281258  10.7121267
  73.7843475  32.3328781   5.1018295  74.1460114  32.8270645   4.3661575
  73.1282272  31.7594414   4.7057076  13.7749186  62.6416512  67.2891541
  12.9420481  63.1114616  67.3320160  13.6296415  61.8489990  67.8057022
   5.4263978  37.7721558  56.7682114   5.4209900  38.1038818  55.8703461
   6.1937971  37.2014160  56.8080635  26.9827385  66.8432007  29.9274120
  27.4058590  67.5892715  30.3523579  27.7015877  66.2458191  29.7209587
  75.3257294   1.3793066  16.2700024  74.5252304   1.3640633  15.7454109
  75.2527924   0.6142068  16.8405590  14.1075077  39.9902992  23.5068302
  13.3612671  40.1849136  22.9398365  13.8211126  39.2426758  24.0314922
  26.3720589  46.1121559  75.6963043  26.4434128  46.1922646  74.7451324
  26.5975895  46.9814644  76.0274658  83.3421097   1.2619945  69.7316360
  82.5063400   1.0857508  69.2995987  83.6782990   2.0435874  69.2930984
  42.3497047  40.7783585  18.3725185  43.1594086  40.3987007  18.0312405
  41.6567192  40.3723717  17.8517742  57.2737846  15.6870499  47.9837646
  58.1446800  15.8881474  48.3263054  57.1349640  14.7668142  48.2076569
   1.9851733   7.6786318  33.5884743   1.9406258   6.7239766  33.6421471
   2.1099834   7.8605886  32.6570511   8.5552721  14.8114529  72.4869003
   7.9115248  14.4449825  73.0931320   8.4473591  15.7591686  72.5670319
  48.5026474  59.9613342  26.2953568  48.0218773  60.3311348  27.0358562
  47.8216782  59.6475372  25.7003403  17.1709881   6.5916581  19.0465431
  16.3882561   7.0329132  18.7166080  16.9135609   5.6729355  19.1234264
  33.8713646  68.5480499  67.7380753  33.0630989  68.0356140  67.7567291
  34.4523582  68.0578613  67.1563644  13.2940569  52.5641670   2.8750672
  12.7055483  51.9175758   2.4854403  13.9185429  52.0450211   3.3817587
  27.2746334  52.7948265  81.8354263  27.8717194  53.5328903  81.7130356
  26.4025497  53.1894150  81.8336716  77.9126511   2.6732674  36.5724983
  78.5969086   2.0280302  36.3944740  77.0960236   2.1764765  36.5220680
  19.2630997  16.5081882  78.0949631  19.9136124  15.9309731  78.4948273
  18.4388142  16.2705898  78.5196228  54.7671700  70.1957932  51.6815376
  55.0714760  70.8954391  52.2595711  53.8348770  70.3748245  51.5590248
  68.1152649  60.4700737  69.7182159  67.7651367  59.5797844  69.6861801
  67.4857864  60.9930115  69.2216949  42.9983253  30.1913033  78.5818863
  43.2492790  29.9066315  79.4606476  42.0673943  29.9780388  78.5177612
  31.5567913  18.8389416   9.6757078  31.8769588  17.9624615   9.4623861
  32.3469315  19.3768749   9.7260933  65.9692307  57.2040977  78.1781464
  65.7750854  56.4659500  77.6005020  65.2795258  57.8413467  77.9925232
  57.1329460   7.8846240  73.1931458  57.5203018   8.0358324  74.0553131
  56.2028770   7.7433085  73.3698807  76.8483200  30.2945061   0.4207985
  76.1231232  29.8289528   0.0041648  76.8559189  31.1533241  -0.0018174
   0.2235003  69.2065201  62.4259415   0.8279042  69.2106705  61.6837082
  -0.6001932  69.5353775  62.0659218  64.0260239  48.9580803  37.6712570
  63.5409279  49.2588310  38.4396744  64.5343552  49.7207603  37.3953018
  39.4710960  67.6207047  37.9985085  39.7418671  68.4211655  38.4481583
  38.9011345  67.9240570  37.2918549  68.9658661  18.1625271  31.7052441
  68.2182922  18.5867653  31.2840729  69.1774750  17.4258232  31.1319046
  36.1945114  49.7169685  85.1930847  36.5885277  50.1338806  85.9593506
  36.2088394  50.3950233  84.5176086  17.3911705  41.1822853  76.1280823
  18.2615089  41.4343643  75.8195343  17.2065868  41.7883530  76.8456039
  55.0010109  46.0393944  44.9952888  55.2390785  46.9536705  45.1490860
  54.4391174  45.8104134  45.7356071  41.2075996  24.0676861  85.7351456
  41.7438316  23.3661880  85.3655701  41.7923203  24.5218391  86.3418427
  38.0778313  49.1115570   8.3642797  37.1328926  49.1788826   8.2271986
  38.2245674  49.5112915   9.2215500   3.7824397  35.4290962  63.5037308
   4.6925645  35.2280350  63.2858315   3.5066912  34.7079468  64.0695343
  27.6596413  70.3475800  59.9029999  28.1779499  69.5977783  60.1952095
  28.3090649  71.0007553  59.6425209  58.8817444  39.0110550  20.1672535
  59.5711212  39.2592773  19.5513153  59.3495255  38.6221809  20.9063015
  27.1178341  37.5925827  74.6304398  27.9865417  37.1996460  74.7151794
  27.2537079  38.3551559  74.0680771  64.8727570  30.6183624  76.4021454
  64.1243057  30.5440903  75.8100891  64.5717773  31.2047024  77.0962982
  54.8503799  24.5199738   9.9740343  55.7677269  24.6944046   9.7636061
  54.8701439  24.1816063  10.8692160  16.5352936  13.4630356  16.8202858
  17.4153824  13.7270002  17.0886078  16.6774864  12.7333708  16.2172909
   0.7735734   7.0312190  75.1464691   1.2803801   7.8066711  74.9055252
   1.0934297   6.3446674  74.5611725   4.2561908  55.9040794  49.8234558
   4.8659940  55.2462311  49.4893761   3.9642661  56.3775711  49.0444679
  65.0604782  67.1948929  56.6883392  65.0870590  66.6515884  57.4759560
  64.2828140  66.8957748  56.2171707  60.9273872  67.5991364  61.4594383
  60.7227325  68.5327530  61.4074898  60.2254181  67.1723633  60.9681778
   4.6935458  34.7579536  88.5812988   3.7375660  34.7107162  88.5711594
   4.8928351  35.4405365  89.2220764   2.5389247  21.6931019  67.8479919
   2.4043159  21.8972015  66.9225388   1.7209245  21.9526615  68.2719421
  74.6030121   9.6423330   8.6686993  73.7874146   9.6529455   9.1696215
  74.6253433  10.4924688   8.2293787  50.5192413  10.4709520  30.7867661
  49.7635002   9.9170952  30.9825401  50.3985405  11.2443314  31.3377171
  27.8066063  38.9012680  66.4291077  28.1570435  38.0793571  66.0857620
  26.9373379  38.6722069  66.7579498  78.8683167  60.4964142  21.5407791
  79.4457932  61.2357063  21.7310257  79.4622803  59.7608566  21.3911343
  80.3662567  68.3851852  26.9344120  80.5835114  67.4576187  27.0274353
  80.4276657  68.5524139  25.9939365  67.6994095  47.2047348  81.4993744
  67.7708740  46.3708496  81.0348740  68.3029099  47.7878571  81.0389481
  44.7733345  56.4953880  76.7082291  45.6772461  56.7497940  76.8938370
  44.3076630  56.6490211  77.5302887  63.9335518  63.0661011  77.7020264
  64.0549545  62.9969597  78.6489792  64.1572418  63.9740562  77.4975433
  20.9781075  21.2635422  80.1013794  20.1853657  21.6255417  80.4972916
  20.7785835  20.3365822  79.9703598  75.8246384  59.3150826  49.0343285
  76.2633972  58.8373642  48.3304062  75.6158600  58.6446724  49.6848640
  15.9800653  37.7434006  39.4383430  15.3658409  37.0119972  39.3750458
  15.4246712  38.5119514  39.5691109  54.1828651  26.3573761  81.6492386
  55.0841904  26.5942020  81.4307022  54.1885033  25.4008617  81.6849976
  85.8645859  66.9038620  64.0134354  86.7712860  66.5992813  64.0502701
  85.8759308  67.6125336  63.3700943  23.4777908  64.2181396  40.5298042
  22.5569630  64.0800476  40.3079109  23.8519821  63.3375664  40.5581703
  63.3966980  38.2552185  10.6055460  62.5258064  37.8585014  10.5855846
  63.7361221  38.0442276  11.4753199  84.7227631  26.3366795  62.3348236
  85.4724655  26.6447372  61.8256264  83.9972687  26.8945961  62.0544319
  82.0810699  34.6706390  87.3571548  81.1907196  34.8420982  87.6639175
  82.4927139  35.5340881  87.3219528  52.6510963  34.8674774  13.4612322
  52.8632927  35.7736626  13.6849222  52.1583023  34.5437431  14.2152739
  30.1834297  65.4468536  44.1711273  29.7006378  65.9076157  44.8573036
  30.3155804  64.5659485  44.5215187  20.0412579  63.9197044  28.4519386
  19.1270447  64.0132904  28.1841984  20.1426582  62.9857635  28.6355324
  31.4503307  31.5106239  44.0918159  31.2666702  31.2321167  44.9889946
  32.3646278  31.2666416  43.9477081  10.2545214  42.0262489  24.8773804
   9.5651474  41.5672913  24.3974285  10.2563400  42.9093094  24.5080109
   3.4684958  64.8311310  22.7680607   4.1766658  64.3396835  23.1842480
   2.9783244  65.2094650  23.4980087  86.8318329  11.8323059  53.0524788
  86.0023117  12.1991482  53.3583488  87.5008698  12.3178864  53.5349998
  18.3934917   5.5761070  84.4969101  19.0709190   4.9926143  84.8387604
  17.5983257   5.3194199  84.9638672  46.9370232  31.7125454  62.1581802
  46.8200455  30.9000187  62.6504707  46.3294754  31.6363983  61.4224319
   3.5714979  45.2500229  31.0850182   2.8517690  45.3009453  31.7140083
   3.9395096  44.3756256  31.2124157  37.9381828   5.1422729  11.1588430
  37.7583923   6.0114341  11.5172653  38.7674522   5.2427740  10.6914663
  38.8870277  43.3608360  18.3869896  38.8023643  42.9516754  19.2481823
  39.1269531  44.2681160  18.5754166  39.0606956  35.1379776   4.3285751
  39.1173363  34.9797707   5.2709098  38.1772308  35.4817352   4.1961002
  42.4679756  59.1598015  88.0146637  42.6802025  59.1472130  88.9479599
  41.7833939  59.8238907  87.9336472  77.6291580   1.3494878  15.0526981
  77.2895203   0.5657471  14.6206875  76.9230042   1.6261008  15.6367083
  50.8024139  39.2667580  45.9424210  50.2491264  39.1583824  45.1688843
  50.3593102  39.9377251  46.4617386  69.6151276  57.8142357  45.2107162
  68.7671738  58.2445717  45.3203125  69.6088257  57.4992676  44.3068428
  46.4421959  20.7542706  16.5250320  46.2678528  21.5798798  16.9769249
  46.9995499  20.9986706  15.7862101  15.6749420  63.9441223  15.7255554
  16.1108265  63.6191444  14.9377575  16.3901463  64.2242432  16.2967339
  38.5539284  32.8383141   9.5410643  38.2432938  32.2483444  10.2278500
  38.2382774  33.7021065   9.8065023  60.1291122  37.2248650  88.2967834
  60.0961952  36.3018684  88.5482254  60.8534088  37.5865479  88.8074875
  59.8120537  58.1694756  25.8607750  59.7791100  57.3256912  25.4100227
  59.7152977  57.9499397  26.7874222  15.9453735  67.7422638  60.2796669
  16.1328583  68.0403214  59.3895836  14.9951286  67.8212204  60.3635216
  21.8512402  31.3963833   4.4578643  21.3220673  30.6574574   4.7581916
  21.5170078  32.1461143   4.9502263  54.7393990  16.6256409  73.5315552
  55.1094475  17.5027962  73.4320679  55.4382401  16.0370827  73.2461548
  14.1628017  52.9607315  82.9576721  13.5552378  52.7045288  83.6515427
  13.8814955  53.8402863  82.7057114  55.4521675  69.0525818   0.3716595
  55.5106010  68.1679077   0.0108644  55.7630348  69.6199646  -0.3337963
  39.9483261  53.2470131  26.2292233  40.3974724  52.4333725  26.0001278
  40.6516075  53.8882637  26.3313179  48.9344826  68.6672974  39.5615654
  48.6561852  69.4248581  40.0762367  49.8651085  68.8186874  39.3964920
  80.9194107  44.6801720  84.3279495  79.9957581  44.6535187  84.5777130
  81.2794952  43.8552513  84.6536407  46.5523987   2.7047799  33.2481537
  45.9554024   3.1372855  32.6376114  46.3872070   3.1326783  34.0883026
  11.5524225  66.2694092  50.1728249  11.5081577  66.5529099  49.2596436
  10.7095747  66.5285873  50.5452003  55.1842003  29.0588703   7.3548932
  55.9577484  28.7265282   7.8103080  54.5563431  29.2442455   8.0532188
  54.2758560  11.4206400  29.1944485  54.6977692  11.4622097  30.0526409
  54.2935638  12.3227530  28.8749008  55.9342651  18.7740517  52.9295387
  56.2748489  19.6361580  53.1682968  56.0176010  18.7391071  51.9766121
  40.5296745  45.8542290  38.3958054  39.6571846  46.0111084  38.0347137
  40.3697929  45.3750038  39.2088318  45.7318077  20.2353687  43.7582359
  46.5503387  19.9680004  44.1762695  45.2767029  19.4134102  43.5752182
  17.1792717  58.8190880  44.5219727  18.0260372  59.2637405  44.4832077
  16.8203316  58.9100761  43.6392975  40.2035065  70.6254425  66.9079666
  39.4939079  70.8484879  66.3055115  39.8037758  70.6717453  67.7764740
   5.5128489   7.1966381  33.0794792   6.1159687   6.5380988  32.7347984
   5.4407721   7.8452630  32.3792496  65.7479553  25.9191589   2.0148029
  65.9341278  26.0664730   1.0875117  66.5811310  25.6244583   2.3825014
  72.4053421  34.1184006  14.1589355  72.9718933  34.5522804  14.7968998
  72.1164017  33.3193130  14.5996246  35.6776123  47.7167587  10.8577871
  35.7359314  48.1614571  10.0121679  35.2712708  46.8735580  10.6574526
  53.6060333  46.9329491  19.5954857  53.8559380  47.6510544  19.0140133
  53.5676804  47.3311729  20.4650726  63.0354462  23.7557411  41.8599930
  63.6500549  23.2286148  41.3494759  62.7238579  24.4213371  41.2467041
  21.7521610   4.9480319  56.1717072  21.2365971   4.3771529  56.7413788
  22.2324181   5.5165758  56.7736588  15.9021187  50.3989220  66.2321777
  15.4241514  50.2517319  67.0483322  16.6446571  49.7965813  66.2774963
  28.8691559   4.7602038  12.2580681  29.7101994   5.1638780  12.0437679
  28.3810081   4.7722502  11.4347839  23.0021172  50.4497566  84.4795914
  23.4821033  50.5528870  83.6578827  22.1774845  50.9138107  84.3351517
  82.4398499  20.1164017  29.1190758  81.9947433  20.9177780  29.3945999
  81.7314072  19.5206146  28.8753986  30.4989014  36.2689247   6.9685864
  30.6204395  36.1473923   6.0269442  29.6317616  36.6662407   7.0488534
  76.4641953  60.2822533  45.6673813  76.5700760  60.9648438  45.0047379
  76.7558670  59.4802628  45.2338257  72.9782867  10.4825792  80.4326019
  72.6995010  11.3211060  80.8005524  73.9346161  10.5191689  80.4507370
   5.4862823  71.2607269  66.9199219   4.6765332  71.1552200  66.4205170
   5.2336087  71.0838089  67.8260574  77.9369888  21.0066986  19.6450577
  77.0874405  20.6142006  19.8461685  78.2418900  20.5340137  18.8705673
  62.9699402  69.8478317  24.0660763  62.2429543  69.2811737  24.3241940
  63.5615234  69.2725143  23.5810337   7.7002797  26.8685799  81.7831955
   7.0747828  26.1782284  82.0031967   7.3662276  27.2436790  80.9683762
  83.0126801  59.9422035  45.8824921  83.2539444  59.0339394  46.0643654
  82.6583252  59.9224815  44.9935188  36.3428421  52.4067917  46.2852898
  36.5797958  51.5795059  45.8661461  36.9544182  53.0450897  45.9181633
  25.6982689  32.6342735  77.8501892  24.9232960  32.0802269  77.7570190
  25.8382225  32.6933861  78.7952576  85.4821625  37.2827339  68.5473022
  85.7424545  37.2361794  67.6273499  85.3045197  36.3746071  68.7922058
  19.4216652   5.6300726  87.8646240  20.0224171   5.7150078  88.6049728
  19.9271297   5.1646576  87.1981964  62.1338463  13.6053343   5.5535898
  62.3592873  13.3025494   4.6739717  61.8065414  14.4954443   5.4239435
  68.2638855  54.1310806  81.5815353  68.7017288  54.0063629  82.4235382
  68.9784393  54.2274742  80.9519653  40.2479706  54.4017906  57.3441696
  40.7210426  55.2224693  57.2065926  40.7893639  53.7385864  56.9160500
  51.6620560  32.8811760  48.2804260  51.6915588  31.9628525  48.5488396
  51.0801849  32.8899994  47.5204430  77.0887985  71.3370590  71.0338745
  77.7697372  70.8215103  70.6017075  76.3201447  71.2373276  70.4722137
  54.4433670  26.0992908   6.7721786  53.6528625  26.6166630   6.6183600
  55.1482658  26.7455330   6.8136740  30.4231853  41.5395012  14.2600965
  29.6464367  41.2435341  13.7854414  30.4218655  41.0240555  15.0666599
  66.8224945  70.3402939   3.9619515  65.8869781  70.2023163   3.8135974
  66.8817291  70.6170883   4.8763413  15.5930958  10.0588799   3.0570524
  15.0277691   9.5049849   2.5186872  15.2100525  10.9331827   2.9856012
  11.6532965  28.2531700  72.1013947  10.8980513  28.7929173  71.8679199
  12.0178833  28.6750946  72.8793945  60.8330803  37.9950066  22.3275795
  61.1229439  38.9048882  22.3933487  60.9856300  37.6313934  23.1997871
  43.8504257  53.6357117  23.7882252  44.5552711  53.0313339  23.5555191
  43.2477074  53.1097450  24.3138847  29.0909634  70.8734894  70.1728363
  28.5673828  70.4292908  70.8397522  29.8605652  71.1913452  70.6449814
  86.0701828  31.4566536  78.2237930  86.5322876  32.2484055  77.9484406
  86.1604156  31.4458084  79.1766663  18.8799706  54.5428467  86.4363098
  19.0629463  54.3527603  85.5161896  17.9262943  54.6112251  86.4816971
   9.8456774  61.3893890  52.7396278   9.5421429  61.2826729  51.8381233
   9.5830030  62.2786789  52.9771080  65.2698288  36.4677582   8.0542498
  66.1412888  36.0736313   8.0923815  65.2981033  37.1743774   8.6993237
  51.5923195   3.2204289  31.8880482  51.1248474   3.6010630  31.1445293
  51.8915443   2.3679535  31.5718479  41.2339325  10.4071951  72.8394318
  41.1991959  10.1642408  71.9142303  42.1653214  10.5367126  73.0182419
  17.5847416   5.9455800  10.3450899  18.3124752   5.3788457  10.6009178
  16.8534241   5.6576705  10.8914547  11.6466503   4.2421331  20.0215569
  11.0020018   3.8036535  19.4662228  11.2099075   5.0442705  20.3080254
  49.6032600  62.1388512  69.2449417  50.1836472  62.1509018  68.4838638
  49.4222336  63.0618095  69.4227371  70.6832733  13.8055182  32.4632835
  69.9014740  13.7646866  33.0140610  70.9570999  14.7218256  32.5036545
  25.5544357  20.0416088  84.7863235  25.8516617  20.7044678  84.1630173
  25.8820763  20.3449783  85.6329956  39.5882912  55.7396240  23.9421005
  40.1878281  56.4236412  23.6439304  39.3024406  56.0322342  24.8074913
  35.6363525  62.1158714  36.5965958  35.1022720  62.1707420  37.3890457
  35.1747780  61.4890137  36.0396118  39.2460556   5.2036042  74.7670822
  38.3589935   5.2120357  74.4075241  39.1740761   5.6812081  75.5934830
  55.9729424  46.5756073  74.2735062  56.3621101  46.7248535  75.1351929
  55.2308769  45.9952545  74.4431076  80.5894699  42.2254448  59.7746201
  79.9737091  42.1733131  60.5056114  80.5926208  43.1507568  59.5296326
  38.7710114  59.1568298  37.3251724  39.6843529  58.9420204  37.1357155
  38.2655449  58.5161324  36.8249321  52.9880104  47.3500786  80.7497025
  52.6615982  47.3616447  81.6494522  53.9077339  47.6042862  80.8252869
  45.3765450   0.7526260  51.8972816  44.6551971   0.5090162  51.3171577
  46.1658516   0.5732720  51.3863411   9.5161457  57.2864876  13.7851944
   8.7914600  57.8680801  13.5553856   9.1231251  56.4141884  13.8145962
  76.1290817  59.7205849  78.8518600  76.6400604  58.9115601  78.8271713
  76.3658447  60.1280746  79.6850052  10.9350729  59.4688339  25.7797318
  11.1555748  59.1608047  26.6587811  10.3600922  58.7905121  25.4254627
   8.4941006  33.0159760  30.4607544   8.0743847  33.3298302  29.6597767
   8.8972902  33.7962036  30.8414307  47.2796021  68.3730164  65.7976608
  46.6228676  68.7153168  66.4040909  46.7745667  68.0737000  65.0416336
  36.5611763  35.2741547  72.8498001  35.9092903  35.1590042  72.1584167
  37.3976555  35.0865898  72.4239426  44.1208763  50.9680977  36.6306610
  43.5229530  51.7107964  36.7150269  43.8628693  50.3718452  37.3336143
  18.8276749  21.8930168  85.3057556  18.4073334  22.2275848  84.5135422
  19.6738491  22.3395367  85.3347549  12.0741854  19.8927841  86.8653412
  11.9926596  20.7209759  87.3382874  12.9843397  19.8744984  86.5695038
  42.8642578  36.6086960  86.5441818  42.7547073  37.3273888  87.1668396
  42.0350952  36.5767250  86.0670013  48.8352356  27.3144817  24.4631004
  48.4310074  26.7400875  23.8127899  49.2981682  26.7197437  25.0531960
  79.4391251  39.3306046  81.1403503  78.6670303  39.8259811  80.8670349
  79.6637650  38.7972527  80.3779144  13.0098534   2.5477040  70.5766068
  12.3333826   2.4929965  69.9016037  12.6329679   2.0943506  71.3307037
  16.5304108  15.9200106  11.1887655  17.1098480  16.0437679  10.4369888
  16.6653061  16.7005310  11.7261858  80.6809769  23.9284401  14.3408575
  81.4383316  24.0421638  13.7666559  80.9727707  23.2990170  15.0003366
  14.7777119  22.9408379  10.8228331  14.6166534  22.5881805  11.6980038
  14.4036589  23.8215961  10.8469448  39.0432014  50.1993179  40.3232346
  39.3684654  50.2105522  39.4230614  38.4839630  49.4236641  40.3661690
  16.7871571  17.9115505  55.3545799  16.8952808  17.8305511  56.3022003
  16.4389858  18.7941246  55.2278137  46.8744316   4.6331320  26.7682228
  47.3830414   5.1413870  26.1363831  47.1783142   3.7329738  26.6515961
  57.2729836  41.7012100   0.0670267  56.4502716  41.2313080  -0.0692360
  57.3944550  41.7011070   1.0164882  59.1041374  41.9241104  82.6581573
  59.2496605  41.1635666  82.0954590  59.8361168  41.9094009  83.2747726
   4.0052581   2.4090528  53.1641541   3.1852205   2.9027824  53.1650047
   4.1544313   2.1908863  54.0841446  55.6565475   2.3096042  43.3100586
  56.0234108   2.0179713  42.4754372  55.4809151   1.5004286  43.7902870
  61.2498322  66.4952393  86.7186813  60.6822243  66.7660294  87.4402924
  60.6855125  66.5245972  85.9460754  47.8738251   3.5690217  41.7637444
  47.7538185   2.7793608  42.2912560  48.7982521   3.7919455  41.8731422
  47.2322578  11.3901014  18.2120380  47.8239212  10.6897364  17.9369755
  47.8049164  12.1422758  18.3621273  61.1508408   8.0676184  22.1668148
  61.1769829   7.1410198  22.4054852  62.0701523   8.3319473  22.1317577
  83.0832596  58.3416557  78.7797012  83.6610489  58.3573952  79.5426788
  83.2435074  57.4889259  78.3754578  31.8736134  59.3325081  75.3058777
  31.7032948  60.2000732  74.9390640  32.1050224  58.7937813  74.5492706
  33.9957275  14.1335554  80.4104996  33.8724442  13.5021534  81.1192780
  34.8194275  13.8731003  79.9982986  29.3734360  20.6303444   3.8365793
  28.7004509  19.9500294   3.8588459  30.1915531  20.1636143   4.0071154
  80.9839096   1.8747447  10.9052668  80.4671097   2.6098940  11.2349758
  81.4607925   1.5546949  11.6710205  45.0024948  43.7653656  23.1974697
  44.2225800  43.4738159  23.6696606  44.6732597  44.0537109  22.3461819
  49.8189774  53.9766884  18.4150887  49.8122253  54.6079254  19.1346226
  49.1824188  54.3208733  17.7885437  76.3861237  20.1175194  32.2664528
  75.9480209  19.4304829  31.7641830  77.2784958  19.7932854  32.3880386
  53.9693642  35.8931389  46.1015701  54.8570557  36.2427444  46.1791344
  53.7074394  35.7025909  47.0023041   5.8110723  30.5049820  46.9710999
   6.0867348  29.5891800  47.0104904   6.1904769  30.8344822  46.1564102
  62.5678291  10.8303013  29.7852764  63.2011414  10.3181648  29.2824230
  62.9488182  11.7073860  29.8277493  63.6833076  12.0229874  21.3502140
  63.3289452  11.1470356  21.5030766  64.6297760  11.9189157  21.4481678
  65.7083054  32.2593079  31.6583557  65.5529633  31.5094490  31.0840626
  65.4909439  33.0213165  31.1213951  69.5593414   6.9801974   1.5405639
  68.9618759   7.0334997   2.2865043  70.2669601   6.4097724   1.8407550
  14.9704571  25.2232018  69.6253281  15.2380486  25.8931389  68.9961929
  14.3209887  25.6587772  70.1773224   0.2310185  58.6776314  25.9103909
   0.9270527  59.2026787  25.5153046  -0.2577572  58.3282242  25.1652431
  57.5602188  11.0283661   4.6133442  58.2293549  10.3439522   4.6215687
  57.8082619  11.5970879   3.8844674   6.3916531  11.4053116  76.0052567
   7.0317526  10.9652338  76.5645752   5.6408029  11.5619469  76.5778961
  77.6139984  38.0004501  54.3062973  78.4458771  38.0950279  54.7702599
  77.1595383  37.2973289  54.7703209  54.1715736  63.8977394  36.8920212
  53.7591324  63.4644127  37.6392517  55.0405655  63.5005264  36.8345070
  59.4862823  10.0997601  48.6417084  59.7488060  11.0186405  48.5872002
  58.8936424  10.0641174  49.3925362  20.9165802  47.0165024  23.3655052
  20.0820923  47.4437637  23.1723518  20.6715965  46.1627617  23.7223568
  55.0200195  14.7017517  12.4113541  54.5349312  14.3467627  13.1562710
  55.8236885  14.1827698  12.3796177  48.5714035  43.5094528   7.1977882
  47.8198166  44.0192413   6.8953495  48.6644173  42.8119164   6.5489244
  69.0007553  23.4061852  24.3035545  69.6256180  23.4646835  23.5808163
  68.6617813  22.5123138  24.2553501  79.8009338  15.3809271  13.9519701
  80.4894409  15.4260378  13.2885294  79.8216476  14.4739885  14.2573633
  66.2477341  26.4624767  24.4491730  67.0807800  26.2347565  24.8619728
  65.5898438  25.9941959  24.9631119  46.5727539  18.8671398  61.9760323
  45.6838799  18.8086662  61.6257286  46.5277596  19.5666103  62.6279106
  20.1614399  48.6693192  19.1902580  19.6178761  49.3904877  18.8729515
  20.9765244  49.0877113  19.4674168  24.7251701  64.6550751  15.6613150
  24.1155357  63.9334984  15.5066967  25.1741562  64.7728424  14.8241920
  15.5282230  38.1332970  19.7625885  15.4727287  37.8419609  20.6726856
  16.2999077  37.6864204  19.4146843  49.4573975  33.8512840  39.3387375
  48.5221977  34.0522499  39.3740273  49.4938545  32.9098434  39.1696434
  75.4849396  25.5205917   7.6593599  75.7933884  25.6777077   8.5517769
  75.8841171  24.6867085   7.4113059  26.7418537  66.7660294  66.3394699
  27.2716312  67.5266495  66.5782776  25.8877850  66.9345245  66.7374802
  12.8491879  57.5198860  56.1417274  12.7840910  57.6820183  55.2006073
  12.1906128  56.8472137  56.3149986  12.6563482  69.8383255  17.3479691
  11.8345556  70.1741409  16.9900322  12.9847612  70.5478745  17.9001598
  61.3422928  20.2840633  16.0303841  60.8514557  19.5192242  16.3309383
  61.9013748  19.9494686  15.3291674   0.1780891  23.4316711  42.2695198
   0.6244902  24.1632862  41.8432617  -0.6498728  23.8018322  42.5756111
  74.5036926  47.2648735   2.7697203  74.0912857  47.9116364   2.1971390
  74.9321518  46.6533699   2.1707895  64.2150726  14.3363409  71.2469177
  63.4651489  13.7482166  71.3361359  63.9519310  15.1318836  71.7096252
  17.1133385  28.0150547   6.8682432  16.4571609  28.6171246   7.2192087
  16.6187897  27.4295635   6.2947841  30.4299812  51.0220299  76.0100174
  30.5340729  50.3561516  75.3303070  31.1727276  51.6122704  75.8828201
  34.2055817  43.7157936  82.6457138  33.6439133  42.9551544  82.7946625
  35.0951691  43.3842506  82.7679672   2.0569210   5.7681437  18.1502686
   2.3075562   6.5868044  18.5782967   1.2247480   5.9672031  17.7212048
  13.7107124  65.5254745  70.6840591  13.6698294  65.3978424  71.6318283
  14.6199036  65.3323288  70.4553680   9.3452129   1.1747346  20.1631489
   9.4058285   2.0063002  19.6929817   8.7759390   1.3624711  20.9094143
  14.0038052  26.4788017  73.5366058  13.8258429  26.0704994  72.6893463
  13.4244795  27.2403622  73.5618744  54.9257965  -0.0138276  36.6659317
  54.8456383   0.2982644  37.5672684  54.3140717   0.5294441  36.1690636
  65.8281250  24.2944107  39.5335999  65.1080704  24.1780663  38.9137535
  65.7975769  23.5130177  40.0856209  76.8244247  63.7863579  80.6348419
  76.6184921  63.7531357  79.7006454  76.2375031  64.4561081  80.9858170
  35.7788239  59.5131798  12.1768904  35.1805458  58.8622971  12.5438337
  36.2580948  59.0410194  11.4960136  68.5683975  12.1262741  74.5864792
  68.9930954  12.7182055  75.2073517  69.1898041  11.4062366  74.4786377
  48.9853745  60.0249786   3.7319942  49.4015427  60.7605553   3.2825873
  49.6223602  59.7577553   4.3946195  78.6946716  24.0622158   3.6171741
  77.7879181  24.3602161   3.5448313  79.0082169  24.0275497   2.7134495
  47.9413681   0.9412108  50.2436676  48.4670715   0.9029429  51.0426674
  48.2650223   1.7140168  49.7807961   0.6125016  39.6413193   6.7940211
   1.4457295  39.2348824   7.0322928   0.5521470  40.4123268   7.3580561
  19.2155914   7.1533251  20.3700256  19.6458378   6.3013077  20.4420395
  18.4658051   6.9952950  19.7963696  33.9570694  56.7842026  51.7956390
  33.8706398  56.5682068  50.8671417  34.0061684  55.9354362  52.2354317
  79.8806458  45.0903358   9.4292040  79.1568375  44.7611961   8.8962927
  80.4780884  44.3465652   9.5073271  49.1474152  17.5250149  88.1526718
  49.7994728  16.8444195  87.9858017  48.6674118  17.2138290  88.9201279
  86.1950073  22.5853500  39.1676903  86.7001419  22.1588192  39.8598862
  85.3102264  22.2333946  39.2652893  68.5552826   6.7066188  17.7374344
  69.0241318   6.6486373  18.5699291  67.8796310   6.0310793  17.7955132
  31.2868652  47.7314301  85.7000885  31.8059082  46.9908409  85.3864746
  30.4069748  47.5681534  85.3604355   9.0667191  63.3180428   6.3480663
   8.3992910  62.9201622   6.9070506   9.5658932  63.8840790   6.9368443
  35.5066299  63.2703133  43.8828506  34.9478722  63.8287163  44.4234123
  36.2089043  63.8493156  43.5865402   1.9819931  13.6749563  60.2121620
   1.7945749  13.4796762  61.1302986   2.7658310  13.1627350  60.0135193
   2.1270945  68.3550262  60.8121605   1.9093212  68.9028702  60.0580559
   2.6119955  67.6180420  60.4407387  83.2184067  18.5863037  65.6125183
  83.5263138  17.6855049  65.5125809  82.3686218  18.5023613  66.0450134
  39.0719337  32.1128120  80.1317520  39.5184746  31.9574242  80.9640274
  38.6690369  31.2719059  79.9154587  27.8739395  51.1403160  24.4166508
  27.1745205  51.1593323  23.7634392  27.4164200  51.0943604  25.2561722
  76.5027313  19.9212799  81.9163132  75.6815567  19.9038467  82.4078369
  76.8526077  19.0345383  82.0029678  84.1226044  12.6461916  41.4494209
  83.1774368  12.7638168  41.5445633  84.4654999  13.5341377  41.3484077
  85.2088470   3.1495898  59.2002602  84.8095474   4.0162783  59.1251488
  84.4753189   2.5400548  59.1188316   7.9302745  34.2093964  13.4584560
   7.3812456  34.3109245  12.6809654   8.0370922  33.2630157  13.5543165
  41.0217514  62.5991669  47.9107895  41.6640549  61.9096069  48.0786667
  41.0467911  62.7240028  46.9620972  53.7219734  10.1454353  35.6284103
  52.9291496  10.6503153  35.8094101  53.4712410   9.2371740  35.7970123
  80.7636948  17.8287411  31.0449677  81.4110641  18.1648445  30.4251442
  80.8333282  16.8769131  30.9714470  17.7466698  44.5220337   1.6126579
  16.8927345  44.9540291   1.6328317  18.0314617  44.5116119   2.5264504
   2.4163513  62.0220299  29.8005867   2.7428093  62.0734138  28.9022465
   2.6175356  61.1282043  30.0777760  40.7450066  55.2498207  68.9355392
  40.7385712  54.7726860  68.1057587  41.2801437  56.0243263  68.7623215
  64.8157959  38.5094681  31.9014759  63.9414062  38.1222229  31.9428921
  65.0776825  38.6080666  32.8168602  23.3844624  56.1133156  18.0334072
  23.4594173  55.6349335  18.8590984  23.1123924  56.9941978  18.2908039
  35.0105820  16.5792809  84.3181000  34.8691368  16.8457756  85.2265091
  34.3653679  17.0795937  83.8184814  43.5361252   2.3959801  24.6976528
  44.4596825   2.1564171  24.7743416  43.4351273   2.6720049  23.7866955
  58.5807457  18.1198063  74.8013916  58.5400658  17.3048801  75.3018646
  59.5128784  18.2455025  74.6237411  73.3401260  36.3306618  38.5992622
  72.7302322  36.5015602  39.3169327  72.8423080  35.7907753  37.9853172
  57.2256241  39.5377274  15.2452040  57.7813606  39.8345222  14.5245781
  56.9785614  38.6446991  15.0050144  57.0022240  50.3554802  33.2090263
  56.7816391  49.4240456  33.2076263  57.9214592  50.3835220  33.4744530
  79.1986847  10.3994827  53.5524063  78.3233032  10.1784878  53.2344475
  79.6973724  10.6008034  52.7605667  28.2797508  64.7224274  65.6397324
  27.7069149  64.0127792  65.3490448  27.6843777  65.3752594  66.0079346
  32.3735580  60.9845886  11.3748093  32.2285423  60.0443306  11.4802656
  32.6331520  61.0856667  10.4590425  82.9618149  62.9402924  76.6678085
  83.7196121  62.7607079  77.2243347  83.3362503  63.2861214  75.8576050
  38.0201225  56.4604416  41.0442810  38.7927551  56.0499992  40.6559372
  37.7236290  57.0861855  40.3834000  74.2405548  53.3539467  36.0744667
  75.0569611  53.1183090  36.5151291  74.2690201  52.8757553  35.2457581
  54.4240189  23.3895054  40.1386223  54.0269890  23.1502914  40.9761009
  54.4434700  22.5722637  39.6406555   6.6863794   0.5583476  11.5713034
   6.2240863   1.3517629  11.8415051   6.1568627   0.2041643  10.8568811
  71.1836777  27.6119728  13.2604923  71.7296906  27.0062466  13.7616911
  70.7904053  27.0700054  12.5765047  50.1183586  27.0154438  84.1432724
  49.2561073  27.4136429  84.0241241  49.9324722  26.1010189  84.3565903
   6.6938148  40.6515656  68.1152954   6.5244803  40.7880020  67.1831207
   5.8246794  40.6276779  68.5156250  80.6797180  49.2601547  67.1401749
  80.1866608  49.4159660  66.3346710  80.1707993  49.6997490  67.8213425
  33.3507919   3.3976066  83.9385834  32.4165001   3.2372477  83.8058624
  33.7848663   2.6796746  83.4777298  19.2373466  38.0378876   6.9674664
  19.8531532  37.4050179   6.5980234  19.3214798  37.9290390   7.9147282
   0.1662819  37.9608994  56.5981140   0.4543893  38.8734970  56.5783043
   0.9767278  37.4551277  56.6581383  62.0827637  66.5438156  39.4705391
  62.4285698  65.6750259  39.6751251  62.7055779  66.9073868  38.8411407
  67.6579361  30.2413502  88.3926926  67.3932800  30.9275951  89.0052795
  66.8564377  29.7443485  88.2289352  32.1332245  38.9367790   9.9029989
  31.9007950  39.3271294   9.0604839  31.9613838  39.6278000  10.5426826
  67.5890274  51.7021942  38.5724297  66.8313446  52.2845802  38.6269569
  67.4192963  51.1598282  37.8021965  43.0644913  20.9892426  67.6671295
  43.4537048  21.8424206  67.8590469  42.1473732  21.0807972  67.9254837
  59.3893967  55.2672195  72.7508698  59.9218483  55.7187805  72.0960236
  59.4535789  55.8166695  73.5320358  47.2091751  36.9346504  22.5256920
  47.6171303  36.7290955  23.3668537  46.4021530  36.4199677  22.5187645
  28.4836197  55.1812439  13.0514650  27.9025116  54.6376534  13.5834951
  28.8467255  54.5791397  12.4019604  10.2589388   7.7525177  66.9175034
  11.0991364   8.2060928  66.8499146   9.9324913   7.9814596  67.7877045
  59.6715126  29.6722202   8.3201914  60.3659782  29.0535831   8.5465431
  60.1008034  30.5277176   8.3283787  36.6434479  41.8925934  64.4600677
  37.4613991  41.4088631  64.3452148  36.6906433  42.5992317  63.8161163
  41.3918610  58.5002289  36.5727539  41.9112816  57.8263817  36.1341553
  41.6168938  59.3109703  36.1163712  14.5648260  45.3941956  20.4561157
  13.7516766  45.8598900  20.2607937  14.9392281  45.8673172  21.1992245
  51.1072350  45.8620224  29.3729076  50.5973701  46.6301765  29.1156006
  51.7778320  45.7814789  28.6946411  59.1388283  69.5304184  40.9419403
  60.0246887  69.8555908  40.7815056  59.2318192  68.5778122  40.9536209
  54.9628754  71.6155319  58.5131989  54.0262451  71.5483551  58.6987877
  55.2106972  70.7413406  58.2121735  78.3888321  10.8712940  37.4977951
  78.1831284  11.5455351  36.8502502  79.3342133  10.9450722  37.6283455
   5.8176198  60.0397797  52.1821785   5.2502213  59.4345284  51.7047272
   6.4766893  59.4785080  52.5906296  64.8160553  21.4348717   8.2312765
  65.1536255  20.5429916   8.1486330  64.9232941  21.8133717   7.3586540
  81.1075668  61.9452209  15.8088207  80.2931824  62.2456093  15.4053574
  81.2670746  62.5675316  16.5184097  55.5270004  69.8834915  46.9473572
  56.3756447  70.2597504  46.7139816  55.5345306  69.8505249  47.9039612
   9.7633553  62.1328621  63.7904778  10.6225395  62.4496803  64.0691528
   9.3771715  61.7595940  64.5827942  24.8562450  44.3458443  57.8801842
  25.6695118  44.7328224  57.5560303  24.7784309  43.5187073  57.4047737
  64.7890854  29.3979969  16.5012875  64.3994675  29.8477840  17.2510357
  65.3609543  30.0524006  16.1000919  59.1969643  59.5177917   0.8799034
  58.8354721  60.2921677   0.4487441  59.6097031  59.8567009   1.6742716
  81.4444580  71.4213409  30.6590958  82.2313232  71.8057480  31.0454960
  81.7526321  71.0012894  29.8560905  33.7945061  28.2062130  84.0345154
  33.3944511  27.7309341  84.7627258  33.0528526  28.5523052  83.5381317
  69.3402328  57.8112068  30.5440445  68.5065002  57.6139679  30.1171722
  69.6276398  58.6305618  30.1411934  67.3354950  65.5417938  19.3908844
  66.8837891  65.1044006  20.1126060  68.0540009  64.9510956  19.1649303
  68.6176987  34.0088310  57.1766624  67.7747345  34.3190460  57.5074387
  69.1811142  33.9764137  57.9498024  48.7957039  40.4009285  14.6489687
  48.1925545  40.7753601  14.0069075  49.4543915  41.0820961  14.7845106
  30.5425339  46.5608826  13.9169617  30.6725483  45.7249756  14.3648329
  29.6431808  46.8095970  14.1303501  42.7627373  57.1500969  34.7606850
  42.0837669  57.2092819  34.0885811  43.5004768  57.6417694  34.3998108
  23.8801498  18.9578724   0.7171786  23.1189480  19.4290733   1.0559601
  24.1367893  19.4476662  -0.0641464  71.6701584  44.3660278  41.8403015
  71.2175980  43.7114906  41.3083267  71.3703918  44.1975365  42.7336006
  69.8500671  57.5566711  81.6514893  69.6502914  57.1452065  80.8106461
  69.5787659  58.4681358  81.5425797  71.4458694  15.8834486  63.8363838
  72.0931549  16.4150829  64.2996445  71.9518051  15.1620359  63.4624596
  70.1664886  53.4837646  53.7472420  70.7385178  54.1931725  54.0400925
  69.5088043  53.9158745  53.2022972  68.5065994   9.0128412  48.6182747
  68.8643646   9.6153507  47.9661827  68.7353592   9.4073420  49.4598618
  75.9308777  29.4910145  46.5336723  76.2463074  30.2276382  46.0101051
  76.7166138  29.1429539  46.9552231   9.7222853  42.5492249  38.6374779
  10.2110291  43.2655716  39.0427017   9.3477068  42.9332008  37.8447113
   6.6897984  53.0064468  85.6730881   5.8675499  53.4963074  85.6597214
   7.3523445  53.6568985  85.9058456  82.5372772  25.1387939   5.5387964
  82.4374313  24.1873741   5.5714097  83.0440216  25.3534260   6.3219776
  66.1316910  34.4114609   5.6878963  65.7605362  34.4739990   4.8078027
  66.0812607  35.3028603   6.0330024  46.0105629  14.8467226  61.3451004
  45.4040489  15.3449564  61.8929482  46.6858940  14.5421743  61.9512405
  38.6786499  42.8183327   1.7494018  38.6963844  42.6200294   2.6856678
  38.1148453  42.1430092   1.3721817  44.8709373  65.9550781  88.0382233
  45.7452087  66.3220901  87.9071350  45.0063362  65.2225876  88.6393585
  55.4483223  65.4476471  50.6103020  54.8118477  64.8950653  51.0639381
  55.8171158  64.8812943  49.9324646  82.6223831  32.5602417   6.7549639
  81.9544296  32.3206024   7.3973408  83.3080597  32.9857445   7.2697754
   1.9566857  44.9631386  60.2010689   2.2558928  45.3514328  61.0232201
   2.1979113  45.6036606  59.5319099  38.8490906  67.4179611   8.6336164
  39.7321167  67.7868729   8.6537733  38.3848839  67.8691177   9.3387432
   2.3933775   0.7522449  62.4303665   2.3690307   1.0311333  63.3457146
   1.4836745   0.5416031  62.2198830  38.4552002  22.9251156  76.5419617
  38.1432495  23.6670151  77.0601349  38.5206566  22.2053070  77.1695099
  59.5964699  58.4328995  58.6717110  58.7722168  58.7240295  59.0616875
  59.3470612  57.7093277  58.0968475  57.8616295  14.0005770  56.3282242
  58.7127686  14.4133062  56.1817589  57.5428734  13.7909145  55.4503479
  55.1240654  47.9530258  28.4824810  54.8612976  47.8194275  29.3931599
  55.3318901  48.8857765  28.4275341  67.4321213   3.8933315  82.8295822
  68.1944656   3.6477385  82.3054199  66.7873764   3.2090619  82.6498566
  74.9142227  51.2971878  85.4213409  74.9079666  52.1962624  85.0929260
  74.1761093  51.2592392  86.0295944  58.7399635  36.9277840  41.1086311
  57.8074913  36.7524910  40.9821625  59.1411324  36.0605698  41.1655312
  24.6279755  42.4407082  37.4551010  25.4960651  42.7457695  37.1913109
  24.6634827  41.4908104  37.3425369  20.4535198  49.4750061  65.6912689
  20.8841991  48.6269455  65.5838394  19.5239468  49.2902565  65.5571213
  82.2992935  13.0218668  66.8865128  82.2857361  13.2857122  67.8065338
  83.0722427  13.4551144  66.5244675  24.4915771  62.4676361  69.3230133
  25.3012905  62.4662323  69.8334961  23.8656311  62.9444351  69.8680725
  32.1265755  29.2499866  12.3678179  32.2294769  28.3086452  12.2280998
  31.1860905  29.3713837  12.4981222  14.2490425  66.5984039  84.3710785
  14.1597242  67.1935806  85.1154099  14.1649218  65.7242737  84.7519455
  86.7362747   8.3602724  57.9003296  86.9720993   8.7974386  57.0820999
  86.4197388   9.0648146  58.4657135  38.3607903  12.9230299   9.0258627
  38.5966797  13.2492418   8.1574297  38.9146957  13.4207544   9.6272717
  64.8071747   5.4365091  77.8813400  65.4225464   4.9511094  77.3318481
  64.8445206   4.9954143  78.7300339  31.0987186  65.7812271  87.0213470
  31.3624973  66.3221359  86.2769852  30.8473587  64.9438171  86.6317444
  78.8788528  50.3691673  58.9675446  78.9682693  51.2306252  58.5599518
  77.9495544  50.3035049  59.1873817  66.6533737  56.3323059  54.6518059
  66.8089828  57.2377586  54.3831406  66.9036942  55.8099709  53.8897438
  82.8093185  43.0002861  29.1595383  82.7292328  42.0614243  28.9911461
  83.6316147  43.2499466  28.7379513  39.7774277  44.5871086  71.8189468
  39.6863861  45.5322495  71.6978836  40.4243736  44.3230629  71.1647491
  65.1483383  25.4069633  63.8377686  64.7492676  25.8377018  63.0818367
  64.4445877  25.3581314  64.4847488  17.7477417  21.2204227  25.2687149
  17.0049801  21.7012291  25.6339054  18.1967354  21.8584404  24.7141266
  51.3913269  31.7239971  86.2599106  52.1555481  32.1474419  85.8688965
  51.0416489  31.1695595  85.5623703  58.7555008  20.7432957  36.2290268
  58.9260178  20.0483150  35.5932922  59.2677269  21.4877052  35.9132538
  54.2982674  58.8121948  86.6939621  54.2687149  58.2703171  85.9054642
  55.1981583  58.7276917  87.0090637  31.9458179  32.3271713  78.7207336
  32.4257812  32.4545174  79.5390549  31.2835197  33.0182533  78.7214890
  40.6492081  10.2941284   8.9293242  41.5103912  10.7053003   9.0037527
  40.0900612  10.8010931   9.5180283   7.3844523  36.6974831  51.0099411
   7.7389688  36.3904381  50.1755104   7.0957727  37.5927200  50.8326263
  34.5135155  69.4589691  74.2431107  34.8282967  70.1692886  74.8022003
  34.7760086  68.6600266  74.7003021  43.4870491  53.6831551  78.3391571
  43.3994675  54.0944672  79.1990356  44.1862068  54.1750107  77.9084778
  53.9533463  62.2676697  87.7610397  54.2679596  61.4552345  88.1575241
  53.2863960  61.9860077  87.1348801  39.7388763  47.1029778  28.0161743
  40.2848434  46.6559067  28.6629200  40.2373505  47.0453300  27.2010460
  52.3666077  70.9913483  89.1674500  52.1326332  71.9163513  89.0909805
  51.5607033  70.5218582  88.9521942  74.5329132   4.2249379  25.9855080
  75.2200394   4.8721366  26.1443348  74.7712936   3.4816582  26.5395317
  85.1065674   0.1149531   5.2944307  84.9629822  -0.7295974   4.8674059
  84.3889313   0.6661936   4.9823875  77.0463791  38.4715576  48.6719780
  77.0293121  37.9612427  49.4816170  77.4566269  37.8906364  48.0313072
  28.1789303  47.1952934  21.4280033  28.4251823  46.7837410  20.5996208
  28.8460178  47.8670464  21.5693302  63.2636719  43.0229836  59.3739586
  63.6700058  42.1767807  59.1866875  62.5633965  42.8203659  59.9942703
  71.5435791  12.3655415  73.7575760  70.9447327  12.6258793  73.0576935
  71.3302612  11.4477921  73.9262924  41.0352936  39.7005386  85.8923187
  40.1385727  39.9022865  85.6250687  41.0577049  38.7455940  85.9540787
  37.6269875   0.9281134  48.7580147  36.8188248   1.4393358  48.7160759
  37.3416367   0.0201744  48.6557770  30.7435474  56.8831673  44.3637581
  31.2374916  56.2610474  44.8978157  30.8176174  57.7138252  44.8335991
  11.6796427   5.0192084  72.7689972  12.4151964   5.4468427  72.3304520
  11.5091314   5.5641947  73.5372086  33.0449562  44.2323341   3.0819836
  32.2171745  43.9540596   3.4738719  33.6230621  43.4758720   3.1809478
  36.8185043  25.9116421  72.6846085  36.9340820  25.0362740  73.0542068
  37.5402794  26.0064220  72.0630875  27.7785397  58.9512520  69.6886673
  27.2311687  59.2825890  70.4005890  27.1877842  58.4110794  69.1638260
  77.1601334  40.2256813  18.7020264  77.8567581  40.3781776  18.0635166
  76.3559418  40.2223053  18.1828957  75.0658340   2.9527705  33.7441177
  75.7173767   3.4398761  33.2396812  74.9697495   3.4510977  34.5557022
  37.0513573  51.7015610  55.8365555  37.8874474  52.1675911  55.8389511
  36.3909416  52.3944206  55.8420525  42.7143097  44.7272301  72.7247925
  42.4180527  45.2640038  73.4598618  42.4208565  43.8421364  72.9409561
  14.8174391  22.7354012   7.8616347  13.9636269  22.3445530   7.6759624
  14.8125286  22.8834610   8.8073015  34.4643364  41.4783287  25.7616081
  34.7771835  41.5209541  24.8579807  33.8639488  40.7329063  25.7722931
   5.0287681   3.4300432  10.0747747   4.0733762   3.4638765  10.1228695
   5.3225012   4.1440334  10.6406116  78.3883820  43.8612938  11.8590240
  79.3404465  43.7786217  11.8045177  78.0808716  42.9732628  12.0408821
   6.7905402  15.2637730  84.5045624   7.2829566  15.5889091  85.2582474
   7.1443386  14.3884554  84.3468323  28.9627304  63.5557022  77.0031586
  29.0630608  64.3964386  77.4496231  29.8522129  63.2065125  76.9473267
  49.1304054  17.5037556  30.8516235  48.9116249  18.3840656  31.1572723
  48.9901085  17.5370083  29.9053459  47.7123985  56.7795868  71.6034088
  47.1696281  56.7674179  70.8150635  48.5967445  56.5929680  71.2882309
  79.0523758  50.7400436  86.9581451  78.7980118  50.3648033  87.8011932
  79.7121429  51.3977623  87.1780167  33.9086113  61.7858200  13.8105526
  34.1282501  61.1951790  13.0900450  33.2631721  62.3871651  13.4390354
  49.5915718   7.6200142  56.2787094  49.1318207   6.8878875  56.6896210
  50.0702095   8.0352554  56.9961433  13.4182291  57.5173187  21.4029903
  12.5799398  57.8839188  21.1217270  14.0173702  57.7083130  20.6813374
  81.1714096  17.6785240  28.1702194  81.3664398  17.3619442  27.2881908
  80.2766647  17.3829288  28.3383999  74.8198776  44.6444054   1.9090108
  74.8913422  44.2822914   2.7921872  74.1311340  44.1262016   1.4926838
   1.0806967  45.2231941  64.1886826   1.2093689  45.3339539  65.1307068
   0.7976012  44.3140602  64.0908737  32.9338646  66.7104263  63.6825714
  33.6941032  66.7210922  64.2640762  32.4064407  65.9737396  63.9913635
  38.8901291  60.9371109  74.7387085  39.4401665  60.1591949  74.6462936
  39.3523026  61.6168785  74.2482605   1.9649006  42.0983429  64.5284500
   1.0086378  42.0859718  64.5689468   2.2285779  41.2281990  64.8277130
  62.8952713   6.6945553   6.4368572  62.7131691   5.9770360   5.8300323
  62.0485802   7.1231499   6.5619693  79.8610916  51.9997902  26.9932728
  79.0440674  52.4814339  26.8639431  79.9092484  51.8593941  27.9388962
  79.1293945   0.6031856  23.3609352  79.7922287   0.0675123  23.7967491
  79.2314377   1.4725548  23.7482548  84.6918488  65.0910339  31.3143063
  85.0800552  64.3062057  30.9275627  84.8241882  65.7730789  30.6558685
  55.6431694  25.5694714  36.6208153  55.1284904  24.9139328  36.1500664
  56.5532455  25.3205395  36.4594765  74.8269958  28.7676716  58.0273705
  75.5291138  28.1172142  58.0143204  74.3720779  28.6124706  58.8551369
  62.7322693  31.7249584  68.7422409  62.6370735  30.9874763  69.3449707
  61.8904572  32.1786499  68.7840347  43.9679604  19.8386631  19.6750202
  44.8810005  19.9416618  19.4067268  43.9005890  18.9240265  19.9491196
  62.8632469   1.4753613  65.2911835  62.4340591   1.4756223  66.1467667
  63.6311302   2.0347216  65.4082489  60.0547371  40.9546928  89.1410370
  59.3218536  41.4925156  88.8412704  60.7445145  41.1085434  88.4954605
  10.5147266  12.0973034   8.3925323  10.7339077  12.9910641   8.6559372
  11.3600941  11.6534786   8.3246679   4.3398476  37.3987160  46.1665955
   3.5569241  37.3138428  46.7107086   4.9477916  37.9108009  46.6998940
  72.3159103   0.2965852  76.7827606  71.7918777   0.0777340  77.5532990
  73.2176895   0.1137854  77.0465927  20.9902782  44.9633331   5.7014484
  20.5461464  44.5702400   6.4527512  21.6140976  45.5785332   6.0869508
  38.2746582  30.3604565  21.6048813  37.5563316  30.9917145  21.6467419
  38.3095207  29.9787846  22.4820042  19.1621342  53.3658981  76.9385071
  18.4044724  52.8159523  77.1378479  19.2051029  53.3769913  75.9823380
  22.4598827  61.1926270  24.4288139  22.1063519  60.8736229  23.5984631
  21.6976433  61.2588730  25.0039959  63.1178741  13.6084576  40.2262878
  62.6048393  12.9501171  39.7576599  63.7759285  13.1036873  40.7042046
  73.5151138  53.3993874  75.7282028  73.2483826  53.6635132  74.8476791
  73.3538361  54.1723366  76.2692871  65.4442978  55.3825874  86.3024750
  65.4705582  56.0637093  85.6304474  64.7533035  55.6641731  86.9020233
   7.9540963  21.6948395  14.7527056   7.5662761  22.5637627  14.6487904
   8.6432133  21.6592293  14.0893192  15.7125502  44.1487236  23.0105228
  14.8656874  43.9360428  23.4027252  16.0375481  43.3133469  22.6747341
  14.9211607   7.7326870  18.3667946  15.1845846   8.4992924  17.8577213
  14.0093441   7.9035649  18.6026382  65.5782471   7.5688338  27.0760078
  64.8250504   7.3899169  26.5130558  66.2192459   6.8987737  26.8385906
   4.7912722  31.0797157  65.5437088   3.9591961  30.6066494  65.5532532
   4.5475225  31.9957561  65.6767044  23.4796658  50.0807457  42.4354477
  24.2180347  49.9451675  43.0293007  23.6217117  50.9549408  42.0723572
  62.4968071  13.9756298  23.3325863  63.0117493  13.1948051  23.1291676
  62.5268059  14.0403547  24.2871227  17.4782848  30.1087456  81.9371872
  17.1647263  29.6366882  82.7086029  16.9326344  29.7853622  81.2203064
  25.9133129   0.3588459   0.7519533  26.4676247   0.5387255   1.5113049
  25.3820343  -0.3923876   1.0158157  64.3716583  21.1125164  13.9400358
  64.6881027  21.3173161  14.8198938  65.1659241  21.0391102  13.4108963
   0.2823806  70.5299911  48.0108452   0.9515212  71.1070709  47.6427956
   0.6532105  69.6512451  47.9301224  32.5685806  16.9383278  72.1771927
  33.0092468  17.4685936  71.5132141  32.4032326  16.1009388  71.7439804
  49.0277367   0.8097478  10.9677401  48.7839203  -0.0122264  10.5421305
  49.4109154   0.5424252  11.8031712  48.8087578  31.9758148  25.4918938
  48.1460304  32.2186623  24.8453255  48.6775017  31.0375671  25.6286125
  78.9676971  64.1362305   5.3831520  79.3002243  63.3438263   5.8047609
  78.0644302  64.2103577   5.6911225  30.6689930  23.4100475  73.6609116
  29.8311672  23.0804558  73.3358765  31.2002792  22.6248569  73.7929840
  86.2403717   8.0851269  79.3334503  86.7822266   8.4977436  78.6608734
  86.5383453   8.4766054  80.1545410  55.0644531   5.1504917   8.1998730
  54.3520164   5.4963489   7.6622405  55.3195381   4.3368874   7.7648892
  53.0676270  46.6535530  38.8986053  53.0180054  46.9022102  39.8216095
  52.6669121  45.7850113  38.8626633  81.9368134  38.0320778  61.4412880
  82.8850174  38.1450539  61.3751221  81.7981567  37.0932732  61.3161774
  45.6337471   0.8335786  61.3900337  45.2784729   0.0331880  61.7765388
  44.8732681   1.4043176  61.2797546  23.3801708   2.5456452  80.1749573
  22.6402340   3.0321996  79.8116531  23.0581760   1.6482465  80.2599716
  76.0205536  42.7027702  62.6110077  75.8524246  41.9908829  61.9936104
  76.0449295  43.4903679  62.0675697  28.1273556  68.1526260  36.3232422
  28.4894066  68.7252350  36.9994583  27.4943428  67.6046219  36.7871666
   7.9504476  38.3828659  36.3558617   8.8645763  38.1504974  36.1927452
   7.7233109  37.9127655  37.1581383  22.2683029  28.3183918  85.1986237
  21.4963970  27.7567616  85.2690887  22.4768791  28.3227272  84.2644348
  66.2358475  22.5571289  67.4666138  66.2349396  23.3717175  67.9692841
  66.1793289  21.8674889  68.1279984  52.1824532  63.1011696   3.7559490
  52.0614204  63.7297707   3.0443013  52.9482002  63.4226837   4.2318630
  54.2173309  23.2958679  28.9311275  53.7308693  22.4737778  28.9923973
  54.0598488  23.6013508  28.0377579  38.7629051   9.6238441  37.0456314
  37.8918686   9.2361441  36.9606895  39.0131226   9.4540443  37.9538116
  68.2676163  58.9673004   6.4488168  67.7353821  59.7119026   6.1685882
  67.9107361  58.7260056   7.3035955  27.6949081  44.9162254  10.2530174
  27.6919804  45.7758522   9.8319864  28.3192501  45.0043869  10.9731960
  26.1250706  17.5408878  83.5733414  25.8975182  18.3281460  84.0679855
  25.9234409  17.7625828  82.6642609   5.6311359  37.0946693  70.7632751
   5.0824437  37.4085426  71.4820633   5.7026687  36.1516037  70.9107361
  86.7372818  47.4451180  62.2221069  87.1484756  46.8660622  62.8638573
  86.2521133  46.8561096  61.6442642  70.8272324  42.2354164  13.8517580
  71.6798477  42.6118088  13.6336002  70.1958923  42.9072838  13.5943966
  14.9614563  40.7531853  19.5752258  15.7535048  41.2657890  19.7368698
  15.2441864  39.8425636  19.6592999   7.4584956  44.5836639  22.4430542
   7.2859340  45.4396782  22.0510139   7.2157717  43.9554100  21.7628975
  83.2966156  60.5202255  71.3599854  83.6607208  59.7562523  71.8072052
  83.9154816  61.2256737  71.5485840   9.4142008  20.7352581  60.7725525
   9.2752132  19.8213863  60.5240555   8.9084234  21.2369003  60.1331978
  31.7151356  55.1999092  79.5897064  31.8778343  55.3286209  78.6552582
  31.6758251  54.2495880  79.6973038  56.4113274  55.9868774  49.3357735
  57.2569122  56.3112373  49.6456261  56.5829010  55.6848526  48.4438210
  36.3571815  19.9594669  19.6770630  37.0402107  20.3961296  20.1860142
  36.2722168  19.0960407  20.0814247  53.9109497  46.7592468  76.8044205
  53.9001732  46.3553963  77.6721878  53.9821358  46.0220566  76.1980286
   1.2019233  62.2401810  57.7963104   2.1059637  62.4465141  58.0337334
   1.2756379  61.5017204  57.1917648  48.6540871  11.0624142  21.8928318
  49.6101227  11.0325222  21.8563328  48.4588203  11.8292389  22.4314251
  15.4065399  35.6087112  43.1566811  16.3489857  35.4422531  43.1745453
  15.2378149  36.1159286  43.9507179   1.6523310  38.4965935  73.5020981
   0.8210928  38.2803688  73.9246216   1.6589354  39.4529266  73.4618988
   3.8738494   3.4260809  26.4920444   3.8690727   4.3670211  26.3164291
   4.0826344   3.3573663  27.4236660   2.5310774  15.0055399  55.4885864
   1.8086913  15.0828629  56.1118164   2.1317549  15.1796675  54.6362648
  70.6520691  18.2643623  45.8574104  70.3415756  17.9672585  46.7127228
  71.5646210  18.5117931  46.0065918  15.1610374   1.7628320  78.7005005
  14.6138372   2.1305304  78.0065231  14.9464359   2.2823005  79.4753113
  58.1999016  36.2558289  64.5773697  57.8668976  35.6977959  63.8745613
  58.2188988  35.6865082  65.3466187  15.8081827  28.7819748  76.6941605
  14.9405813  29.1628036  76.8300629  15.6386080  27.8565540  76.5178833
  53.3610077   5.8497348  65.1485519  53.1708221   5.0588088  64.6440735
  54.2714615   6.0557652  64.9367523  78.5173264  10.5612621  81.6709900
  79.2958603  11.0948524  81.8303452  78.7922745   9.9286356  81.0073471
   1.1821824  57.8233185  28.4643726   0.9102724  58.1988487  27.6269512
   1.3108976  56.8930664  28.2791920  31.1345196  11.6166162  79.4004669
  31.0774021  12.5514097  79.5982819  31.0607967  11.1865711  80.2524414
  45.0600624  27.2519951  23.1305408  44.3155403  27.7215118  22.7544136
  44.9622841  27.3659706  24.0758877  53.6449928  51.5390434   5.7103014
  53.9840317  52.0648613   4.9858675  54.0077934  50.6656609   5.5626335
   4.9514685  54.1222038  35.7858620   4.3773313  53.3701859  35.6407013
   5.7536922  53.7449112  36.1468582  16.3963718  68.6400604  20.0805874
  16.2510223  69.0064774  20.9528522  15.7457952  69.0727158  19.5276012
  76.9184799  50.3075523  66.5101700  76.0546646  50.6230965  66.7756424
  77.5256958  50.7353096  67.1139450  80.2259293  56.3609314  32.4010887
  80.1642838  57.2036591  32.8507996  80.8721237  56.5050545  31.7097931
  20.9235992  47.8265686  82.9932327  21.5905361  48.3359108  82.5327988
  21.2923641  47.6811943  83.8645020  71.6009521  44.0132904  81.4025803
  71.6698914  44.9648399  81.3249207  70.9219971  43.8754539  82.0630722
  66.7361679  46.1803360  47.8062057  66.7275848  47.1365204  47.7630463
  67.6631775  45.9520035  47.8751526  44.9347343  71.1842499  26.7082844
  45.7191200  71.7026215  26.8878956  44.4482002  71.1925812  27.5325699
  69.2844086  20.3137207  76.4469147  68.7742081  19.5067825  76.5160370
  68.7347183  20.9009304  75.9280090  18.9121704  47.7437744  59.8163109
  19.6185417  47.5621262  60.4362106  19.2282639  48.4883003  59.3044586
  32.3255730  20.8335037  86.6868973  31.9494019  19.9651299  86.5431900
  33.1284790  20.8359470  86.1657791   9.1255083  67.0577087   7.1813827
   9.1350107  66.3161316   7.7865281   8.5455770  67.6970444   7.5951080
  68.4417419   3.2840803   5.7737956  68.6418533   2.9063964   4.9173245
  67.4854584   3.2905374   5.8151984  72.6425400  61.7147255  28.5374317
  73.4937820  61.8012390  28.1083279  72.4561996  62.5895004  28.8784294
  15.7809448  32.4825363  84.0557709  15.3645773  33.1829147  83.5534363
  16.5054417  32.1894989  83.5030823  74.2285004   0.3912328  10.3205137
  75.0972672   0.1383563  10.0082312  73.6487427  -0.3006310  10.0020199
  50.5933037  20.4831276  85.6809158  49.8871727  20.8384495  85.1411362
  50.3423691  19.5722294  85.8342972  67.6911087  48.7179832   0.6509183
  68.4990311  48.3159714   0.9701089  67.7214127  49.6144600   0.9850479
  56.8478889  31.0432320  52.7743454  57.0369453  31.8400726  53.2698593
  56.5901642  31.3559303  51.9071503  20.9090481   3.6253755   9.8639584
  20.6587639   3.0880632   9.1123705  20.1713448   3.5491853  10.4691219
   3.4155209  53.6341515  54.6433792   4.0184126  52.8958244  54.5560570
   3.8842123  54.3732376  54.2556763  48.2575302  25.9224072  32.0518417
  47.3680115  25.8247452  31.7120609  48.4333687  26.8616753  31.9962711
  65.8934708  36.3304749  53.6891556  65.5262451  36.4662666  54.5626183
  66.3750839  35.5060768  53.7573280   9.4935198  62.4346886  34.7247734
   9.0007668  61.8094101  34.1933098   9.7857437  63.1003304  34.1020737
  32.5059776  30.7379169  81.4905548  32.4596481  31.5506210  81.9941406
  32.2454834  30.0567799  82.1105728  83.2742996  50.0444489  68.2918167
  82.5057907  49.9508553  68.8547287  83.6034317  49.1519241  68.1854935
  47.2624054  63.9746590  39.8362045  46.5511360  63.5253983  40.2928123
  47.0740395  64.9054031  39.9564590  11.8037119  33.0674553  78.0795441
  11.2067595  33.6353912  78.5667038  11.2346697  32.4125900  77.6750946
  50.2269897  45.8383751  56.6243706  50.0864105  44.9398651  56.3257866
  49.5363235  45.9869690  57.2702293  18.3571682  21.8697624  72.6638489
  19.0364113  22.5424385  72.6151962  18.5320492  21.2982826  71.9161453
  23.8153667  40.0103073  33.8231354  23.9850655  39.1764755  33.3847809
  24.6391773  40.4920082  33.7487755  85.9388962  45.3840485  60.2988205
  86.8642044  45.2345543  60.1046867  85.5096207  44.5601997  60.0681114
  38.8606911  22.3143864  17.5175056  38.0986519  22.3909836  16.9433460
  39.5805740  22.0831985  16.9305172   4.1050653  27.1841564  61.8807259
   4.0467229  27.9040642  61.2525864   3.2500463  27.1717148  62.3108673
  86.1747437  66.0987396  82.3152390  87.0342255  66.5183105  82.2767334
  85.5857468  66.7195206  81.8863449   1.6636417   2.1316409  76.4732971
   1.8155801   3.0711184  76.5759048   0.7321739   2.0610647  76.2644424
  79.0382385  53.6011314  53.2700272  78.3768845  52.9103127  53.3102570
  78.5994339  54.3272743  52.8268509   3.8348873  24.9690056  75.9387436
   2.8815315  24.9221916  76.0105286   4.0364313  24.5108204  75.1228561
  73.0527725  14.0918846  63.0199852  73.7002792  13.3980713  63.1448364
  72.3882904  13.7001886  62.4531822  18.0279427  42.2431793  65.5478745
  17.3776741  41.7754822  66.0719376  17.5760994  42.4429245  64.7280197
  44.4316216  14.1921005  57.9219475  43.8518677  14.5064411  58.6157112
  44.8949699  13.4519663  58.3140450  75.3562927  19.8193340  15.0301189
  74.6356812  19.2887383  14.6903868  75.8596344  20.0648575  14.2538443
  68.9353714  33.9803963  16.1104183  69.3702316  34.6104927  16.6849709
  68.5524750  33.3369980  16.7067928  24.9488564  48.1804581  46.5886917
  25.0016365  48.8214798  45.8797913  25.8305073  47.8119392  46.6445045
  74.5764542   1.8756155  72.5579987  73.9374390   1.3282263  72.1016388
  74.8229294   2.5417016  71.9162750   4.2544384  18.8353424   6.1914749
   3.4745147  18.3766479   6.5038052   4.3287635  18.5822468   5.2713389
  64.5808716  42.6555519   4.4653068  63.7983513  43.1806526   4.6331501
  64.5878906  42.0049896   5.1674118   6.2947278  42.9655800  12.5910816
   6.8789315  43.5022087  12.0553885   6.7338338  42.9073906  13.4396286
  45.3433609  53.6423264  41.0528183  45.5003815  54.4714851  40.6010780
  45.5302734  52.9722328  40.3953476  21.8795643  63.3794441  70.4142914
  21.6544399  62.6211967  70.9533768  21.0434704  63.6723099  70.0517883
  39.6223373   3.2607608  14.9731874  39.5646324   3.6465201  15.8473110
  39.6415443   4.0121989  14.3805637  50.7430191  61.4888229  59.1567993
  51.2206764  62.0879936  59.7304459  50.4280853  62.0418129  58.4417801
  52.8428116  22.9716530  37.6278191  53.0126076  23.5140648  36.8576279
  53.7123337  22.7487259  37.9601860  42.1267738  21.3279057  79.2669144
  42.2756195  20.4027367  79.0716171  41.3184319  21.3374615  79.7794724
   4.2310677   3.2381496  29.5771923   4.3017135   2.4440393  30.1069374
   3.3088603   3.4867651  29.6400871  74.7841415  18.1550865  46.3291740
  74.2662430  18.5870266  45.6498833  74.6692123  17.2200394  46.1597328
  56.7625504   7.0236607  16.7216511  56.2767258   7.8197746  16.5062294
  56.2668571   6.3199100  16.3030186  51.6331940  33.3673782  79.3862686
  52.2792015  34.0395546  79.6032562  50.8001289  33.8376274  79.3531342
  68.3716660  69.2620697   8.8256912  69.1863327  68.8692093   9.1390839
  67.6841812  68.6842651   9.1569538  23.5855732  15.0107880  63.1333504
  24.0662766  15.2417297  62.3384781  22.6725540  14.9508696  62.8522148
  60.6277122  54.9221687  40.3598289  60.0326309  55.4159164  40.9240341
  60.2996826  55.0750847  39.4736862  72.1568069  22.4512482  70.2642441
  72.5460739  23.2628098  70.5899353  72.8949127  21.8471756  70.1833954
  40.3555832  41.2926369  55.1154823  39.8992119  42.1236115  54.9834251
  39.9725113  40.7031326  54.4658890  55.3813820  15.8094807  24.8054123
  56.0653534  16.4781513  24.7694836  54.5669136  16.3044872  24.8939610
  68.3855286  69.7007217  29.1527348  67.7987518  69.3777618  28.4689007
  67.9220963  70.4468002  29.5332947  25.8668308  68.0870590  70.8897171
  25.2949543  67.3251038  70.7969055  25.4030361  68.7912292  70.4366455
  14.5823250  45.3255386  16.2799816  15.3280935  44.7255058  16.2846203
  13.8191442  44.7599907  16.3980484  65.4912338  26.9701710  58.7206802
  65.3307495  27.0733547  57.7826881  65.5140991  26.0230026  58.8569908
  12.2717085  33.3602905  73.4953995  12.0585690  33.6912270  72.6228790
  12.7563276  34.0738335  73.9104080  77.7855988  33.9724846  79.5058823
  78.0966721  33.0677757  79.4747543  78.0953369  34.3605499  78.6875305
  29.4411335  55.5815506   3.1160746  29.3085861  54.7666626   2.6316965
  29.7979851  56.1896553   2.4686971  34.8007851  55.3335037  34.8599014
  34.1164207  55.8505554  35.2847939  34.7422066  54.4724197  35.2738266
  32.2640343  34.8205070   3.9072585  32.4923172  34.2115326   3.2049289
  31.3272400  34.9793663   3.7914512  42.4057274   2.1816707   3.4293320
  42.3937187   1.4153332   2.8559086  42.7486420   2.8865352   2.8799610
  69.5414963  23.9513073  70.4412003  70.1834717  23.3328743  70.7899551
  69.8579712  24.1541100  69.5608902  62.0633125  39.2817230   1.6953427
  61.4071922  39.8668251   1.3166683  62.4438820  38.8294029   0.9424774
  49.8146439  61.9144325  27.9053192  49.5640907  62.2006912  27.0269623
  49.1833687  62.3403893  28.4852200  51.0549583  22.1261730  59.2893066
  50.5752678  22.8112602  58.8237038  50.6444588  22.0913086  60.1533165
  15.7948961  60.2247887  22.2696037  16.3338146  60.8619957  21.8008080
  15.0639019  60.0476723  21.6775665   9.1346245   0.6075295  72.1597595
   9.5133791  -0.2216162  72.4518127   9.6822863   0.8741172  71.4213638
  32.2492599  63.9500809  88.8916168  32.1179848  64.6343689  88.2352982
  32.3648109  64.4260178  89.7140350   1.5330461  63.0624428  26.4309521
   1.1730258  62.5744247  25.6903725   2.3874366  62.6611099  26.5896378
  58.5252991  31.7135391  86.8133240  58.8155670  30.8999443  86.4009628
  58.2222176  31.4472504  87.6813431  71.4996643  17.7466087  11.5532293
  71.0048065  18.5639820  11.6102228  72.4157028  18.0227470  11.5240927
  47.5328979   8.8305235  64.8287354  47.8374138   9.1026773  65.6944351
  48.3167419   8.4951019  64.3936386  32.1960487  61.3862534  63.5916214
  32.5395966  61.4911652  64.4788666  32.7794571  60.7468491  63.1829300
  82.7589722  56.7857971  14.1974316  82.6462097  57.3418694  14.9683428
  82.2770386  55.9856796  14.4066906  81.9707184  60.5038948  51.7228279
  82.0327682  61.4452972  51.5611343  82.6224289  60.1169930  51.1381798
  72.8235626  49.1870956  85.5073929  72.7911758  49.7102661  84.7064667
  72.0864258  49.5031204  86.0298767   9.9955673   5.2976918  86.5120468
  10.5773115   6.0552297  86.4492493   9.6366673   5.3441219  87.3982010
  36.2667542  34.9326935  30.8560085  35.6086235  34.2684479  30.6513901
  36.9918594  34.4407310  31.2412739  22.6997433  11.8382311  73.0334167
  23.3423920  11.7495461  72.3295975  21.8618565  11.9380589  72.5815201
  80.6793900  11.0017710  21.5097561  80.6347122  11.8712616  21.1119862
  81.1419220  11.1399937  22.3363094  62.1353874  35.8343735  15.3271341
  62.4103966  34.9516029  15.0795050  62.1728020  35.8374329  16.2835979
  49.0439529   3.1013017  58.4306030  48.4507904   2.6767666  59.0504150
  48.7714424   4.0188890  58.4284210  41.3462143  30.0271072  70.0774231
  40.8671417  29.8475075  69.2684326  41.7614174  30.8762455  69.9264221
  78.4001999  44.7678223  85.1615601  78.2786179  45.3310204  84.3971939
  78.1481323  45.3154297  85.9050751  66.7413406  48.2923546   9.0637293
  66.5471039  49.1607513   9.4164152  67.4131317  47.9412308   9.6482315
  63.2911949  16.4302540  59.7592583  63.4758301  15.8447495  59.0248718
  62.3374214  16.5107327  59.7674828  66.0301666  31.5416069  65.6803513
  65.9439087  31.6117020  66.6310806  65.4242325  30.8421268  65.4358063
  45.1021194  50.8441620  85.3254852  44.9685516  51.7524223  85.0544662
  44.2986870  50.6126366  85.7914505  26.1103992   3.9165447  49.6450272
  26.3873348   3.1813447  50.1918564  26.8047695   4.5671611  49.7488594
  84.1485138  35.7244110  48.3280067  84.5671539  34.8820114  48.5050201
  84.5976257  36.0564079  47.5506363  60.3406219  47.0118523  50.2564163
  61.1960678  47.4121094  50.4120979  60.0361786  47.4074135  49.4396667
  58.4792786  46.2230453  21.0839291  58.6888847  45.3267937  20.8211880
  57.8927650  46.1219063  21.8335991  18.5584335  63.1942482  77.8637695
  18.6677952  62.3112907  77.5106964  19.3890514  63.3819962  78.3008652
  46.3863716  16.7841568  41.3055077  47.2515182  16.8979359  41.6989632
  46.5218849  16.1391239  40.6113892  69.7697449  46.3547821  42.1635284
  69.8732071  47.1878395  41.7035866  70.6142120  45.9165726  42.0582352
  61.5199242   5.3376384  80.1638412  61.0865898   5.6096287  80.9728317
  61.0619926   5.8176079  79.4737930  49.7098236  42.3085823  12.0258684
  49.9634285  43.0314598  12.5997734  48.8801270  41.9960709  12.3866596
  60.3908081  30.5264492  11.8331900  60.6499138  29.8188591  11.2429237
  60.2885895  31.2885609  11.2631292  51.1566353  16.0447865  23.8172340
  50.6124458  16.7748566  24.1123466  52.0373459  16.2643890  24.1211319
  78.4377594  31.7398224  19.9043064  78.3862076  30.8429737  19.5737991
  77.8149261  31.7635365  20.6307697  61.3561058   5.7766452  87.8183136
  61.9872246   5.8150611  88.5369568  61.0674400   6.6821432  87.7043991
  40.5804100  15.9538441  13.7274294  41.3223343  16.2894669  13.2243032
  40.5439873  16.5137825  14.5029125   6.3054061  32.5609779  88.2361450
   5.8250337  33.3889084  88.2384796   6.4304495  32.3540115  89.1623001
  75.1796265  37.5882454  18.3561668  75.7458191  37.6632500  17.5880318
  75.1436386  36.6488495  18.5363750  53.8418808  15.8608370  59.8436737
  53.2385979  16.0674572  60.5575294  54.1505890  14.9761915  60.0394592
   2.0865059  40.7740059   2.2993474   2.7004724  40.0530891   2.4391870
   2.4746115  41.5133247   2.7673361  10.2530127   0.1238297  83.8276978
   9.9948311   1.0095289  83.5725250  11.0363359  -0.0564201  83.3079376
  30.6031780  53.5988998  38.6109047  30.5766811  54.5528412  38.6852188
  31.2707653  53.3280144  39.2411270  67.4383850  37.8515205  34.7643204
  66.6549301  38.3858948  34.8942490  67.2010727  37.2451706  34.0627136
  20.3810520  49.8740158  61.4009972  20.2646389  50.2636528  60.5344734
  19.5038528  49.5864716  61.6541252   9.4343367  63.3822937  37.1749916
   9.5356579  64.2817230  36.8635674   9.2668104  62.8719482  36.3827057
  35.9468536   3.9869277  67.0291748  35.0181007   3.8089221  67.1773682
  35.9775391   4.9121690  66.7858200   4.3859825  18.5439587   2.7978494
   4.4345331  17.6986465   2.3513956   3.4515872  18.7506313   2.8184388
  32.6025658  63.9211922  36.7733421  32.0806274  63.3814926  37.3670883
  32.4383163  63.5507774  35.9061356  76.9022751  12.4575272  40.4038849
  76.5250092  12.3004313  39.5383110  77.3595047  13.2940264  40.3176460
  43.0060883  56.0308685  12.4873419  42.9846649  55.8770027  13.4318504
  43.7412567  56.6302605  12.3589334  36.1791191  61.0760345  51.1989365
  36.7683792  61.3797188  51.8894310  36.7598076  60.7052917  50.5344200
  39.9432411  41.2079353  70.6267166  39.0690346  41.4665642  70.3349838
  40.5090637  41.9320984  70.3590240  81.6994019  44.8854523  20.6790142
  81.8013382  45.5662766  21.3440876  81.1979828  44.1970139  21.1158924
  73.4905243  41.5350761  33.3334846  72.6043472  41.8754463  33.2107620
  73.9879456  41.8911362  32.5972595  22.0837364  71.1072922   0.3300165
  22.4675446  71.2686005  -0.5319019  21.9008999  71.9800797   0.6779317
  43.6228027  52.7170982  58.8012390  43.3570175  52.4881439  57.9106369
  43.9384689  51.8947601  59.1758652  18.0291977  14.8483839  55.7295799
  18.6654072  14.4887753  56.3477669  17.4890194  14.0990381  55.4787407
  84.5036850  10.9118452  62.6310043  84.6162872  11.2916031  61.7596054
  85.3135300  10.4260082  62.7870216  36.2710495  35.2876015  60.9640083
  35.4180374  34.9844322  60.6530495  36.0680313  36.0259438  61.5383453
  35.5256348  23.6638374  85.6927414  35.7373276  24.5916824  85.5901718
  36.3755913  23.2326260  85.7813950   7.4119825  53.8768120  28.2490501
   7.6779528  54.7573700  27.9842663   7.8910217  53.7162323  29.0620499
  37.3051567  13.0460854  83.8628540  36.9174385  13.8593206  83.5395050
  36.8359604  12.8642387  84.6771164  26.2409077  33.8050270  71.4769287
  25.8034782  34.2331772  72.2128448  26.4850235  34.5229683  70.8927994
  75.6428757  53.5679474  40.7542953  76.5526657  53.4212074  40.4954872
  75.6300735  54.4656982  41.0861168  85.7617722  30.2287521  58.1871414
  85.3188934  30.9676304  58.6044540  86.4762115  30.6273537  57.6902275
  41.3885956   0.3884735  35.3663139  41.7885971   1.2123464  35.6446381
  40.4465675   0.5508190  35.4158974  32.0913925   6.7102160  82.8678360
  31.5737801   5.9322286  83.0753021  32.9142685   6.3650537  82.5214691
   8.6378260  16.4456959  76.1804428   8.3503561  16.6401062  77.0725174
   8.6632786  17.2981777  75.7458649  21.6414108  13.5985603  61.8379250
  20.8856030  13.4161844  62.3962517  21.3682899  13.3157425  60.9651985
   1.3170583  70.7322693  13.4280815   1.2632166  71.6254349  13.7680798
   0.4068050  70.4792709  13.2742634  61.8028450  61.5661850  76.6113205
  61.4680290  60.8473816  77.1474686  62.4899979  61.9638786  77.1460114
  77.0688477  55.1847610  86.2638245  76.7129593  54.6405487  86.9662476
  77.9468460  55.4195671  86.5642014   5.6293039  54.9164734  13.3911448
   6.5156069  54.6578903  13.6438017   5.5639305  54.6759949  12.4669542
  35.8205338  51.3160400  25.5483189  36.2404594  52.0890465  25.9256115
  35.8224564  50.6725464  26.2569427  61.6518250  17.2269478  52.4205551
  61.2743225  16.4636288  51.9834404  62.2902031  16.8610058  53.0327568
   1.7453717  64.0715103  62.8785820   1.0156983  64.1820984  62.2690086
   1.5387826  63.2681351  63.3562241  65.4410706  65.3064423  43.5195541
  65.3745804  66.2107697  43.8261375  65.8986282  64.8477020  44.2241325
  22.0676632  52.6924171  59.5646400  22.0679989  51.9538193  58.9557838
  22.5123749  53.3945045  59.0897293   9.9137068  61.0797958  49.9734917
  10.1187983  61.4454117  49.1129723   8.9858942  60.8502960  49.9212761
  55.7746315  15.0282001  83.1524200  55.4834671  14.1707096  83.4625244
  56.5453835  14.8401718  82.6168671  33.1098938  44.4764328  17.9826622
  33.5181313  43.6170425  18.0876579  33.3442459  44.9519043  18.7796803
  78.5249557  24.2453003  29.6869793  78.2688065  23.7329254  28.9201069
  78.9098358  23.6048737  30.2852688  34.3185043  46.6945038  16.9187584
  35.1901817  46.4418144  16.6145248  33.9078903  45.8703766  17.1803608
  20.1576385  52.2917175   3.7110965  19.4768009  52.9511452   3.5775223
  20.9639645  52.7972832   3.8134313  33.4477577   2.3059990  73.7173691
  34.0511093   2.0979445  73.0039902  33.6268921   1.6425912  74.3837280
   3.5075109  61.1473236  27.3568573   3.6478724  60.7042885  28.1936665
   3.6399832  60.4645653  26.6991920  15.7729635   8.3888483   5.5991616
  16.3340492   8.0791941   4.8881564  14.9677258   8.6691093   5.1641002
  42.0920906   2.9681966  43.9436455  41.2788925   2.5966380  43.6017647
  42.6021843   2.2090371  44.2259789  53.9075279  50.7514381  71.7951889
  54.8536224  50.6571198  71.9058380  53.7861786  51.6661148  71.5404816
  72.2923355  16.0414639  71.9460602  71.5354385  16.5943050  71.7518692
  73.0418015  16.5368004  71.6156616  76.7974396  27.9973526  37.1572571
  77.4540710  28.6894684  37.2349930  77.2971802  27.2200012  36.9078255
  85.1933517  33.2810936  74.1526260  84.9418488  32.5175819  73.6329803
  86.0111542  33.0227013  74.5776596  33.2572861  42.5204239  10.0844088
  33.0280342  42.1327095  10.9290113  32.4151649  42.7314758   9.6812696
  76.9880142  71.6052704   8.8019800  77.2513275  70.9337769   9.4312582
  77.6673508  72.2762375   8.8693733  10.0130825  27.5306396   7.6037097
   9.8608541  26.9317818   8.3347549   9.4880953  28.3030376   7.8135171
  44.4451790  58.4479828  18.6187553  44.5176277  58.4218483  19.5728512
  45.1366501  57.8625603  18.3099213  64.5186462  45.0400276  45.9499207
  63.9967842  45.8376579  46.0375671  65.2818527  45.1906548  46.5076523
  51.9148636  41.3527260  55.6326866  52.4253273  41.6794090  54.8917847
  52.5408173  41.3127098  56.3557434  42.0018654  67.0426407   5.2458606
  41.4311867  66.3703156   4.8736658  41.4110489  67.6126633   5.7380447
  17.0343819  52.0163002  33.1416245  17.7283669  51.4102669  32.8821144
  16.8791943  51.8211517  34.0657806  81.3642807  23.0245724  84.6015930
  81.1180801  23.9051380  84.3183594  82.1002960  23.1618271  85.1979752
  37.6178551  66.0472870  39.7651253  37.6422272  66.3658142  38.8628044
  37.6697540  66.8392792  40.3001823  17.9282970  21.2851181  78.1439972
  17.1811886  21.8045692  77.8469620  18.1920853  20.7824554  77.3732986
  73.4517136  49.8023987   5.8531623  72.7801743  50.3395996   5.4328270
  73.2096710  48.9023666   5.6350050  86.5561523  19.7679501  65.9433746
  85.9012756  19.2246571  65.5049667  86.0957336  20.1365509  66.6972809
  51.2203026  65.0460434  11.0369549  50.5134277  65.3348312  10.4597521
  52.0149956  65.1522751  10.5140705  82.6234436  40.2014885  72.4624405
  82.6026077  41.1435623  72.6306534  83.4343109  39.9025841  72.8740005
  46.1521416  40.6288910  24.8250523  45.5956268  40.5929718  25.6030197
  46.3852043  41.5533600  24.7397652  83.5698624  21.5776997  75.3988037
  83.1386261  22.4248466  75.5111084  84.0388947  21.6559582  74.5680695
  50.8894119  70.2365189  46.8324013  51.5346565  70.9207611  47.0104599
  50.5356369  70.0111771  47.6928062  13.6485119  63.0772743   6.4792686
  14.6011047  63.1307411   6.4022036  13.3202047  63.6894379   5.8207073
   4.3158069  29.1663399  14.7212782   3.8478165  28.3623962  14.9468756
   3.6367826  29.8406372  14.6993771   9.3546085  34.8333549  51.7685738
   8.9057655  34.0060577  51.5943604   8.6559200  35.4875565  51.7780113
   0.5685208  27.3022957  48.4863358  -0.1086203  27.9786682  48.5015297
   0.3415078  26.7197838  49.2111626  11.7409678  70.2095337  75.7749710
  11.3224535  70.2660828  74.9159698  12.3748617  69.4978333  75.6861649
  53.7909508  45.1431236  47.2681580  54.6072311  45.0533867  47.7599525
  53.3416557  44.3075333  47.3952560  79.0090790  15.7407007  47.6053085
  79.5639648  15.9247990  48.3632317  79.2755890  14.8667421  47.3199959
  77.9692993  65.5172424  27.5092335  77.7476425  64.5965576  27.3698273
  78.4265747  65.5288467  28.3500652  51.5648193   4.6566744  40.2727203
  51.1111794   4.6615548  41.1155853  51.9249687   5.5396175  40.1894417
   6.4388652  23.3635712  76.2390289   5.6513839  23.1459866  75.7402649
   6.8738880  24.0381470  75.7175522  40.5094070  48.5530243  85.8997574
  41.2441940  47.9921379  85.6513138  40.1087875  48.1065407  86.6456680
  65.7073059  63.1062508  64.8952484  64.9693985  63.6114349  64.5539093
  66.1668015  63.7146416  65.4739990  67.6970673  35.4335480  13.9992599
  67.1816406  35.9749413  14.5971441  68.3753510  35.0454178  14.5519981
  58.0802917   2.2247453  10.1935749  58.3085175   2.8957992   9.5502777
  57.1238976   2.1903145  10.1747360  49.7708206  62.0374947  64.6606216
  49.6031990  61.1763000  65.0433426  50.2703094  62.5042381  65.3306198
  15.2081985  38.3436356  28.2274990  16.0601215  38.4734192  28.6441708
  15.0670300  39.1412430  27.7174740  33.7107735  49.9715881  73.2265930
  32.8526573  49.9033699  72.8080063  33.8985443  50.9101410  73.2363968
  22.5843830  38.4312859  29.3557835  23.4670830  38.3378944  29.7140427
  22.7195187  38.5641212  28.4175282  45.3522453  40.9935303  56.2174339
  44.4032440  40.8698044  56.2354050  45.6214523  40.6574516  55.3625603
  69.5248947  55.4414558   2.1612489  69.0613708  56.2186661   1.8492899
  69.4534454  55.4865685   3.1147120  65.5768661  71.1804047  18.6718788
  66.4859695  71.0194778  18.9246044  65.3843842  72.0537109  19.0132198
   3.9080915   1.5131737  48.7201920   4.5748501   0.9538557  48.3216591
   3.1393261   1.4056979  48.1601219  83.8250504  15.9094696   2.3701277
  84.7796402  15.8506203   2.3309798  83.5536118  15.1064081   2.8146977
  23.4830856  40.6027870  24.1042156  23.8856392  41.4599419  24.2437325
  23.9643497  40.0145798  24.6861382  24.9832840  61.7923203  16.8518658
  25.4659252  61.0624542  17.2399197  25.6005535  62.5237007  16.8689423
  59.1779137  51.9075928   0.6794422  58.7581520  52.6696434   1.0785822
  58.4671288  51.4508667   0.2295384  77.9100723  24.3010330  22.7637959
  77.2342300  23.6500759  22.9527950  78.2240601  24.0731678  21.8887405
  43.2920799  40.5365677  74.9162292  43.6988907  40.0581207  74.1938553
  42.8486519  39.8620377  75.4306335  26.1655025  67.5781479  12.3699274
  25.8082581  68.3372269  11.9090500  25.7861938  67.6302643  13.2472191
  17.0969105  24.2273521  17.7834740  17.0081043  24.2861366  18.7347298
  18.0387249  24.1414490  17.6356983  55.3119698   4.1253724  83.7032700
  56.2182770   3.8343184  83.8038712  55.0585747   3.8226190  82.8312759
  40.5624123  43.8813515  43.2404671  40.1600571  43.0697250  42.9312668
  40.8716354  43.6745415  44.1224213  47.7586021  33.0347824  76.1882782
  47.2841797  33.3538933  75.4206009  47.0746193  32.8425636  76.8297195
  57.5853424  23.9054050  53.8022804  57.9093704  24.6996136  53.3774605
  56.6560745  24.0772648  53.9544487  76.4233170   2.0886281  68.6420135
  75.8920212   1.2972447  68.7295685  75.7920074   2.8068674  68.6845932
  69.2028427  35.4947166  50.4838295  69.8308868  36.0628777  50.0377502
  68.5874100  36.0982590  50.9000092  43.8092384  37.8484192  21.7090569
  44.0009575  38.4712296  22.4101887  44.0958710  38.2912521  20.9103260
  46.3653374  58.7809105  24.3439198  46.2651253  58.5549583  23.4191856
  45.4717331  58.7881050  24.6869240  76.4001617  62.1105042  84.3853073
  76.0389175  61.5199890  85.0463867  76.2661972  61.6520462  83.5557861
  74.9480896  38.6742821  35.3244019  74.0401764  38.9170990  35.1428604
  75.3782501  38.6994972  34.4696732  20.6947441  14.2620649  32.0617561
  20.7019501  15.1723146  32.3577690  20.9111214  14.3112898  31.1306324
   2.1371377  55.1536331  36.6781807   2.5933068  54.4412918  37.1261940
   2.6549304  55.3104248  35.8885384  66.7388000  66.5144806  22.3465824
  67.6270905  66.2148132  22.5398998  66.8453445  67.1244736  21.6166592
  48.4754677  17.4319363  42.8305626  48.3875580  16.8659668  43.5974922
  49.0780716  18.1213627  43.1094818  72.9579086  21.6889954  77.6648788
  73.9149628  21.6759758  77.6757431  72.7328415  22.0319080  76.8000183
  59.6937943  66.8463898   7.8283138  59.1671295  66.3452454   8.4509802
  60.3680229  67.2625809   8.3653679  24.0098629  50.6334229  52.0878487
  24.8959293  50.8988533  51.8415489  23.4431496  51.0738029  51.4544983
  45.4561729   0.6770089   3.3326259  45.5683289  -0.0395661   3.9572642
  45.2437477   0.2432946   2.5061886  24.7717705   4.2481828  68.6826477
  24.4340305   4.6258898  69.4947433  24.8535690   3.3129365  68.8693466
  71.7501755  35.7177429   7.5588083  71.4858856  34.8701935   7.2009773
  71.2044601  35.8297806   8.3371916  66.7728500   3.4878492  43.5387497
  66.6185150   4.3250561  43.9763527  66.4907227   2.8298857  44.1741409
  85.4326477  63.0641594  14.5703468  84.5540390  62.6923256  14.6479263
  85.6255493  63.0294495  13.6334276  76.9942780  49.5094452  19.1269455
  77.0078049  50.0618973  18.3453789  77.6102600  49.9290543  19.7275467
  58.9528275  22.2594643  14.6349983  59.2924156  21.4187145  14.3283186
  59.7337265  22.7903004  14.7919798  53.0405769  30.9948063  78.6669083
  53.7338753  31.4810886  79.1131134  52.2794189  31.5739880  78.7045593
  16.2210426  68.7686768  57.5455742  15.2713394  68.8880157  57.5530243
  16.3686218  68.0611725  56.9179688  29.4248657   7.2266984   2.3461859
  29.4958820   8.1613016   2.5403662  30.3194904   6.9564128   2.1392455
  20.3651810  68.6659470  19.7720222  19.9709530  69.5034409  19.5282459
  19.6862202  68.2199707  20.2783337  64.4387360  22.6208267  65.4394760
  65.1490860  23.0049896  64.9256134  64.7781830  22.5929432  66.3340302
  29.4187908  63.9209175  58.0983315  29.7293930  64.7873993  58.3609352
  29.2050953  64.0142899  57.1699715  19.5768833  30.0321465  21.9169312
  19.1968536  29.4030151  22.5301228  20.4540100  30.2017097  22.2606316
  68.0232925  46.4131355  19.6792984  68.6497803  46.1621284  20.3580837
  67.6845779  47.2607117  19.9675903  50.6318321  17.5860443  61.0408745
  50.6278572  16.8198490  61.6146011  49.8697052  17.4651184  60.4745102
  65.6644135  47.9690361  13.0563316  65.5432053  47.1618729  12.5562973
  66.5997772  47.9871597  13.2588301  62.2855797  61.6035194   4.7698770
  61.9375267  62.1679535   5.4601727  62.8805504  61.0076141   5.2249990
  30.9959354  68.4504852   9.3505421  31.6366558  68.1581192   8.7022905
  30.5242119  67.6548386   9.5968065  76.4650497  17.9919510  43.2702866
  77.1540070  17.5048237  43.7222595  76.5416794  17.7218952  42.3551750
  58.6897621  49.8484802  64.3937302  57.9188347  50.3519745  64.6552582
  58.4753876  48.9447365  64.6250839   2.7223017  18.9873886  64.3157730
   3.5690370  19.0135040  64.7614059   2.0865939  19.2089844  64.9962158
  21.3021660  48.1568718  14.6506958  22.0630074  48.0107574  14.0885534
  21.1414433  47.3075066  15.0617676  44.1475258  65.5097733  66.6564865
  44.8816986  65.1500320  66.1586838  44.5541000  65.9222641  67.4185791
  28.4589252  61.8644028  30.7981339  29.0458908  62.1997375  31.4758186
  28.3959122  62.5767822  30.1619110  55.7057457  63.1988487  75.0789185
  56.4611015  63.6721611  75.4276962  54.9804153  63.4508972  75.6504135
  63.4501419  48.1646385  76.3021622  63.6204529  48.1163826  75.3614731
  64.2465057  47.8216934  76.7076492  54.8520622  38.2754517  74.4815903
  54.9769783  38.6605263  73.6142120  54.4357071  38.9687080  74.9937210
  22.2224865  31.3153248  87.6561203  21.4345684  30.9968834  87.2156525
  22.3970680  32.1645203  87.2503891  64.1021957  22.0767422  39.7461090
  64.4054184  21.8737679  38.8611870  63.9576454  21.2218704  40.1517334
  77.7403793  13.8718405  71.8873062  77.9725189  14.1653471  72.7683258
  76.9476013  13.3496342  72.0099487  56.0365181  49.9300880   2.2272005
  56.1371880  50.2687149   1.3375765  55.1537437  49.5604324   2.2443068
   6.7242284  28.3173561  13.9911976   6.0449347  28.8939152  14.3410139
   6.4718299  28.1759472  13.0787668  54.8895493  22.9129524  82.9953003
  55.5033646  22.6439419  82.3118515  54.4791489  22.0975018  83.2831268
   5.4643521  62.7562523  49.4371376   5.4564805  63.2245750  50.2719078
   6.2023993  62.1509857  49.5090256  31.4288692  52.3519096  36.1081886
  32.2908249  51.9390755  36.0550117  31.3881187  52.7078285  36.9958229
  71.6897430   6.4158516  49.8644714  71.7932358   5.5040655  50.1368065
  70.8835678   6.4216566  49.3484497  64.6951752  23.4944420  32.5471230
  65.5012817  23.0444679  32.2942238  64.2855759  23.7368984  31.7166576
  55.1329269  51.6518135  68.4077835  55.0658417  51.3721809  69.3207626
  55.7328186  52.3974037  68.4291153  37.3455811  56.5340996  31.8249283
  37.7473068  55.7774887  32.2519989  37.4846573  56.3832207  30.8899822
  29.9639359  63.1964035  32.5224228  29.8666420  63.8965111  33.1678810
  30.9044361  63.1603661  32.3480873  60.6047096  63.4295235  32.3615952
  61.0088310  64.2776184  32.1781464  59.8050461  63.4264488  31.8355083
  46.6528740   7.5653415  75.3257828  46.0942078   8.3064165  75.0914154
  47.5379524   7.9293370  75.3451691  36.8597488  39.9735069  24.7125607
  36.4493217  40.5652046  24.0819454  37.3177147  40.5527992  25.3215923
  78.7404404  33.7788048  59.1491547  78.0580215  34.3734245  59.4605446
  78.4888687  32.9228706  59.4960289  22.2098942  41.7483711  81.3673172
  21.5907650  42.2057419  81.9362793  22.0036602  40.8211327  81.4853287
  20.2138557  17.2983856  14.3943415  19.5059681  16.7014580  14.6368389
  19.7682247  18.1018734  14.1259165  13.3631802  41.9233856  44.0059166
  13.1231413  41.7345581  44.9130859  12.6874409  41.4903870  43.4842644
  63.7815590   9.3514595  44.8151207  63.5450401  10.1736450  44.3858147
  64.6576996   9.5084820  45.1671791  58.8924370  18.3088646   6.7896638
  58.3974533  18.7601795   7.4734306  58.2580414  18.1706867   6.0863299
   1.3020976  16.2130737  69.2324982   0.7226834  16.8350544  69.6725540
   1.1024063  16.3167114  68.3021088  26.4151611  61.6939087  44.2391777
  25.5068130  61.6573486  43.9395142  26.4803619  62.5276337  44.7048836
  35.7963142  19.5880604   1.4268850  36.1010094  18.8644009   1.9743433
  35.0212440  19.2431450   0.9835625   8.4383535   6.8173342   9.2468252
   9.0618038   7.2060709   8.6332903   7.7563815   7.4813132   9.3482018
  18.3115978  66.9621582  31.7188187  18.0759010  67.7924881  31.3050137
  17.7660522  66.9226685  32.5043449  61.0498657  59.8111649   8.0625010
  60.5077171  59.3355446   7.4331431  60.5882568  59.7168274   8.8957167
  43.7834587  56.6123886  70.4320450  43.6247864  55.8489342  70.9871979
  43.4880638  57.3560524  70.9573441  44.2553787  49.1434326  34.4695168
  44.7598000  48.7634544  35.1888275  43.9870338  50.0033379  34.7932281
  49.0184288  23.2546215  32.0762634  49.9547195  23.0830994  31.9753990
  48.9385452  24.2047501  31.9919548  58.6168480   8.3674240  37.5317497
  57.7621117   8.7424717  37.7438736  58.7910347   8.6592274  36.6369057
  11.1944962  34.0882950  61.3847122  10.5137396  34.2691154  62.0328674
  10.9017210  33.2892952  60.9463997  17.5818043  51.5527039  50.0135384
  18.1897583  51.5991364  49.2756538  18.0885620  51.1455460  50.7161407
  20.3023109  41.0714264  76.1892014  20.1933365  40.1610336  75.9143600
  20.6082726  41.0133781  77.0943222  24.9050255  22.8818283   9.5799685
  25.0409145  22.8167477  10.5252361  24.9626942  21.9790821   9.2669907
  63.5949669  68.7812653  15.7436666  63.2912979  68.6109238  16.6352940
  63.5240250  69.7305832  15.6437416  42.2473602   9.6609793  84.5483856
  41.5176926  10.2634468  84.4039841  41.9222221   8.8137054  84.2440033
  17.9476700  70.3685837  52.2272224  17.3083763  70.3786163  52.9395638
  18.6366062  69.7780609  52.5319901  72.2675323  41.9347572  61.1994438
  72.7941513  42.5551758  60.6954689  71.6238480  41.6030769  60.5734367
  44.7818680  46.1342926  11.5266294  44.3013077  45.3858604  11.1728725
  45.0711670  45.8457222  12.3922300  17.4672794  22.4735813  11.0741768
  17.4056969  22.5185566  12.0283346  16.5604687  22.5290337  10.7727604
  71.2824554  40.6822243  76.2296143  72.1763382  40.3527069  76.1367264
  70.7286224  39.9572487  75.9399338  45.8200264  66.5074539  13.9726324
  44.8785210  66.3800964  13.8561029  45.9514084  66.4694901  14.9200125
  34.8027344  53.7004051  56.4929733  35.7076378  54.0102692  56.5299263
  34.3094940  54.3396339  57.0071068  52.8186951  51.2525787   0.8330939
  52.7885246  50.3180542   0.6281969  52.3364410  51.3330460   1.6560081
  65.5536423  17.5363045  11.0947828  65.5870972  18.3383942  11.6160927
  65.4010010  16.8409634  11.7346544  10.0940018   9.7856493  81.2811279
  10.8876200   9.3012733  81.5086823  10.3987646  10.4889336  80.7077637
  25.8443394  32.6010704  29.7243862  25.5452251  33.2182274  30.3921318
  25.4385719  32.9095459  28.9141846   1.6192561   2.2078733   2.1758547
   2.1935949   1.6349381   2.6839020   1.9016538   3.0935252   2.4041181
   9.7294016  39.3562355  70.9489517   9.0330400  39.8638496  71.3656540
   9.9243698  39.8339119  70.1427002  40.6935310   1.0127976  70.0010910
  40.7420998   1.8946385  69.6319962  41.4031181   0.5343118  69.5724106
  42.9268074   2.1070197  40.6926498  43.6421432   1.7417520  41.2133255
  42.1377296   1.9073684  41.1963577  55.5847931  36.8001404  62.6162910
  55.9711571  35.9259491  62.5638962  55.9165649  37.2554092  61.8424149
   9.2202969  34.1802216  66.6934128  10.0920067  34.4500732  66.9824371
   9.3249464  33.2628250  66.4411011  47.4391975  19.4739285   8.6110268
  46.9788895  20.2764721   8.8565359  47.0184402  19.1958027   7.7974911
  10.0492573  37.2549133  16.4050446  10.7494001  36.6930313  16.0728970
  10.2473955  37.3597298  17.3356285  16.5293121  56.4790077  27.5801201
  16.7114754  56.9714279  28.3804760  15.6949625  56.8292999  27.2680511
  66.8481827  68.1300888  60.3636551  65.9745026  68.3606873  60.0478516
  67.4403152  68.6867294  59.8579292  39.4832039  41.2206535  16.2065449
  40.3765411  41.2320976  15.8629675  39.3549271  42.0970383  16.5694809
   6.4400058  48.1121941  59.3197250   6.0228534  47.2509270  59.3405609
   5.7717514  48.6932640  58.9563675  67.5885696  67.2648773  86.0444794
  68.2694931  67.6226349  86.6141968  67.8686142  67.4998169  85.1598282
  72.2688751  28.7558365  43.6049194  72.2792511  29.5181942  44.1836548
  71.6559753  28.9920158  42.9086418  18.8176670  24.6684170  14.9278831
  18.3842678  25.5135021  15.0471725  19.2796402  24.5176449  15.7525539
  30.5629387  39.9840317  80.3618088  31.0777779  39.8985367  79.5593948
  31.1873608  39.8116875  81.0665283  60.4109612  71.7852707  23.3033237
  59.7865410  71.2177811  23.7553101  61.1680527  71.2237015  23.1369438
  28.0058746  40.6095734  37.5227280  28.0016060  39.6524467  37.5118523
  27.3280354  40.8449287  38.1562691   5.7899036  15.8105764  81.8914261
   6.3423839  16.3455601  81.3215256   6.0913630  16.0139484  82.7768631
  10.5950298  49.6074295  39.9253960  10.8092136  50.4451599  40.3359604
  11.0629902  48.9573059  40.4494019  83.3506165  47.4971848  42.7394257
  83.0999908  47.7807350  41.8602104  84.2033310  47.0784492  42.6220627
  13.7272873  51.9343681  69.8090515  12.9232321  52.4145660  70.0068893
  13.5467901  51.4976501  68.9766312   4.4075069  60.8296051  47.5280457
   5.0799637  60.1860809  47.3046417   4.8508873  61.4473305  48.1094780
  59.8255997  10.6041908  60.6768761  60.7733612  10.5930605  60.5432510
  59.5839729  11.5273533  60.6019020  48.6442604  59.1220360  42.6163864
  48.8890915  59.4285774  43.4894981  49.3131752  58.4746361  42.3935356
  29.5274124  49.5954437  49.6530533  29.9214306  48.8136024  49.2661324
  30.2147369  49.9586906  50.2115059  64.9694519  44.7783852   8.6674976
  65.1638412  45.3709831   7.9413657  64.0866165  44.4569016   8.4845200
   5.0126576  25.4004993  78.5744476   4.2457895  25.9727268  78.6008987
   4.9366884  24.9365768  77.7406387  79.8953400   2.4836287  49.8982697
  79.1781769   1.9673572  49.5303307  80.6801910   2.1437628  49.4684677
  75.2014465  21.5157986  72.5370712  75.0677490  21.2190781  71.6368942
  75.1867905  22.4711246  72.4790344  50.5172348   3.2224786  26.6357479
  50.7785454   3.3899691  25.7302666  49.6710052   2.7810650  26.5630798
  13.0370502  40.9222641  17.3769817  13.8662348  40.8251877  17.8452339
  12.6755857  40.0365562  17.3438339  72.6541901  22.9284153  65.5652542
  73.5660172  22.6608849  65.4502182  72.1804657  22.1091099  65.7086105
   1.5403520  55.2418022  86.7145233   0.7467572  55.7764435  86.6900558
   2.2149260  55.7963524  86.3225327  70.5879898  68.3883514  17.8538246
  71.4419708  68.6971893  18.1564350  70.2528915  67.8616333  18.5794315
  65.2670288  20.9864044  34.5227203  65.6287537  20.9061317  33.6401443
  65.6832047  20.2803898  35.0172653  82.2719803  59.7361984  43.0981445
  81.6078491  59.1902885  42.6772614  82.5398254  60.3544731  42.4182739
  65.7135010  40.4768295  50.2232056  65.6149750  41.1141319  50.9305763
  65.2214813  39.7113647  50.5202103  77.6261063  59.5626793  17.9855175
  77.8381348  60.2721024  17.3788948  76.6722031  59.4926186  17.9481030
  61.7259865   5.5209432  70.1802063  61.3255501   4.9617157  70.8458939
  61.3738861   6.3933229  70.3568649  69.9934540  27.6614456  42.4241257
  69.2577896  27.0533257  42.3518791  70.5516815  27.4521103  41.6752663
  81.9919434  61.2613678  27.1525612  82.2723083  61.5298386  26.2776051
  82.6716843  60.6548119  27.4462852  27.3842335  70.0869370  30.2328949
  27.7413177  69.4164200  30.8152428  27.8614597  70.8838196  30.4641209
  57.0042572  45.3305817  31.5974522  57.1262093  46.2640533  31.7706375
  57.3007011  44.8977203  32.3980675  44.4684486  48.3451767  72.5110779
  45.3526001  48.4468117  72.1586838  44.6022224  48.1022606  73.4272232
  12.3548460  71.4535294  47.8011932  12.2449932  70.5401306  47.5368805
  11.5012436  71.8545456  47.6375427  39.7471466   1.6022651  50.1348267
  38.8815422   1.5558885  49.7288628  40.3593292   1.5272173  49.4028206
  49.3977356  45.9969063  21.2030449  48.5054703  45.9137764  20.8666210
  49.5919151  45.1393623  21.5813923  40.4737320  67.7311020  61.3232536
  40.4060478  68.5564194  60.8431473  41.3182487  67.3676529  61.0569382
  78.6103058  40.7523193   3.6535985  78.9733124  40.1476021   4.3007283
  77.6678085  40.7443123   3.8205364  31.7882519  44.2095604  66.9266663
  31.5090294  45.1251106  66.9207993  31.5495796  43.8808060  66.0599518
  75.5584793  68.9670410  76.8007736  75.2898331  69.8374176  77.0948868
  75.1882553  68.3697433  77.4506912  29.8627033  60.5600700  88.3794708
  29.6165581  61.1032104  89.1282272  30.0411415  59.6986656  88.7567902
  12.8932161  22.8349323  22.2352276  11.9570436  22.9034767  22.0478344
  13.1774464  22.0576153  21.7543697  49.3656349   9.4582586  79.5350876
  49.4822845   8.6682291  79.0073776  49.2005386  10.1511745  78.8956833
  82.3845673  45.0716400   0.8873258  82.6755829  45.4348221   1.7237698
  81.4288864  45.0991974   0.9337686  13.5782394  67.3735886  86.9942703
  12.6473770  67.4492874  87.2040329  14.0180635  67.3987350  87.8440704
   8.8765678  31.8460236  17.0782585   8.4706602  31.4814987  17.8647671
   8.6414938  31.2332878  16.3814621  83.3404160  70.0371628  79.5018845
  83.2926941  69.0820694  79.5436707  82.5066071  70.3018723  79.1133957
  11.3803596  19.3712177  58.2425690  11.3614216  19.8413105  59.0761681
  10.8705521  18.5772629  58.4036980  11.8062258  63.9374161  21.0636139
  11.3100338  64.7536011  21.0014534  12.7214556  64.2155838  21.0984211
  28.6559315  24.3187790   7.6050544  28.5134125  23.6192131   6.9674597
  28.5473270  23.8933945   8.4556332  81.9299164  40.0195580  78.0468597
  82.7531662  39.5864906  77.8211517  81.9724426  40.8638229  77.5978088
  50.3635025  18.4855289   5.6900716  50.0617981  18.8952599   6.5008297
  51.2437172  18.8373280   5.5570598  85.3793259  60.6253548  12.5199547
  86.3071060  60.5108910  12.7257538  85.3669357  61.2905884  11.8318110
  45.8365784   6.3146200  60.4688301  45.0938454   6.9125042  60.3844566
  45.5317459   5.4969711  60.0754318  30.6062489  55.6419868  66.3327789
  31.3963146  55.4812202  66.8487091  30.3230934  54.7721405  66.0509720
  37.7147560  27.2106304  38.8981361  36.9104767  27.1920815  39.4168091
  37.5730019  27.9111004  38.2613640  58.0710526   3.3484778  78.5934677
  58.7152214   2.6605065  78.7607193  57.2596474   2.8764596  78.4062500
  48.2627563  21.2902222  74.1228180  47.8068275  22.0634098  74.4552917
  47.5857849  20.7909451  73.6660156  42.6529579  12.8918552   6.0191746
  43.5990868  12.7877512   5.9180140  42.5335922  13.1113930   6.9431810
  16.3638992  16.2869663  29.8140373  15.6644869  16.9382515  29.7603645
  16.3129883  15.9541225  30.7100601  58.3652916  23.6403313  69.8837357
  59.0555305  24.1857471  70.2609940  57.5518608  24.0866241  70.1190720
  28.7213230  58.3174133   0.4894013  28.9724503  57.4459534   0.1832619
  27.8435345  58.4529076   0.1325261  16.3800545   4.1229458  71.1224976
  17.3005562   4.2701521  70.9051514  16.3596668   4.1057520  72.0793228
  75.4032364  64.6907654  42.6178665  75.4690399  65.5756683  42.2589149
  74.4805527  64.5962524  42.8544121  25.0252876  39.6236954  37.1034012
  24.5990276  38.8581657  37.4887581  25.4033890  39.3008881  36.2854347
  83.9019547  45.5119095  39.8590927  84.1977005  45.0932655  39.0506973
  83.0725403  45.9278030  39.6238823  62.1158371  49.3185768  21.8241024
  61.6076050  49.8856049  22.4041119  61.4756584  48.9815865  21.1973286
  74.1423874  33.2930717  28.4431858  73.8354111  32.4596710  28.8001709
  74.0514679  33.9119873  29.1676922  52.4940643  11.3309135   8.3954735
  52.0459366  11.3181314   9.2411985  53.2721977  11.8679752   8.5448208
  60.2275543  14.9961224  50.8072395  60.5691681  14.1090279  50.9194679
  60.5779762  15.2828131  49.9638863  27.4058990  29.2970009   4.8429594
  26.9803810  28.6557255   4.2738094  27.7897682  28.7746868   5.5472789
  79.6079559   8.1155682  49.4822311  79.7391281   7.2851839  49.9399338
  78.8742142   8.5273247  49.9386444  74.2045364  35.4364738   3.3375788
  74.2389221  34.9131546   2.5368373  75.0860596  35.3706818   3.7047472
   9.2677212  22.2053375  86.6981659   8.7344971  22.6140308  86.0163498
  10.1329508  22.1093044  86.3001862  73.2915497  32.3908195  16.3167686
  72.9273682  32.8158226  17.0932827  74.0680771  32.9079285  16.1026897
  11.5864153  22.6054916  85.2620392  12.4430408  22.2729721  85.5300980
  11.6554546  23.5547714  85.3637085  17.7998466   0.8342908  27.0261707
  17.6106949   0.3909643  26.1991787  17.2259922   0.4083698  27.6629715
  72.9947281  28.1793308  60.0912018  73.0305023  28.9448299  60.6647568
  73.2723465  27.4507866  60.6465263  47.7976456  24.1577873  44.7413445
  48.3815117  23.4703274  45.0618591  46.9244652  23.8776016  45.0157204
  50.8828354  42.6470490   5.7702584  51.6701393  42.9181786   5.2981625
  50.1617928  42.8703041   5.1816282  22.1794319  48.2238083  45.5517311
  21.6743431  48.2127266  46.3647461  23.0717831  48.4339943  45.8269844
  68.8728790  27.7966347  49.8855362  69.5677338  27.5529728  50.4971199
  69.0149002  27.2332325  49.1248512  33.1879272   4.7293625  70.6304016
  32.6048164   3.9754908  70.7192612  33.1756363   5.1446190  71.4927521
   0.9345650  32.5333748   3.2986369  -0.0044734  32.4599113   3.4690540
   1.0260466  33.3513908   2.8100545  76.8810654  17.7414246  16.0667419
  77.7234421  17.7403431  15.6121655  76.4267654  18.5125771  15.7273836
  52.3242455  25.7369690  60.2350311  52.3823776  25.0826130  60.9312134
  53.2271461  25.8525944  59.9389992  30.7945080  58.6999130  71.8356094
  31.7344036  58.6992950  72.0167923  30.7327480  58.8425140  70.8911133
  46.0659637  51.6040001  81.0239716  45.1381416  51.4003143  81.1418152
  46.4746170  51.3461266  81.8502502  62.8390541  28.9576855  55.5556908
  62.6318703  28.8596325  54.6263428  62.7176056  28.0816803  55.9218826
  77.4006119  19.8700886   6.2584362  77.9926605  19.6214809   6.9683027
  76.5498657  19.9793949   6.6832981  40.3511848  58.1756897  33.4585037
  39.5592957  58.1555786  32.9211578  40.3474693  59.0454903  33.8580818
  39.8540115  36.0000839  82.8603363  39.6603775  35.1996346  82.3724670
  40.1397133  36.6240807  82.1930847  25.1377850  65.0639420  88.3063583
  25.8148022  64.8688507  87.6584244  24.7866859  65.9129333  88.0376968
  34.0329170  13.8221273  84.5932999  34.5870857  14.5793877  84.4043884
  33.2548714  14.1926851  85.0099106  47.2335510  53.8186302  65.3027191
  47.0063095  54.6700706  64.9290314  47.5629044  53.3115845  64.5606537
  61.7443123   7.9645915  49.1347733  61.5279655   8.8381777  48.8087769
  61.1173325   7.3852816  48.7017288  39.8803482  67.9307175  23.0923767
  40.4398804  67.2464905  22.7249641  39.2232323  68.0919952  22.4153080
  80.8239441  70.1875381  54.2580223  81.7192078  69.8994217  54.0799332
  80.6417923  70.8370438  53.5789146  35.4545403  45.3017159  70.7728271
  34.5740128  45.6015587  70.9986496  35.5451355  45.5044022  69.8417282
  36.7808571   9.5820808  88.7559738  37.5543976   9.9988251  88.3762436
  36.6683731   8.7783222  88.2484741  15.9310856  27.0033131  11.7354441
  15.8901033  27.9578648  11.6772776  16.6286640  26.8316326  12.3680115
   8.6022377  44.1313438  27.4438133   8.4700470  44.1828957  28.3904381
   8.2986145  43.2550201  27.2069511  46.4767151  21.6607056   9.9175873
  45.6165504  21.2531281   9.8164234  46.4927902  21.9639645  10.8253355
  47.2274323  29.4364109  23.0177612  47.7865562  29.1767654  23.7500153
  46.7251205  28.6488113  22.8089485  68.3354797  34.8617249  84.0774078
  67.9541245  35.7349510  83.9864273  69.2422562  34.9651146  83.7887878
  32.6876450  36.2731056  85.0246658  33.5779800  35.9828377  84.8264694
  32.3765106  36.6655731  84.2089462  52.7591972  52.8907242  78.8333740
  52.5155106  52.0226555  78.5119705  52.2429886  53.4965935  78.3016968
  76.7776642  37.7532158  24.5224075  77.0327072  37.1188393  25.1922989
  76.0224228  38.2065544  24.8970089  58.1689568  13.2099314  45.1366730
  58.0783958  12.2728195  45.3094521  57.8410759  13.6326141  45.9304390
  70.2488937  62.3323555  10.7143202  70.7295914  62.0852356   9.9243240
  69.3600464  62.0103149  10.5644159  64.6070938  54.0521431  79.1831131
  65.2456818  53.3462181  79.2836380  64.8032761  54.4324493  78.3268890
   0.3137744   4.4221668  41.2733688  -0.4509704   4.0815067  40.8093109
   0.6248369   3.6836717  41.7969093  74.4498672  61.4038696  75.1045456
  74.1067886  60.6801300  74.5803986  75.3162155  61.1077309  75.3837814
  76.0200195  56.3283691  34.0235672  75.1384735  56.6920357  33.9408073
  76.4998474  56.9780006  34.5373497  23.2831192  37.3691330  76.0855255
  23.9373894  36.7596550  76.4271393  23.2186775  38.0509453  76.7542648
  12.4400215  42.6708298  13.7664137  12.6485252  43.3483810  13.1232328
  12.2278595  41.8992081  13.2412281  47.9883652  16.7043896  80.8358002
  48.8146553  16.8995476  81.2778244  47.9544258  17.3240242  80.1070099
  45.5418549  44.1045189  40.3434906  45.0357475  44.4678001  41.0702057
  46.3499069  43.7892914  40.7483521  59.6900864  17.1891880  23.3752327
  60.5358849  17.0305557  22.9560757  59.0538750  16.7664051  22.7984123
  38.5773239  50.6701317  27.9719315  39.5334511  50.6716385  28.0171909
  38.2994576  51.1352577  28.7610302  54.8431740  12.1834536  83.6105423
  55.7035904  11.7668257  83.5621872  54.3020668  11.6875591  82.9961090
  64.7004242   1.0262786  31.0118618  65.0702515   1.0862134  31.8926964
  63.8436241   1.4471229  31.0826836  51.4310341  40.2125397  29.6994667
  52.1239319  39.5559387  29.7701569  50.7668839  39.8012810  29.1462917
  12.2537231  60.7745476  51.4034920  12.2022324  60.1508331  50.6792259
  11.4231672  61.2492142  51.3703156  11.6137180  49.3443527   8.0738316
  11.6498814  50.3004990   8.1004524  12.5264320  49.0677795   8.1556320
  66.0614853  16.0800819  43.7162743  66.3124313  15.7756262  42.8441696
  66.7211227  15.7051687  44.2998428   8.6979313  18.0747566   9.6180534
   8.7408724  18.5044289   8.7637882   8.6533051  18.7952957  10.2465944
   5.4446688  27.7958336  45.9123306   6.0456104  27.2128201  46.3762207
   4.8106246  28.0645313  46.5771751  77.0687637   0.6942331  33.2393341
  76.6607056   0.2769888  33.9980316  76.3348465   1.0484555  32.7372208
  83.5219650  41.7631493  44.0443230  83.6663513  42.7083054  44.0898056
  84.0792313  41.4701538  43.3233223  58.4227028  36.8473816  25.0414677
  57.7168846  37.4901161  24.9711666  58.8735237  36.8935356  24.1983414
  77.9317780  28.6317501  72.3186264  77.0876617  28.4474621  72.7306061
  77.9456177  29.5833492  72.2161636   1.0183496  26.8157883  72.0094757
   0.0670951  26.7983780  72.1145630   1.1780382  26.3398056  71.1945114
  17.5574360  19.6523380  23.0172386  18.4841976  19.6354752  22.7783642
  17.5299854  20.1482811  23.8354797  47.7077980  69.2308731  71.8258057
  47.3528671  68.3419113  71.8243713  48.1602631  69.3094711  70.9859619
  67.1175842  17.1544304  73.1540298  66.3165970  17.5150223  73.5343399
  66.8651428  16.8913250  72.2689972  71.9967041  47.5137024  11.4407387
  71.9649811  48.4623642  11.3172035  71.7183380  47.1530991  10.5988874
  40.9718666  46.2489586  81.1611862  40.6184769  45.6035843  80.5489502
  41.3907013  45.7261963  81.8449478  37.1494637  54.6316490  12.5829830
  36.6720619  53.8298721  12.3697224  37.9436302  54.5863342  12.0505600
  46.9955330  23.7997169  28.8803349  46.5894699  24.3698654  29.5332336
  47.1978722  22.9950867  29.3576832  72.6835556  71.8642273  71.4165115
  72.5891190  71.2436218  72.1391220  71.9262466  71.6959991  70.8557892
  43.7388268  53.4947472  85.0016251  43.3874207  54.3653412  84.8150558
  43.6620216  53.4039459  85.9514084  13.2356396  28.5184956  15.5692062
  13.0715647  29.1044865  16.3080750  12.9519119  27.6581383  15.8782597
  55.4879036  39.3245506  71.9528503  54.7326164  39.2102890  71.3760300
  56.2341843  39.0281525  71.4318390  85.7287750  40.9053154  48.3989983
  86.4894943  40.3373299  48.2767868  86.0373077  41.5959778  48.9855309
  27.4258556  50.9485893  30.3494053  27.7473927  50.0504990  30.2701683
  27.6294346  51.1972008  31.2510605  42.4583931  41.4362755   8.2181511
  43.0339622  41.9352722   7.6385374  42.4661751  40.5494690   7.8579559
  72.3232880  50.8438911  83.5023270  71.9743500  50.4921532  82.6833267
  72.6763916  51.7009888  83.2637100  18.9878254  49.7870941  35.3281784
  19.4848976  49.7560883  36.1456070  18.2667332  50.3900337  35.5090714
  12.7452488  37.1868095  63.4307404  12.7054234  38.1321068  63.5758362
  11.9294329  36.9798889  62.9748192   9.1046915  67.2863922  30.9601479
   8.1506414  67.3123322  31.0332756   9.4072227  68.0031738  31.5177612
  59.1412506  17.8701439  29.5896454  58.4794617  17.6167641  28.9461651
  58.7657127  18.6311169  30.0325050  47.4958000   6.3407412  36.0748444
  46.7849274   6.2653751  35.4382820  47.0825882   6.7171602  36.8518867
  73.4298782  31.4233875  88.5769958  73.9457092  30.6313972  88.4256592
  73.5898895  31.9647865  87.8040009  73.2250366  26.3723831  62.2613831
  72.5108643  25.7481441  62.3898697  73.1304474  26.9960499  62.9813309
  73.0083466  26.9572716   7.1216316  73.3666916  26.1444912   7.4782958
  73.5831604  27.6424503   7.4627399  35.9067688  15.4221268   9.9855251
  35.3375015  15.1192436   9.2781153  36.3656502  16.1770630   9.6171074
  83.8855972   7.1037502  34.4266357  83.2503433   7.8179169  34.4780960
  84.6735611   7.5096669  34.0652733  41.8632584  47.4822960  22.6662483
  41.5081444  46.7998543  22.0966873  42.7452049  47.6403732  22.3294792
  70.0008240  16.1625729  67.1949158  69.3901215  16.8639851  66.9684296
  69.4625854  15.3711338  67.2074509  43.6613274  37.6036415  27.6235466
  43.4238243  38.3759270  28.1367741  44.2677078  37.1203194  28.1847363
  42.8030357  15.2512207  11.0550404  43.5213051  15.2269173  10.4227991
  43.1388664  15.7799244  11.7788639  73.7528610  31.7750740  59.9514122
  73.4837952  31.9198074  59.0442810  73.3711166  32.5080795  60.4343262
   0.6455417  39.6194077  19.7356091   0.2995693  40.5116997  19.7168255
   0.4484284  39.2677689  18.8674335  28.7519951  51.5653496  39.1581421
  28.8208523  51.6039925  40.1120796  29.4074421  52.1888199  38.8452415
  11.0710764  50.7736740  87.2200165  10.7089396  51.6242104  87.4683762
  10.3136301  50.1889763  87.1948395  43.6308861   1.3731526  31.2840233
  43.9752693   2.2662127  31.2927265  42.7088509   1.4696743  31.5222740
  46.3589211  62.0623932  24.5636234  45.4123306  62.1565247  24.6701012
  46.4581871  61.4243393  23.8570366   5.7327666  42.7905350  66.3051147
   4.9505973  43.1743584  66.7014999   5.7933354  43.2053528  65.4445953
  48.7102966   2.7950771  75.7357635  47.9152145   2.7768221  75.2030869
  49.3903847   3.1098561  75.1402588  22.4485111  14.6786909  65.7757187
  22.6233597  14.4687109  64.8583450  23.2640362  14.4663677  66.2296677
  21.9583912   0.4633453  11.5224571  22.4707623   0.5118037  12.3295259
  21.0842667   0.1989396  11.8092079  47.6896362  23.7440529  63.3031731
  48.2990608  23.9780827  64.0032120  47.0635834  24.4677200  63.2787628
  67.0368042  42.8047943  24.1975422  66.1642151  42.5708275  24.5138912
  66.9996109  43.7529259  24.0714645  85.0982971  35.2114944   2.9010744
  84.9171295  35.2007523   3.8409119  84.8707123  36.0988159   2.6234088
  56.7465477   4.2007499  51.7065468  57.2518806   3.5144918  51.2707481
  56.9387550   4.0854025  52.6371307  39.4066849  45.8427048  74.2697601
  39.5024796  45.2966766  73.4894409  40.2610092  46.2612305  74.3755875
  80.1399918  25.5409470  61.2546539  79.2358017  25.8530159  61.2903633
  80.5699539  26.1237011  60.6287422  28.3372650  55.3057442   6.7550602
  28.9076290  56.0744514   6.7525253  28.8743877  54.6102180   7.1345015
  85.4794846  35.9649391  33.8707008  86.0192261  36.3573761  33.1844673
  85.8398743  36.3120193  34.6867218  31.5474167  69.4685974  31.9288769
  31.2516594  69.3907928  32.8359070  31.1300278  70.2682571  31.6086159
  58.4066849  64.7827911  30.7837086  57.4645920  64.8210754  30.9487209
  58.7104492  65.6801605  30.9203796  20.2517338  31.4326286  15.7419872
  20.2742462  31.5097694  16.6958084  19.9777012  32.2979584  15.4381094
  86.6552658  59.8189583   1.7437700  87.4242554  60.1799622   1.3026789
  85.9329224  59.9812927   1.1370600  76.5465469  21.4838734  67.7089996
  75.6747971  21.5713692  67.3234787  77.1143112  21.2648678  66.9701385
  60.7592354  49.7507286  26.4335899  59.9717789  49.2067032  26.4202118
  60.7416725  50.2181015  25.5984325  50.0553703  32.9392471  45.8130875
  49.1606674  33.2732925  45.7486343  50.6019173  33.6536293  45.4857101
  23.9056129  16.6061935   2.3333237  23.3946896  17.0939312   2.9793119
  23.8231678  17.1166573   1.5278043   5.6144190  28.5322914  35.3649940
   4.9055181  28.7509403  34.7601089   5.9603605  27.7017136  35.0383492
  71.0996857  71.3762512  65.4060898  71.5054474  70.7826462  64.7742462
  70.4036331  70.8574600  65.8093338  86.9238358  35.0369225  83.3582382
  86.6928406  34.1606483  83.6664886  86.7035522  35.0289536  82.4267654
  53.9186516  31.9064808   9.7518930  54.5289650  31.7957668  10.4809294
  53.8612099  31.0379734   9.3536129  78.5342331  60.8560486  42.3921127
  78.1575851  61.7250137  42.2533035  77.8101730  60.2520523  42.2273140
  18.6584301   1.2858456  57.0877533  17.9025936   1.3783660  56.5077667
  18.7799873   0.3403018  57.1737938  78.9026260  70.1400452  38.6364021
  79.8214188  70.2773438  38.4057655  78.8697357  69.2414246  38.9644699
  61.2192459  42.6943054  38.6604538  60.6246910  41.9514122  38.5563049
  60.9231834  43.1276360  39.4609528  76.4294968  36.0735054  59.2496109
  76.7987823  36.9347610  59.0544205  76.0012894  36.1833267  60.0986137
  53.2116165  30.6226540  56.6446724  53.6022377  31.2344284  57.2686729
  52.9917374  31.1626282  55.8855171  77.5201950  55.9786453  31.8967609
  76.8532639  56.0505066  32.5796013  78.3505402  56.0858154  32.3607368
  84.5909195  10.2070084  47.1183319  84.6523209  10.1159916  48.0692177
  85.1201782  10.9787312  46.9169235  51.0253181  69.1752930  29.9385891
  50.2066345  68.7499161  30.1936226  51.1573677  69.8558350  30.5986347
  75.9824295  50.2405090  29.6110229  75.6127167  50.4075279  30.4780025
  76.7218094  49.6550484  29.7746677  20.9021149  41.4572029  57.4279938
  21.6041279  41.0230560  57.9126892  21.3563251  42.0050087  56.7878113
  25.8696594  14.9965162  87.6488495  25.9602871  15.9402847  87.5172501
  26.7360649  14.6424379  87.4483490  78.4088898  43.2762604  21.1753750
  77.7132263  43.2378807  20.5190144  78.1811218  44.0282173  21.7221031
  50.0460281  10.5198145  45.1808014  49.2335548  10.3750973  45.6657486
  50.0335693   9.8577585  44.4896011   9.0200729  47.3819084  83.6105499
   9.7891941  47.8128662  83.2377777   8.3048525  47.6140480  83.0182648
  85.2280121  21.1641903  31.7484627  84.9128571  20.3708572  32.1815071
  85.5640869  20.8595619  30.9055595  10.3808270  44.6931915   1.7761846
   9.9100561  45.3447952   2.2958205   9.8921480  44.6434593   0.9546304
  39.0867119   2.1381142  46.5596886  38.5812988   1.8878775  45.7862740
  38.5615349   1.8310020  47.2986755  54.1584244  23.5892868  35.2348862
  54.7594757  22.8448277  35.2622528  53.9243202  23.6742611  34.3106537
  79.5086975  46.9348297  11.2594223  78.5794373  46.7095833  11.3038063
  79.8591003  46.3711357  10.5697145  14.1258602  55.2588959  71.4420853
  14.7555199  54.7579117  70.9236450  14.2853823  56.1703949  71.1972275
  48.0509338  32.1463470  28.1881447  47.1536217  32.2049141  27.8600655
  48.5836639  32.0074730  27.4051075  52.3364067  58.6876030  49.3023605
  52.9972916  58.1752510  49.7681465  51.6997032  58.9262619  49.9760742
  49.4319649  29.9247551  73.7438583  50.2340012  30.1850605  74.1968613
  49.6033249  29.0306492  73.4481506  32.1529198  69.8974152   0.8936158
  31.5070171  70.6007309   0.8273132  32.3559647  69.6723251  -0.0143142
  46.5935020  51.5110550  10.5178194  46.7250557  52.4516640  10.6369133
  45.7561646  51.4425087  10.0591211  25.9112339  22.6954765  20.7411823
  25.4437180  22.6179199  21.5728359  25.8977242  23.6323204  20.5452862
  20.3460941  13.7159739  27.3965778  20.8310604  13.6365290  26.5751591
  21.0215511  13.8492346  28.0615826  60.4745598  22.3492031  68.7230759
  60.3754539  21.5887089  69.2958374  59.7788544  22.9471531  68.9963608
  31.3220119  52.4215508  43.6958466  31.5965939  53.1331100  43.1174736
  32.1410904  52.0409088  44.0127983  33.7296371  47.2542648  60.0384483
  33.2040024  46.5916328  60.4866219  34.3632698  47.5421104  60.6956291
  57.5083084  13.8970213  27.4093494  57.5471230  13.5113544  26.5341434
  57.4917946  13.1453724  28.0017891  53.3817024  26.1949120  78.7193604
  53.5451698  27.0448971  78.3106613  53.2601700  26.3948536  79.6475220
  47.1965027  30.0051956   8.5553970  47.1954460  29.5300159   7.7244725
  47.3288078  30.9203072   8.3078156  65.9940186  46.7421227   7.0364223
  65.5179977  47.3820496   6.5071516  66.3647308  47.2541161   7.7552147
  83.6228867   9.3884344  22.9156227  84.0387115   9.0778093  23.7198830
  84.0569916  10.2205362  22.7274990  37.0196037  56.1067848  28.4696178
  36.2088623  56.6121368  28.5291595  36.8049088  55.2620583  28.8653126
  38.8904152  13.1732244   1.0634207  38.7755241  12.2702932   1.3596443
  39.1144371  13.0944166   0.1361476  21.8997345   4.3602490  69.3384552
  22.0891914   5.1601462  69.8288651  22.4906502   4.3948660  68.5862274
  56.5137177  38.6782379  85.6492691  56.6455078  38.0930748  84.9033203
  55.8315277  38.2534676  86.1692886  20.1579781  30.6049900  84.7000732
  19.9256554  30.6575565  85.6271591  21.0357361  30.2232285  84.6943893
   2.3067517  34.5533028  67.2376480   1.3680168  34.3751373  67.2947998
   2.4478765  35.2880287  67.8347168  82.3254318  66.8229599  23.2448807
  81.5075912  66.8943024  23.7370968  82.7976913  67.6307144  23.4467068
   8.6345129  47.5133781  25.5835304   9.3914700  47.1015434  26.0002308
   8.0606709  46.7826042  25.3535194  44.8193130  11.4584293  56.1561050
  43.9181976  11.5045605  56.4756241  45.3495865  11.7716818  56.8888512
  26.5141220  64.3220673  35.0000916  26.3217316  63.8400078  35.8043480
  26.1318874  63.7881927  34.3035965  44.7007942  32.6418610  20.8605442
  44.5707550  33.5337715  21.1827545  45.1448059  32.7532425  20.0199013
   4.4282551  62.6028404  78.2896042   5.1025620  63.0492706  78.8017044
   3.7849874  63.2843781  78.0948029  11.7456980  55.9870110  43.2991943
  11.8450260  55.1166191  43.6849174  12.6320457  56.3483505  43.2919540
  41.5771751  65.2445450  71.6581879  42.1696281  64.4927292  71.6590195
  42.1477661  65.9992981  71.8031311  57.1982231  20.8645992  69.9741440
  56.5601959  21.4522114  69.5693436  57.9691734  20.9227734  69.4098053
   5.4180560  40.5037117   0.4085569   5.9256005  39.7650185   0.0724513
   4.5256577  40.1660767   0.4851223  23.3988018  54.1076660  65.5977707
  22.6243763  53.6402740  65.9108810  23.2634163  54.1901093  64.6537857
  49.8987045  12.5777493  14.9659052  49.0068321  12.3336248  14.7185259
  50.0690269  13.3855352  14.4814434  58.0868378  42.4481010  27.6771431
  57.7819901  43.2435303  28.1137123  58.8535004  42.1766663  28.1819019
  75.2712936  37.6368561  15.2787809  75.0141068  37.8053894  14.3723135
  76.1760483  37.9447479  15.3322420  80.2240295  68.1953201  12.8098774
  79.7882233  68.6702805  12.1022654  79.7074890  67.3964462  12.9157858
  21.7255688  50.5988045  44.6959801  21.6169453  49.7270546  45.0760994
  22.1621895  50.4422836  43.8586655  18.0149918  24.8400135  73.6454620
  17.7506676  24.6849594  72.7386475  18.7648907  24.2602711  73.7788239
  53.9568634   8.1344795  73.2904282  53.3918343   8.7971077  72.8930588
  53.8253403   7.3537450  72.7524796  79.4014359  46.1808357  41.5948792
  80.0158768  45.4613800  41.4496613  78.8171616  46.1534424  40.8371773
  21.0187531  63.7122841  66.2874985  21.0830307  62.9644699  65.6934738
  20.3390560  63.4630241  66.9136887  55.3780136  70.3180618   7.3810644
  55.6921997  69.7333755   6.6913815  54.6724205  70.8168106   6.9692245
  58.1111221  31.4349270  13.4184198  58.9135818  31.0961990  13.0214834
  58.1645317  31.1642075  14.3349848  61.9398842  53.4373703   8.5712271
  61.5258026  54.1600914   9.0428629  62.3667755  52.9193993   9.2536516
  29.8643074  52.7108841  62.1016502  29.1635494  52.9038734  61.4788170
  30.6630154  53.0008774  61.6609650  33.5082550   6.8945169  23.2839413
  34.4494820   6.9106560  23.1105499  33.4348259   7.0633850  24.2232628
  49.8916550  28.4929333  12.5342321  50.3345222  27.8575878  11.9717035
  49.1955376  28.8543339  11.9855623  83.8044434  65.6741714  15.1313086
  84.1247253  64.9080200  15.6073923  82.8511810  65.6131973  15.1929197
  22.3547840  50.0599976  30.7174892  22.9353638  50.1465683  29.9614048
  22.6381416  50.7500420  31.3173046  39.2430954  14.0000172  80.5803986
  39.0121269  13.9729366  79.6518784  40.1938667  13.8901243  80.5940094
  40.2198296   1.1312850  43.3157387  39.3771286   1.1315199  43.7697067
  40.0097046   1.3971428  42.4205284  59.3175430   5.8680997  56.8360786
  59.5982742   6.0761876  57.7272148  59.0615158   6.7114010  56.4625511
  38.5827827  44.7858658  25.8609066  39.0416489  44.7749214  26.7008781
  39.1497269  45.2987556  25.2849312  37.6102943  30.5827274  69.5965271
  37.5964165  29.7149754  69.1927338  36.7094879  30.7263508  69.8866119
  60.2410774   5.5208378  17.8854675  60.7864494   6.3051848  17.9454765
  60.0700912   5.2778192  18.7953777  19.4985332  20.1946659  13.3999138
  19.5588989  20.3067207  12.4512138  18.8209438  20.8137779  13.6715822
   0.8737100  68.4746399  38.2395325   0.6600866  67.5460510  38.1482925
   0.6819881  68.6756287  39.1555405  86.2774734  66.7400513  10.5846901
  86.4255905  67.4867096  10.0043516  85.4255829  66.9133606  10.9852877
  58.7248535  71.0105972  69.2136688  57.9455757  71.2498245  69.7153931
  58.5864220  71.4061737  68.3530960   9.6511011  65.0450668  41.7480431
   9.5275774  65.8637772  42.2283440   9.9606724  64.4246216  42.4079208
  53.8210373   9.6049109  45.7576256  53.7689400  10.5322981  45.5263901
  53.7481918   9.1450720  44.9212799  37.2750740  14.8990154   2.8298638
  37.7785835  14.4245119   2.1683817  37.6630592  14.6321373   3.6632164
  56.3474464  29.0154190  54.4361229  56.6713943  29.7326221  53.8912315
  56.3483849  29.3706360  55.3249702  60.1154175  30.9434490  60.0456009
  60.7338753  31.1412334  59.3423080  60.6598663  30.5988293  60.7534447
   3.1740761  15.5858698  12.6370611   3.8534167  15.5939312  13.3113480
   2.5211487  16.2132626  12.9473763  79.9548340   9.4899292  65.4400253
  80.8771667   9.4670105  65.1850662  79.5206223   8.9027491  64.8212280
  52.3579979  57.9386940  27.8832455  51.5911255  57.4160957  28.1178322
  52.4906693  58.5191307  28.6327286   2.6983237  37.2565231  69.0386124
   2.4909177  38.1896935  68.9894943   2.9734411  37.1197090  69.9451599
   9.0553808  70.4520950  18.6832104   9.2315674  71.2849503  19.1208649
   8.1270065  70.2868118  18.8476372  43.6326675  14.2818823  64.0852966
  44.5558815  14.1972971  64.3235245  43.5970993  15.0675850  63.5397377
  79.2116699  35.5751305  57.1756554  78.8459473  35.2256546  56.3630409
  78.8311157  35.0293388  57.8637810  61.6017609  57.9332466   5.0762281
  62.4598465  57.7188873   4.7102103  61.3944817  57.1949158   5.6490588
  28.5955524  29.0571327  17.2278805  29.4455185  28.6175003  17.2052402
  27.9621029  28.3481998  17.3391876  68.8122559   5.2683606  41.7163277
  68.3788223   4.9479704  40.9253044  68.3419189   6.0719104  41.9384079
  50.3009491  60.3944206  77.3452911  49.7300453  60.3899918  78.1135941
  50.7111168  61.2592125  77.3566666  45.2757149  46.6818352  57.6400375
  45.0138321  45.7789459  57.8201561  45.6671257  46.6480942  56.7671738
  71.8137436  16.6009350  37.5916786  71.0418549  16.1561089  37.9417572
  71.4617462  17.3554287  37.1193771   2.3176298  55.6058006  25.3837566
   2.4447455  54.8460655  24.8155308   1.4463869  55.4804840  25.7598724
  71.5635071  45.0989037  56.5427170  70.9818649  44.4462967  56.1528168
  71.0828400  45.9232826  56.4679413  64.3412094  25.2239552  26.9093304
  64.1692123  24.9677830  27.8154335  64.7709961  26.0764084  26.9788990
  52.2869987   8.6317835  13.3832932  51.6242523   8.3621082  14.0191221
  51.8047943   8.7316856  12.5624819   5.9652510  57.2926636  61.2910805
   6.5787220  56.7179298  61.7488670   6.0018349  58.1170158  61.7761917
  65.2380142  19.8525810  89.1555023  64.4427261  20.3304005  88.9200287
  65.9496002  20.4647026  88.9679337  48.1127014  29.7318516  11.1887732
  47.3850517  29.9552059  11.7691774  47.6993980  29.5548019  10.3437490
  36.5086861  70.4340057  25.1087284  36.0033798  69.8080063  24.5900555
  36.8409767  69.9214249  25.8456650  76.3698196  12.7994118  15.9004078
  77.0924530  12.2673216  15.5673609  76.5887299  13.6929855  15.6361370
   6.5244632  56.2147408  25.1467323   7.0893326  56.7381058  25.7152767
   6.5023251  56.6979027  24.3207207  76.8522339  71.2065430  21.9677391
  77.5282593  71.4586258  22.5967731  76.3294067  70.5501556  22.4282074
   3.4659700  35.4127312   9.5077620   4.3729920  35.6697235   9.3419313
   3.4848967  35.0157356  10.3785467  80.1978455   7.6321921  11.3342009
  79.9502945   8.4279423  10.8633146  80.3728333   7.9273100  12.2277985
  16.5532970  33.2476845  72.7493896  16.1000233  33.6605415  73.4844589
  15.8512917  32.9661064  72.1627655  13.7848063   4.4867320  65.5162125
  13.2328749   4.0407658  64.8737869  14.0577974   3.7949176  66.1187973
  13.8484783  53.5358429  75.6966553  13.7649651  53.0130272  74.8992081
  14.6975117  53.9694633  75.6109467  55.9731483  43.0595970   7.1435242
  55.8851738  42.1456375   6.8730321  55.1747932  43.2404594   7.6396556
  80.1516647  17.9522114  70.9695892  79.4957352  18.4902859  70.5263443
  79.7548599  17.7379341  71.8139038  45.1835365   6.0091467  34.6861649
  44.4963417   5.9496980  34.0224953  44.9857483   5.3016262  35.2997856
  57.3462486  26.5954380  42.2133255  58.2522163  26.8675499  42.0670013
  56.8707466  26.9262791  41.4513054  51.7910843  10.7433414  65.1098022
  52.5800591  10.3774319  65.5096283  51.8567009  10.5018387  64.1858978
  55.6402359   1.0265626   2.5659318  55.0502930   0.2809463   2.4552221
  55.9636345   1.2091551   1.6837157   8.4831266   3.0033090  35.0310669
   8.5450478   3.2730489  34.1147499   9.3638763   2.7001569  35.2515411
  54.3650513  30.0864449  46.9309235  54.9221916  29.9856606  46.1591263
  53.6226692  30.6069756  46.6240883   6.8717351   3.0379970  62.7572746
   6.8303294   2.5949354  61.9097977   7.1171341   2.3497643  63.3756180
  64.6695099  11.7752914  42.0339622  65.2259064  12.1366844  42.7239189
  64.9657288  10.8702765  41.9368362  31.4593945  66.8180466  81.6113586
  31.5101051  67.7725143  81.6628571  32.3674355  66.5354767  81.5025177
  39.5898933  10.7611561  12.9005127  39.7830925  11.2865162  13.6769800
  40.0676613   9.9434662  13.0396252  61.1156387  22.7089348  53.4807930
  61.4329948  22.0028801  52.9177628  60.9182739  23.4257126  52.8778763
   0.3307589  18.8819580  22.1297016   0.4952152  19.8220940  22.2027111
   0.7758444  18.5014381  22.8868904  24.1812820   2.6050169  65.5335083
  23.6936626   3.3879344  65.2775803  24.4237404   2.1922386  64.7046127
   0.7661783  37.5843582  60.6949158   0.8593649  36.7239418  60.2859802
   1.3653584  38.1482010  60.2057381  30.4746418  53.9805412  19.2496300
  30.2563744  53.1360092  19.6437778  29.7004471  54.2127914  18.7368774
  67.3533478  30.0231743   5.9472089  67.5327072  29.6353455   5.0906744
  67.9429474  29.5647335   6.5459065  11.0355148  62.3381920  75.4456253
  11.5268993  62.0260620  76.2054596  11.4864693  61.9532776  74.6941528
  54.4801178   6.7220645  53.7506256  53.8235855   6.7795100  54.4448128
  54.3417587   5.8587899  53.3609505  11.0222721  34.0192680  10.8910265
  11.6516161  34.1998291  10.1927748  10.2710590  34.5760269  10.6862555
  49.0007286  37.5645714  18.2774258  48.4436493  38.3409424  18.3334618
  49.8569183  37.9025726  18.0148849   7.4818411   0.9622891   8.1761465
   6.9162917   1.7286757   8.0810823   7.9010849   0.8664479   7.3209963
  26.7059250  58.4150238  87.7458038  26.9325981  57.7419510  87.1040649
  26.8338871  59.2419357  87.2809677  26.2373600  47.1790581   6.5250311
  25.8185368  48.0303574   6.3981371  26.9852619  47.3624496   7.0935755
  42.6656570  27.3763332  80.1877213  41.9055061  27.3099594  80.7656403
  42.4046707  26.9091415  79.3940887  54.5801888  24.4031773   0.4827624
  54.7762642  25.0730381   1.1377996  54.5215912  24.8848953  -0.3423113
   0.2623492   4.5655479  86.6028671   0.6357455   5.1762691  87.2383423
  -0.4194973   5.0694008  86.1585159  48.1473427  59.2159271  54.8564758
  47.7841415  59.6762390  54.0998878  48.5804176  58.4477425  54.4842300
  25.4337578  47.2710381  36.2519684  24.8802719  46.7157860  35.7028046
  25.0189075  47.2446861  37.1141968  12.0479345  43.4564590  33.2298660
  12.8052483  43.2457428  32.6836929  11.5795498  44.1320457  32.7395287
  63.6511192  46.3766365   3.6974111  64.5485764  46.6882095   3.5802855
  63.3747368  46.7513046   4.5337548   7.5643420  54.1595383  66.3989334
   8.3501244  53.6442986  66.5814362   7.6347175  54.3830910  65.4708710
  70.1042633  48.3760834  24.5371494  70.8064423  49.0141106  24.6640167
  69.7638092  48.2164116  25.4173927  21.1584835  67.4293442  71.0056686
  20.4629478  67.4983902  70.3516846  20.8504658  67.9606171  71.7399063
  72.5637436  53.2735023   3.3184135  73.0133057  54.0320091   2.9458621
  73.1042404  52.5257339   3.0635750  53.4633217   3.2543609  49.2103996
  53.3414421   4.0830741  48.7471390  53.5166245   3.5016208  50.1335754
  73.9379044  55.8574982  10.9997425  73.6865997  54.9479561  10.8390846
  74.2795944  56.1635513  10.1596155  43.4403038  34.6304245  33.9986877
  44.1394730  35.2607536  33.8252487  43.8503036  33.7756119  33.8666878
  72.7565155   0.7991505   2.2418144  72.9428787   1.6408808   1.8258928
  72.1175995   1.0053682   2.9240808  33.5562592  21.3718605  11.2214241
  33.9243240  20.5858059  10.8178425  32.9318085  21.7026272  10.5757580
  38.5647469   7.9122548   8.7328043  37.7640343   7.8402305   8.2132835
  38.5780067   8.8228922   9.0274143  75.4738998   6.2068343  65.8398209
  76.1072998   6.3158755  66.5491486  75.7145386   5.3762345  65.4294128
  26.9719791  66.4715347  84.1542740  27.7553692  66.1256790  83.7265778
  26.8345203  65.8942642  84.9053421  16.2236061  20.6988106   3.9150145
  16.6371899  20.4703598   4.7474756  16.8424015  21.2972126   3.4964006
  17.0748596  41.3450775  87.8505020  16.6340675  41.4240265  88.6964951
  17.6226234  42.1278572  87.7918625   3.7279103   7.8147221  64.5478745
   3.0409625   8.4646902  64.3999710   3.2973647   7.1204820  65.0467682
  37.3697624  51.8865128  77.5621490  36.5550690  51.3977661  77.6788940
  37.8891792  51.3473129  76.9657440  17.4049625  31.9369946  21.4030190
  17.9869804  31.3130169  21.8367672  17.9754238  32.6649132  21.1561623
  32.0220451  39.8195114   1.4046624  31.1784878  39.4199829   1.6168398
  31.8238125  40.7482681   1.2848860  34.2279053  40.1217384  30.3696671
  33.9266510  40.1289444  31.2781963  34.2918015  41.0465469  30.1311741
  43.4105072  64.3812790  11.6792345  44.2877693  63.9993515  11.6514053
  43.4140587  64.9327011  12.4616318   8.2657776  51.4510918  36.1968689
   8.6177168  50.5728378  36.0518074   8.0493689  51.4714394  37.1290627
  33.3533440  22.8149719  15.6917448  32.7962646  22.1550598  16.1045551
  32.9764099  22.9353561  14.8201599   8.8234959  66.1251907  13.4276257
   9.4783087  66.5047607  12.8416443   7.9888721  66.2760162  12.9839077
  57.6886177  20.7317295  27.8720932  58.4525032  20.2274494  27.5920753
  57.5377045  21.3532200  27.1599102  61.9075584  44.4009590  36.8335762
  62.8579292  44.3531151  36.9372101  61.5636101  43.8083000  37.5019226
  17.4205036  48.1846771  32.7375450  18.2986622  48.5600891  32.6732178
  17.4182472  47.7229309  33.5760040  84.6236267  46.2545586  15.9794827
  85.0493393  46.3148575  15.1242838  84.8788071  47.0589066  16.4312992
  54.0117378  24.3801899  32.6460419  54.3377380  25.1679363  33.0812569
  54.6033478  24.2541904  31.9041805  77.1943436  24.2578831  77.1679688
  76.5391464  24.9445591  77.0437698  77.6075439  24.4696655  78.0050125
   2.2463591  11.9710379  54.9941864   2.3350968  12.8756199  55.2943306
   3.1274529  11.7244930  54.7128983   8.4829178  40.6436768  23.4634571
   7.7821770  41.0542603  23.9700298   8.1796618  40.6866226  22.5565815
  64.8300934  67.0950851   0.8847396  65.4104538  66.9657822   1.6348673
  64.6791992  66.2134552   0.5438816  62.7468300  41.9569511  18.3634872
  63.4099045  42.6371918  18.4811096  62.2119370  42.0043030  19.1558743
  56.7259865  12.9517298  24.7330608  56.1481171  13.6911850  24.9214916
  56.4642258  12.2773876  25.3599396  16.6883698  67.4943466  12.3081493
  16.5056648  67.5204849  11.3689117  16.9033318  68.3989410  12.5355988
  53.8722153  33.9949303   8.2565613  53.6789055  33.1372147   8.6349564
  54.7915230  33.9399261   7.9956465  35.4758301  46.9857216  30.4488239
  35.6607819  46.6701317  29.5642738  35.8909874  46.3431091  31.0240841
  74.6595001  56.7972145  44.2351723  74.4289551  56.3760033  45.0632210
  73.8955154  57.3311043  44.0171776  14.7583761  46.7809448  39.6633415
  14.7621412  47.5845909  39.1433716  14.9135542  47.0755768  40.5607529
  55.3268623   7.1541715   2.5008373  56.2279167   6.8873663   2.6829054
  54.7900658   6.5528903   3.0171139  46.9620628  56.5069427  31.3464508
  46.2463226  55.8996353  31.5338860  47.7340698  56.0940323  31.7334175
  50.3450508  28.7392044   2.9299989  51.2500648  28.9974461   3.1046290
  49.8168068  29.4083519   3.3652349  58.6250687  52.7558060  45.4290199
  58.0226440  53.0404854  46.1162415  59.4935226  52.8361244  45.8234406
  16.6455250  59.1221008  51.4545288  16.6346817  59.8443108  52.0826454
  17.5686798  58.8787422  51.3852844  61.7528076  43.4488335  68.5033340
  62.1341171  42.6304474  68.1854019  60.8078041  43.3206215  68.4210815
  84.7376709  24.8231106  83.0286713  84.5677109  24.1132183  83.6478653
  85.6253433  24.6568508  82.7114563  50.2159271   2.7462173  51.9002991
  50.5736427   2.6256034  51.0206833  49.8168755   1.9028927  52.1142921
  11.5130043  51.2694206  35.4003830  11.6533995  51.2258263  34.4545364
  10.9501371  50.5197449  35.5937729  15.1195765  26.5244751  88.9821854
  14.3835526  26.3941212  89.5801086  15.2071857  25.6884556  88.5243378
  24.2264709  35.5247879  56.4531059  24.9445171  36.1388321  56.2995110
  23.5794754  35.7399597  55.7812920  84.0128174  19.9800606  77.7280731
  83.8526382  20.4717636  76.9225922  84.3379822  20.6337624  78.3470840
  14.8070669  19.2854023  61.0731010  14.7867975  20.2409420  61.0205231
  13.9324284  19.0117168  60.7968140  79.7169724  42.8096313  81.8751602
  80.4848862  43.2613792  82.2251053  79.8220215  42.8595467  80.9250565
  84.5608215   1.7712970  27.2535400  84.1186905   1.6864281  26.4088173
  85.4174194   1.3664608  27.1172733  67.6755600  55.5265045  22.6476040
  66.9682007  55.6863785  22.0228539  67.9740219  56.4001999  22.9002132
  27.5357990  15.0739613  75.9568863  27.4724140  14.7740154  75.0501099
  28.0054188  15.9062071  75.9015961  50.0237007  46.1213913  31.7916985
  50.3710976  45.6849785  31.0138226  50.5977325  45.8363914  32.5026779
  13.9888582   0.4821935  26.6741390  14.3930016  -0.3851966  26.6972599
  13.1480646   0.3431353  26.2382946  63.9988785  28.3849277  34.9069748
  64.7008057  28.8438759  34.4455681  64.1442719  27.4605236  34.7055626
  80.8475037  30.6875610   1.0928161  81.7006912  30.2927189   1.2728130
  80.6489792  31.1973000   1.8783003  60.3737297   3.0964727  62.0782394
  61.0547905   2.4647748  61.8472748  59.5521469   2.6385207  61.9007187
  68.3191528  18.6433067  27.8351231  68.6878510  19.5215225  27.9301262
  67.6337433  18.7415047  27.1742058  79.0275803  63.7052116  84.4801559
  79.0441284  64.4484634  83.8772125  78.2058792  63.2554169  84.2833633
  16.5869484   6.4164238  15.6168699  17.2494640   6.2901649  14.9376345
  16.7465534   7.3011146  15.9456253  13.3133068  56.2015266  59.1438942
  13.4894104  56.3600998  58.2164917  13.7649431  55.3798141  59.3363609
  85.8770447  13.3952427  49.0718040  85.5575027  13.3682241  48.1699219
  85.0842056  13.3719635  49.6076164  71.7755203  45.4976387  16.6048107
  70.9378662  45.0355682  16.6373196  71.7651138  46.0668030  17.3743420
  78.5064240  30.2045460  37.7775879  79.4471664  30.0516529  37.6889572
  78.3508530  30.1993370  38.7220459  66.1942596  55.5523872  25.6321449
  65.6317444  55.3751373  26.3860607  65.6843262  56.1532249  25.0888329
  75.6451492  31.7040348  13.8944721  76.1619263  31.9025211  14.6753559
  74.8677979  31.2567768  14.2290049  25.0410519  68.4683456  26.9457016
  25.8834610  68.8647308  27.1681023  25.2697334  67.6821671  26.4498672
   8.2210894  35.7445984  72.1697617   8.6096811  36.5673027  72.4670639
   8.8022938  35.4438438  71.4712067  68.3117447  22.2334328  78.8904190
  67.6362686  21.6070366  78.6304398  69.1122055  21.7118549  78.9492035
  84.1470337  32.6511803  88.1481018  84.1122360  32.8357849  89.0866928
  83.6232300  33.3452301  87.7479172  19.4807129  33.6909256  80.4980469
  19.5173969  33.1733513  81.3024139  18.7541656  33.3126831  80.0027771
  57.3241158   9.5997171  13.7990828  56.4095688   9.5140285  13.5298328
  57.3693199  10.4559822  14.2245226  14.0942183  18.4515934  15.9268274
  13.1823044  18.6351604  15.7011118  14.1273174  17.5012035  16.0358944
  32.5687180   8.1986685  73.7230301  31.7852726   7.6530452  73.6541824
  32.7366409   8.4907846  72.8270950  50.8230515  50.3751678  57.3689270
  50.7712936  51.3259964  57.2715645  51.5831604  50.1217995  56.8452187
  41.5523567  64.7586975  67.4003754  42.2576752  64.4829102  66.8149719
  40.8303795  64.9867172  66.8147202  82.4002838  56.6477165  68.3140030
  82.4712677  57.5622520  68.0404816  82.0543365  56.1940155  67.5454254
  34.2030983  34.5004120   7.8618102  33.3537788  34.9157104   8.0115347
  34.5887527  34.4224777   8.7344084  76.2304611  23.2739544  79.8865433
  76.0501480  23.2869110  78.9465714  77.1377487  23.5699177  79.9604797
  11.7851877  71.4325714  59.3233757  11.2505798  70.8453674  58.7889404
  11.4230013  71.3498535  60.2055359  79.9264450  37.6194878  73.6617355
  79.3309937  37.1851463  73.0509872  79.6502762  38.5359573  73.6546021
  34.4535942   7.6708484  10.2617102  33.9981689   8.5068836  10.1623907
  35.1345406   7.8447657  10.9115562  68.3090210  24.3990364  19.8198891
  67.7026825  24.4792252  20.5561981  68.8660049  25.1749611  19.8826885
  59.1723022  14.8584566  62.6324348  59.0143242  15.5576239  61.9980507
  60.1255569  14.8131695  62.7065277  58.4892616  15.4098015  75.2531433
  58.9730988  14.6471958  75.5702591  57.8639793  15.0517015  74.6230469
  21.2125854  18.8137226  26.6888084  20.4488964  18.2453346  26.5890751
  21.0673676  19.2664127  27.5195999  28.4224510  18.5317459  17.8448982
  28.4189415  18.0278282  18.6587067  28.1381779  19.4080887  18.1045971
  68.7739258  31.7541294  18.3099518  68.0829086  31.6794109  18.9680882
  69.1372986  30.8711262  18.2428856  32.0064659  45.2895660  53.3331451
  31.9735699  44.3572693  53.5475578  32.0905952  45.7273178  54.1802139
  77.2420578  70.5371933  50.5986023  77.5119705  70.8219299  49.7255020
  77.3837280  69.5905380  50.5962563  70.5857086  30.7188358  63.9307632
  71.3887329  30.8892994  63.4384956  69.8916397  31.1087666  63.3992958
  51.2577171  12.8010502  66.8339310  51.8882484  13.5089865  66.7016907
  51.7099533  12.0164871  66.5238113  77.9582596   1.6875899  64.4120102
  77.2457809   1.1490017  64.0677185  78.7278366   1.4144284  63.9126472
  37.5642433  59.3635368  60.5923767  38.1038208  59.9689369  61.1008797
  37.7840118  59.5548172  59.6805954  13.7422876  39.9801979  66.6619339
  13.5360651  39.3504448  67.3526688  14.4882507  39.5953484  66.2018661
  43.2854462  64.2340088  69.8263245  42.6433868  64.4931870  69.1653976
  44.1292839  64.4894943  69.4536362  31.9685860  12.3378696  13.1939211
  31.3153477  11.6527119  13.0522528  32.7682648  11.8631744  13.4206638
  43.6501389   9.6879015  13.8804893  44.0262299  10.3199806  14.4930754
  42.8801041   9.3443184  14.3335104  13.8549013  70.7784500   8.5532217
  13.6297073  69.8630371   8.3872576  13.0117693  71.2130051   8.6817389
  30.3492012  63.7399178  67.1733322  30.1159096  63.4980698  68.0696106
  29.5300598  64.0514603  66.7883911   6.5761061  15.5387831   3.3083022
   5.9409366  15.6450996   2.6001439   7.0336695  16.3786125   3.3477259
  68.8438492  28.1028080  31.9269066  68.8634949  27.9882927  32.8770294
  68.1105270  27.5610180  31.6354733  30.6878452  66.4362640  58.4613724
  31.3067932  67.0301208  58.8861923  30.8412724  66.5603333  57.5247307
  58.1816292  53.3088799  80.4008484  57.8156013  54.1807747  80.5493622
  57.4853134  52.8302193  79.9511108  76.0464249  69.0981979  47.6252899
  75.3664093  69.7708435  47.5883560  75.5929108  68.2864075  47.3982277
  71.4944687   8.0572834  87.4231644  71.7799072   7.1460814  87.4900131
  71.9694519   8.5088596  88.1207962   3.9024515  39.3486557  81.1677322
   4.5334740  39.8654747  80.6667862   4.0480270  38.4476585  80.8792114
  23.8433800  62.2174530  43.6417732  23.2793217  61.9948654  44.3823967
  23.3904877  61.8575706  42.8791389   0.2596268  41.3187904  82.0437851
   0.8710986  42.0163536  81.8076859   0.1355703  40.8246155  81.2334518
  42.7079811  49.4986153  56.5479889  41.8267593  49.1519547  56.6876602
  43.0352783  49.0208740  55.7858391   3.1859982   3.8063018  19.7015762
   2.8125298   4.5323782  19.2020111   4.1325846   3.9121847  19.6067333
  11.1292696  40.9614716  81.3109283  11.8543386  40.4568710  81.6795502
  11.2953148  40.9657555  80.3682480   5.4967299   3.6260967  22.9983482
   4.6477103   3.3595049  23.3509483   6.1301208   3.3386114  23.6559181
  19.6937714  70.8814316  69.8239441  19.4768467  70.5409241  70.6918335
  20.2781582  71.6198578  69.9955673  24.5327587  18.1227837  72.5201263
  24.6170940  17.9704933  73.4613647  23.6128750  18.3569946  72.3968735
  65.4582520  61.2440796  14.2696114  64.8293915  61.1861229  13.5503006
  64.9642944  60.9698219  15.0422792  48.5520020  12.2980061  65.7913208
  49.3869247  12.4271135  66.2412796  47.8913345  12.4161835  66.4738083
  20.7228622  55.8264122  87.8408966  20.3397312  55.3028908  87.1370697
  20.4657650  55.3730850  88.6437836   0.7456392  56.6688004   2.4561491
   0.9576072  55.7366409   2.4073489   1.4942796  57.0614777   2.9051180
  85.0429382  51.4651871  63.0513611  84.4544678  50.7112617  63.0904503
  84.5772629  52.1571121  63.5210609  64.1142502  47.9828148  47.0693893
  63.9871330  48.9312248  47.0450363  64.6248322  47.7893295  46.2831955
  48.6359062  33.6792984  21.4622803  48.8285637  33.3255463  20.5939636
  48.0742035  34.4357605  21.2935009  31.5061245   2.9605768   0.7533627
  31.6671982   3.8962824   0.8747815  32.2060280   2.6710260   0.1681037
  47.8819008  10.9381599  56.2800446  47.3854332  10.6357651  57.0405121
  48.7903252  10.9612656  56.5808182  16.0325546  61.4796410  72.7421188
  16.5181522  61.5258904  71.9185333  15.7733927  62.3840561  72.9184647
  -0.0540739  25.4517345  67.2556839   0.6525084  24.9209385  66.8879471
  -0.5863560  25.6989632  66.4995193  61.4083099  18.2463608  75.7266922
  62.1211586  17.8674126  76.2409668  60.7870636  18.5688057  76.3796234
  55.7243042  34.9140282  59.9086990  55.5089531  35.7233505  59.4451790
  55.9740868  34.3011513  59.2171631   3.1774068  56.5010414  62.0592194
   4.0798030  56.7425766  61.8504753   3.2324297  55.5868683  62.3375893
  79.4822159   6.8252764  71.7454758  80.0867996   6.4776583  72.4011230
  78.6947250   6.2889943  71.8376389  49.8467941  28.1460514  44.9990616
  50.7857170  28.1747818  45.1830025  49.6850357  28.9187012  44.4576950
  48.6684303  63.1755638  49.2419243  48.7349129  63.6255646  48.3997192
  47.9063263  62.6039772  49.1485710  50.1049614  17.0451164  10.0427513
  50.9940834  17.0183582   9.6892281  49.6273613  16.3852863   9.5400076
  27.2032776  18.6626358   4.5395050  26.4612312  19.1609535   4.1970458
  27.0720291  18.6587219   5.4876561  74.3089523  58.2461472  80.6422272
  74.2206955  58.4532967  79.7118912  75.1315689  57.7604485  80.7024765
  47.7845535  67.0872116  35.2592926  47.3520927  66.2649612  35.4897346
  47.1197968  67.7586365  35.4126472  66.0673065  48.6951752  30.7768116
  66.6659927  48.0063362  30.4881916  66.3390961  49.4702072  30.2851906
  80.8865891  39.6582413  11.4754171  81.7670364  39.3460770  11.6842480
  80.9578552  40.6123734  11.5033741  17.4244118  57.9747009  47.6620026
  17.1822739  58.3435097  46.8125420  17.8460007  58.6981430  48.1258163
   2.2027125  36.7997589  86.6869125   1.4229318  36.2761002  86.8711853
   2.1404438  37.0017700  85.7533417  82.6869431  66.8114090  55.7794609
  82.5598907  67.1022415  54.8764076  83.1967392  67.5115280  56.1870918
  69.4199753  11.6313725  86.9618378  70.1688766  11.0932751  86.7052612
  69.2272110  12.1587763  86.1866455  66.1977539  19.2061596  25.1754227
  66.2933960  20.0390739  24.7135372  65.2708054  18.9860573  25.0829163
  48.1207123  20.0324993  45.3147507  48.9896202  19.6506481  45.1905479
  48.2732010  20.8010445  45.8645821  42.3134575  30.9619122  23.4927197
  41.8989983  31.7572365  23.1581783  43.0805817  31.2750187  23.9720039
  38.6583481  50.3329086  72.7795486  38.5678253  49.6054115  73.3950043
  39.3432541  50.0501785  72.1735764   5.2862487  60.6473923  60.6491470
   6.0951438  60.2832108  61.0087204   4.6413374  60.5337982  61.3473015
  27.8425980  26.8147793   7.1546412  28.3273621  26.0043087   7.3107648
  27.5186195  27.0702515   8.0183554  48.6066055  41.3087654  49.9085045
  48.7942772  41.7713089  50.7252464  48.4510994  40.4030838  50.1764450
  76.4460449  54.8961639   3.3279402  76.6395950  53.9588852   3.3446620
  77.1222153  55.2703209   2.7631106  51.5417290  56.0945892  23.9807186
  51.5126686  55.1468391  23.8497238  52.4614639  56.3261490  23.8514900
  75.5673523  54.1262589  66.0265198  74.9841690  53.6381187  65.4452744
  75.4925308  55.0343819  65.7333679   0.7102078  25.4734821  40.4597130
   1.0658382  25.2800941  39.5923271   1.2561222  26.1876450  40.7886276
  52.8526382   6.5831671  77.5654984  52.4128685   7.4303875  77.6365738
  53.5587692   6.6250010  78.2103729  62.5208473  31.5222187  53.3957291
  62.0766640  30.6790066  53.4847641  62.1934128  31.8794289  52.5702477
  41.7225037  57.9714432  21.5874157  41.8829155  57.0517845  21.7989044
  41.7611732  58.0076942  20.6316833   9.0942478  43.0570679  73.0318069
   8.7251101  42.5472870  72.3106384  10.0082026  43.1960831  72.7836304
  67.8569641  44.2280235  76.2219315  68.3532333  43.6944656  76.8426285
  68.0972290  45.1296310  76.4355087  64.2001266  52.5948105  76.0796509
  64.6684341  52.7680054  75.2629929  63.3540192  52.2446136  75.8009186
  51.1263046  33.5048065  35.9138947  51.2428207  33.1687622  36.8025627
  51.8115921  33.0738678  35.4031067  40.7793541  59.7052536   6.7155972
  40.9243011  59.3562813   5.8361416  41.1836891  59.0622368   7.2980723
  54.6518707  17.5947514  28.7335014  54.8056984  18.3274975  28.1371384
  54.0288277  17.0352669  28.2697906   2.0216999  64.5301132  11.7326965
   1.2023711  64.2909470  12.1659756   2.5758669  64.8662796  12.4370575
  45.6795273  61.0949898  65.5864334  46.4751663  61.6271515  65.5867157
  45.5836983  60.8069725  66.4942245  66.0292587  41.1840019  75.0843430
  66.8955536  41.4660721  74.7907486  66.1716309  40.3085098  75.4441757
  76.6318665  11.4832382  52.2407761  75.8365707  11.8042746  51.8157120
  77.1374969  12.2734385  52.4309120  63.4433746  45.9586906  34.5246468
  63.8672981  46.2994461  35.3123055  64.0896530  45.3648682  34.1426430
  53.9737434  31.0520210  21.0919914  53.8107719  30.1372013  21.3217201
  53.1521912  31.3511448  20.7023716  62.0540085  33.7597046  51.0037155
  61.3552132  33.5398979  50.3875961  61.7027054  34.4894371  51.5139236
  63.9144440  43.9984970  84.0050735  63.6379356  43.6944733  84.8695602
  63.3635445  44.7619362  83.8321533  76.5713654  31.1140175  16.9193821
  76.7013168  30.1856289  16.7258911  76.1931534  31.1247768  17.7986259
  58.9497452  57.1188164  -0.3298731  58.6484566  56.4427795   0.2771111
  58.9959297  57.9139862   0.2009779   8.3398104  71.0665970  29.1991634
   8.7479286  70.9027634  30.0493565   8.1605406  72.0068588  29.1967525
   7.4159999  59.2557068   8.0812387   7.6191254  60.0479736   7.5839610
   6.4837008  59.1065254   7.9237738  25.7616749  32.3550682  21.4647884
  26.6199894  31.9313641  21.4665909  25.1421394  31.6405067  21.3171024
  84.8805542  29.0179462  19.1312294  84.0996246  29.0205269  18.5777149
  84.7355804  29.7308693  19.7532864  31.3967743   5.4731669  85.6229172
  31.8761616   4.7025809  85.3185883  30.5895481   5.1205730  85.9974823
  26.1510353  41.0394325  65.1529007  26.9259834  40.8912239  65.6948547
  25.5896759  40.2836647  65.3258896  77.6289749  15.3933058  50.7054749
  78.3136215  16.0071220  50.4395447  76.9035797  15.9508314  50.9869003
  26.1906166  60.4368324  72.4582596  27.1138477  60.2845802  72.6599960
  25.7506084  60.3997650  73.3075256  49.4949951  25.3636627  16.7418079
  48.6339226  25.3326340  17.1587296  50.0253716  25.9039192  17.3275185
  27.1369591  63.9946899   1.3026639  26.5901089  64.7743759   1.2063400
  26.6333008  63.2958374   0.8853320  35.8554344  15.2123384  -0.0282018
  36.3562279  15.4382668   0.7556328  35.8506699  16.0153751  -0.5491062
  56.5250244   3.8953292  59.3591042  56.3608398   3.0131936  59.6924362
  56.7703514   3.7635102  58.4433136  15.6976185  36.6608620  49.7359467
  14.9320984  36.5166740  49.1796913  16.2551041  37.2503624  49.2280769
  51.5599976  35.0523109  45.0091133  50.9375191  35.5070610  45.5765266
  52.3956146  35.1146584  45.4718094  24.9341240  49.6753197   6.4489832
  25.3538952  50.3618584   6.9673376  24.0704136  50.0293999   6.2371778
  78.7678604   4.0437360  68.0777969  78.1656265   3.3305240  68.2896347
  78.2327118   4.8350534  68.1383896  79.3583298  66.4034882  64.7637100
  78.6961288  65.7123337  64.7684402  79.9683228  66.1460266  64.0724411
  18.8442822   6.2592688  14.3275719  18.9927540   6.6400971  13.4620323
  19.6147785   6.5124016  14.8359919  75.0128174  39.5933189  42.3339577
  75.7123718  39.7776031  42.9607658  75.4676895  39.2757874  41.5538940
  10.6866808  34.0815239  35.6505165  10.8861570  33.1501007  35.7448196
   9.7989445  34.1013565  35.2930756  41.4348640  16.7471867  20.5569592
  42.3563652  16.9871101  20.6544609  41.4043884  16.2377834  19.7471371
  45.1357422  21.6486206  80.5837173  45.5171585  20.9547768  81.1216125
  44.2333183  21.3668118  80.4338913   9.3780422  34.3791656  81.1743240
   9.4515629  33.4470634  80.9693527   9.6261702  34.8230286  80.3633652
  72.0193558  56.2041092  66.0823669  72.5499954  56.9780579  65.8935318
  72.4036484  55.5128555  65.5431824  46.5226555  49.4417114  75.1120071
  47.4535675  49.2558899  75.2349014  46.4968262  50.0671844  74.3878937
   6.9241605  45.2810402  39.3572502   6.7593508  44.4185486  39.7382660
   7.8032799  45.5115700  39.6576424  81.0099335  54.6943893  41.0150642
  80.4493484  55.2565002  40.4802628  80.5460052  54.6170387  41.8487396
  43.6851654  20.0463104  63.6786919  43.2520332  20.8574867  63.9444351
  43.4163818  19.9181881  62.7689819  48.8013420  44.9067001   1.5307659
  48.2411003  45.6719894   1.4015701  48.9279404  44.5512886   0.6510559
   3.8781526  18.3974056  14.9746037   4.8277674  18.5122032  14.9387512
   3.6719832  18.3976974  15.9093370  23.9009132  65.3373718  85.1384354
  23.2432270  64.6915283  85.3964386  23.4480038  66.1783600  85.2004929
  58.3795662  28.2923927  71.2048798  58.8870506  29.1038132  71.1879959
  57.9497070  28.2609062  70.3502121  84.3749466  65.0701141  33.9499359
  84.1330490  65.9535217  34.2279930  84.3981094  65.1177597  32.9942017
  29.4015408  41.3640289  43.8200836  29.1696568  41.5624046  44.7273369
  28.9217091  42.0112228  43.3032341   2.4079158  62.7220802  20.9689789
   2.8177571  63.4956169  20.5818043   1.7089149  63.0724258  21.5211449
  41.0424843  34.4188995  80.9398499  40.3260307  33.8315964  80.6990128
  41.2621231  34.8745537  80.1272202  87.1681900  30.0070000   9.5525999
  86.7482605  29.8880577  10.4045057  86.4406357  30.0741444   8.9342260
  64.3484268  38.6831131   3.4148381  63.5119667  39.1162643   3.2447190
  64.9304047  39.0078392   2.7277513  80.6850204  13.7745371  58.6691437
  80.5424881  12.8702631  58.3894958  81.5759354  13.9761219  58.3830261
  70.5827026  65.5281219  39.0027275  70.3537064  66.0436172  39.7760658
  71.2972870  66.0156174  38.5929108  77.4790421  16.9107647  31.1230907
  78.1242599  17.5885944  31.3242741  77.1999969  16.5842590  31.9785213
  84.4093246  66.6557770   3.2940221  83.5056381  66.3919754   3.4671819
  84.9113159  65.8427811   3.3513021  12.2696266  33.1979866  31.3901215
  13.2022429  33.1655006  31.1770382  11.9213219  33.8958244  30.8351994
  54.1150818  32.3980103  28.6581154  53.7810020  31.6929798  28.1035366
  54.9765091  32.6015778  28.2937927  70.2276382  39.0453300  10.4352789
  70.8052139  39.3749313  11.1237526  69.3667297  38.9916306  10.8502283
  80.6552277  22.0063496   4.4720011  80.5836563  21.3666763   3.7635338
  79.9494781  22.6305943   4.3032742  61.1167221  55.4708519  17.3988819
  61.9347000  55.8427429  17.7287922  61.3760681  54.9700546  16.6254635
  65.3782120   0.7203408  33.5913734  66.0407791   1.3686023  33.8301125
  64.5490952   1.1140527  33.8630180   6.2739258  42.9099846  48.3413811
   6.7153525  43.3309822  47.6037292   6.9270344  42.9067154  49.0411453
  36.7335014  19.6741791  16.8300686  36.4573746  18.7806187  16.6262589
  36.8743362  19.6712780  17.7768478  14.3232183  39.5901299  56.0060005
  14.2673531  40.5304031  56.1762810  13.6095619  39.4149895  55.3926086
  37.6063919  27.7305126  43.2435493  37.4637871  27.6486778  42.3005753
  37.5699921  26.8315086  43.5701981  79.0993729   7.7458448  57.0535736
  78.2490692   8.0214033  56.7111168  79.5797119   7.4399123  56.2842140
  26.1427174  23.2865238  86.9703140  26.5586967  23.7107277  87.7208099
  26.8508339  23.1734371  86.3362656  76.3206253  65.0000916  14.1486664
  77.1141968  64.6756134  13.7230072  75.6041718  64.6417236  13.6247435
   2.9149361  69.5561600  80.2197723   3.8378603  69.7136230  80.4188919
   2.8393838  69.7295685  79.2814484  74.6827316  44.5763969  44.8651237
  75.2314682  43.9795189  45.3738976  73.8725281  44.6460419  45.3700638
  32.8421745   3.8404365  79.8231125  32.7581291   4.0475140  78.8923645
  33.5978813   4.3504720  80.1146622  35.0331764  57.2415123  32.9260941
  34.8006744  56.5139999  33.5030708  35.9268341  57.0470276  32.6436310
  49.0225639   5.4122028  81.9468536  49.4822235   6.0233760  82.5225372
  49.6203690   5.2806520  81.2109451   4.5608931   8.9962053  54.8999634
   4.1064353   8.7655354  54.0897217   5.4893990   8.9741774  54.6683960
  20.2808609  20.2513657  29.9645538  20.9358025  20.6789818  29.4128056
  19.4924698  20.7833424  29.8565216  79.1467361  28.1987038   6.6143017
  78.4874191  28.5564442   6.0196939  79.3374023  27.3282509   6.2647510
  32.7683144  18.3143806  16.8543034  33.6608849  18.0440292  17.0698490
  32.2587166  17.5047035  16.8853722  81.9553452  10.5610313  69.6730194
  82.1538162  11.0553818  70.4682922  81.6352921   9.7163315  69.9896927
  16.1453304  21.2641735  21.2609692  16.5674496  20.7488174  21.9483242
  15.3361368  20.7902508  21.0690422  65.3966675  29.3169880  86.6674271
  65.9871826  29.4318962  85.9228973  64.5262985  29.4990959  86.3131409
   9.6037607  14.7225237  18.1420441   9.5156393  14.1436234  18.8992367
  10.4291058  14.4598970  17.7345333  85.2302628   4.8681417  64.7346954
  85.0809555   3.9418516  64.9242401  84.5829239   5.0825319  64.0629654
   5.9131680  41.3381958  52.6170044   6.5066824  40.6465950  52.9096909
   6.4856639  42.0826454  52.4318733  76.7693253   2.0620234   3.3198090
  76.9303360   2.2505190   4.2443514  75.8962173   2.4164653   3.1516213
  60.4073372  42.4593697  43.6749191  61.0000153  41.7349396  43.4745140
  60.7310944  42.8113365  44.5040932  58.4714584  24.9045506  24.1815281
  58.1181717  24.0240211  24.0546913  58.3117409  25.0958748  25.1057129
  75.8091736  48.6783943  84.4073944  75.2397919  49.3801994  84.7228470
  75.6455765  47.9498138  85.0062561  36.3847122  66.4254913  27.1099167
  35.8394547  67.1762390  27.3450737  36.8265419  66.6933975  26.3041573
  74.4875870  69.4213181  28.7524223  75.3777771  69.0848312  28.8552322
  73.9320984  68.7583771  29.1625004  56.3889008  21.7813282  73.3318176
  55.6779442  21.7885513  72.6909409  56.0317612  22.2422237  74.0909348
  55.7204704  58.5118942  28.3195686  55.0663071  58.9843941  28.8343925
  55.2935104  58.3527641  27.4777756  58.2507515  63.8710289  57.0596390
  58.6654587  63.0514145  56.7904129  57.3385811  63.7796631  56.7842636
  29.4071503  32.6246414  14.1124859  28.5679207  32.7797127  14.5459347
  29.1714420  32.3173027  13.2371473  57.1123810   2.5015349  84.8586884
  57.6680832   3.0295928  85.4319077  57.0884705   1.6401497  85.2754288
  46.4313622  61.2528229  21.4452991  45.5708389  61.6526794  21.3194256
  47.0459900  61.9844551  21.3889484  38.2945404  67.4239273  81.2344818
  38.2229805  66.4948807  81.0154114  39.0844078  67.7169952  80.7801132
  47.7532730  28.1124763  61.1360474  48.2380257  28.6712723  61.7434959
  48.2213326  28.1989269  60.3055801  65.8442154  25.5776253  46.8726959
  64.9988174  25.1360741  46.9537468  66.0737381  25.8219776  47.7692680
  11.0475731  67.0486603  76.3551025  11.6518278  66.7405777  77.0305252
  11.0881443  66.3779144  75.6734238  32.2751961  54.0501328  16.6247959
  31.9827919  53.8007545  17.5014610  31.5178471  54.4867210  16.2348671
  27.7263451  28.5458813  63.2284241  28.4975319  27.9788799  63.2244835
  28.0729771  29.4204521  63.4050674  66.1117859  71.0372314  15.9691763
  65.8959274  71.2178955  16.8840523  65.2887268  71.1685104  15.4984655
  60.8777733  25.9041939  53.8723488  60.2592773  26.6172161  54.0313950
  60.7309723  25.2940922  54.5951614  56.8555069  46.0208778  23.4150696
  56.3065720  45.3170395  23.7607822  56.3080902  46.8036957  23.4764500
  57.9319420  56.4103584  79.4957275  58.6988983  56.8619194  79.1434402
  57.3218536  57.1132507  79.7192535  36.9938431  67.0728989   6.4615045
  37.7488556  67.0304413   7.0483503  36.7541924  67.9994812   6.4461999
  68.8685532  62.1636276   1.9072925  68.2680130  61.5815048   2.3728170
  68.7078781  61.9826202   0.9811972  63.3309975  56.9569016  31.9460087
  64.0211639  56.3091774  31.8033371  63.5039558  57.3022270  32.8218346
  58.0292473  14.3845739   4.4048595  58.7695923  14.9898643   4.4466038
  58.1119385  13.9636860   3.5491447  49.1654358  67.9803314  59.9748650
  49.2760506  67.8296127  59.0360985  49.6497192  68.7879486  60.1464767
  80.4577103   9.8372164  47.7924461  80.2855301   8.9910984  48.2055702
  79.6554718  10.3400793  47.9330673   5.5016093  54.1749573  26.2498360
   5.8565807  54.1708374  27.1387730   5.8960938  54.9437103  25.8379707
  80.5402527  57.4985123  88.4921417  79.6156845  57.4320221  88.7308350
  80.6396332  58.3928223  88.1656952  33.8587189  30.2976780  23.5815430
  34.5985603  30.2383862  24.1859856  33.7018166  29.3946114  23.3057117
  82.1724625  42.3349304  84.8512115  82.8423386  41.6547432  84.9207993
  81.4654083  41.9247017  84.3531876   8.1327114  23.4103336  78.5145645
   7.5943689  23.6024456  79.2823563   7.5724659  22.8687286  77.9586639
  16.9352436  11.3432474  76.2841492  16.3328514  11.4242783  75.5447006
  17.6882782  10.8709898  75.9289856  63.1509323  16.3039742  77.2281036
  62.8991852  16.2291279  78.1485672  63.3689880  15.4095716  76.9659424
  20.6677189  44.0798454  18.7281952  21.3210659  44.5153046  19.2756863
  21.1800385  43.6261482  18.0589275  70.6887283  56.9317513  16.6368732
  69.8974075  56.8179016  16.1104908  70.9800797  57.8224220  16.4417858
  51.5629807  31.0379047  74.7026367  51.1810036  31.3119278  75.5364456
  52.5051880  31.1599140  74.8192215  57.7605057  48.3577881  51.8991356
  57.9770813  47.4463158  52.0954704  56.8176575  48.4183731  52.0527611
  11.6119184  26.9255390  18.2535496  11.0919390  26.7948704  19.0465050
  12.3307371  26.2983971  18.3324471  66.9106216  60.6497078  59.5455742
  66.6200867  61.1550522  60.3048172  66.6355057  61.1709862  58.7913780
  49.0911751  61.9027557  83.2125549  49.5783081  62.0661125  84.0201721
  49.5376244  62.4327087  82.5522003   2.6774359  30.0132542  19.5446453
   2.9358363  30.9218884  19.6990643   3.2894282  29.7000942  18.8785915
  64.7987823   9.0824585   1.2469478  64.1139832   8.7773199   1.8420736
  65.5023804   9.3798208   1.8237983   0.9835427  67.8158951   4.9039941
   0.2310941  68.3581696   4.6673665   1.0604371  67.9139481   5.8530488
  73.9793625  29.4173965   8.1604366  74.6573868  29.7039967   7.5485783
  73.1714859  29.8015156   7.8198156  21.1955166  60.7384109  60.5591507
  21.3831806  60.1241493  59.8494377  20.4672356  61.2666779  60.2323914
  51.6438065  12.1968422  38.0463905  51.5445633  11.3504925  37.6104126
  50.8444290  12.6750069  37.8259621  79.5983047  16.6294403  79.0161438
  80.0606155  17.3551159  79.4355469  80.1911545  16.3355637  78.3244858
  51.2118759  37.7766609   5.5432305  51.2094727  37.8526993   6.4974027
  52.0180283  37.3010368   5.3428922  58.6710014  53.8216515  56.6359520
  58.8091583  52.9521141  57.0115204  59.4288063  53.9603500  56.0678635
  36.3864708  67.7570877  19.5167351  35.8964005  67.7274628  18.6950378
  36.4171181  66.8465347  19.8102970  68.9877548  67.9973755  83.8560410
  68.7889481  68.9268951  83.9687500  68.4244156  67.7177429  83.1344528
  44.2834549  34.9594269  16.2923660  44.8951302  34.4849434  15.7293787
  44.2052231  35.8229370  15.8868246   0.1929319  61.8551865  33.1415482
   0.7392540  61.0714493  33.2009087   0.6477911  62.5053291  33.6769371
   1.8707701  37.4721298  64.1260834   1.7698845  37.5880585  63.1813011
   2.6530044  36.9282532  64.2184830  36.6439285  58.6095581  44.6829834
  36.1800194  59.4188271  44.8976936  37.1205177  58.8129959  43.8781776
  61.5478821  32.0827560  46.2151489  62.1323547  32.6050491  46.7645416
  62.0495186  31.9234333  45.4156456  80.9172668  63.1408691  61.3101463
  81.7879639  62.8864670  61.0045395  80.3427200  62.9729042  60.5632095
  66.1143570  41.1700859  83.2625656  65.4405975  41.7186394  82.8608475
  65.6423187  40.6466370  83.9101868  78.6063004  63.9198227  87.0773621
  78.9462357  63.8847198  86.1832428  79.3682861  63.7468605  87.6302643
  83.3455353  70.4011078  35.0655403  82.5606232  70.8455734  34.7452316
  83.4988632  70.7798767  35.9311371  60.9460487  34.4220810  80.9489059
  60.2909050  34.0013733  81.5057068  61.6476288  33.7752419  80.8739243
  38.2512093  22.7977066  85.5873108  38.8425865  23.3965321  85.1313324
  38.7784233  22.4369965  86.3001633  61.8891411  59.6266251  51.6513023
  62.5076447  59.8101997  50.9442062  62.3181152  58.9499702  52.1750870
  61.0034065  48.9295235  59.0558624  60.3501892  48.9360046  59.7555008
  61.2711754  49.8444633  58.9697113  39.9911270  43.6993866  28.4639282
  39.5714836  42.9974594  28.9613495  40.5234718  44.1648903  29.1090240
  19.8976917  49.3435707  30.2863102  20.7478619  49.7752457  30.2020493
  19.5276833  49.6989326  31.0944214  61.0806313  45.4336700   9.9020510
  61.6680984  45.2148476   9.1787033  60.2042007  45.3936577   9.5193033
  27.7288685  57.3916931  51.9215622  27.0106030  57.0933228  51.3636169
  27.4578876  58.2611084  52.2163773  45.0113716  33.8543434  58.1300926
  44.5402184  34.1019249  57.3345108  45.1640434  32.9141693  58.0352669
  51.2116852  27.3183270  38.0130081  52.0908089  27.4822292  37.6716728
  51.3582878  26.9183941  38.8702087  69.0314789  47.2985725  10.3022661
  69.8647690  47.3571510   9.8349113  69.2276001  47.6189842  11.1826649
   2.9070544   4.4972124   3.0587137   3.5527701   4.4829192   2.3522587
   3.3594828   4.9207640   3.7881963  55.2335701  35.5667076  72.9197540
  56.1692162  35.7138634  72.7813797  54.8540077  36.4450951  72.9442062
  38.5615158  69.2765198  59.0957336  39.5044518  69.3085403  58.9342384
  38.3644562  70.1067810  59.5293922  82.7979431  68.0720901   0.2156015
  82.7080612  67.1527557  -0.0353392  81.9890366  68.4835968  -0.0886421
  68.0191116  56.6106186  79.7758179  67.8000259  55.8608437  80.3290558
  67.2513123  56.7279701  79.2164001  35.0516891  20.9498940  73.0480728
  35.6834679  21.3996239  73.6091766  34.2134247  21.0568047  73.4976501
  40.6180305  33.4172325  12.3152418  41.5731201  33.4378014  12.2551765
  40.3929214  32.4903259  12.2352180  61.1327324  37.0340271  74.8464890
  60.4938011  36.6934624  75.4725952  61.9616013  37.0323296  75.3252411
  11.2831669  29.1530132  78.8218536  11.4843311  29.2072201  79.7561035
  10.8885641  28.2879295  78.7116165  66.5350800  67.5541534  77.8806305
  67.0882416  68.2287750  77.4867630  67.1429749  66.8531570  78.1157837
  41.4401207  62.5640602   0.5730232  41.7047958  62.0611267   1.3432424
  41.9640121  62.2015533  -0.1413694   5.8319211  70.4728241  52.4228401
   5.3729787  70.0370178  51.7047348   5.4765248  70.0687561  53.2144547
  20.3798618  52.2159004  62.8053665  20.3587608  51.3853493  62.3300056
  21.3081608  52.4460754  62.8442879   5.6895294  57.9382668  81.8394775
   6.5985284  58.0068741  81.5475082   5.7153850  57.3043823  82.5562439
  45.3328094  36.4303284  33.7707977  46.1126862  36.5327721  34.3162613
  45.4693069  37.0353394  33.0417099   8.1884708  62.8078766  68.9652252
   8.2641821  61.9853554  69.4489136   7.2463474  62.9684067  68.9116974
  67.6137009  71.4611588  35.9483948  68.4782028  71.6412888  36.3177414
  67.7832260  70.8571091  35.2254677  24.3546104  20.4408913  75.3384171
  25.2361488  20.1537476  75.5764771  23.7742786  19.9097271  75.8836823
  86.1363831   2.4195192  74.5743561  85.5330658   2.3530700  73.8341980
  86.9468613   2.7572031  74.1931458  70.0386505  60.9933205  71.6389618
  69.4781189  60.9176598  70.8667526  70.6458130  61.7019119  71.4257050
  10.6826248   8.5564995  78.7574539  10.8213625   8.3946590  79.6906128
  10.6272554   9.5093660  78.6852646   6.7011070  12.4118414  14.2005672
   6.2884407  11.5974073  14.4880314   5.9734602  13.0246687  14.0947132
  39.0384140  21.4722252  70.5253143  39.3216095  22.2534389  71.0004349
  38.0893669  21.4483795  70.6476669  71.8256531  16.6799984  74.5942383
  71.9744720  16.5253372  73.6614151  72.5218735  16.1904449  75.0322418
  86.7007141  49.6390572  77.1086197  86.4526062  48.9086914  77.6753998
  87.0914154  49.2236481  76.3398438  21.6509304  65.0110550  26.1074619
  21.4144554  65.9102402  26.3350182  21.8116837  64.5852585  26.9495373
  61.7001610  12.0079517  16.1321850  62.5357323  11.7652054  15.7332764
  61.5428467  11.3303576  16.7897186   0.9525933  28.8123760  83.0359421
   1.3107474  28.2302341  83.7060623   1.4230423  29.6369057  83.1586609
  60.3777237  37.8077431   3.2644928  60.7722778  37.4481392   4.0590014
  61.1148338  38.1733017   2.7753427  34.0177498  36.0360374   5.6687074
  33.6233940  35.4695587   5.0055208  34.3049126  35.4355392   6.3565803
  80.3161545  22.8504581  57.6267624  80.5664749  23.0486240  58.5291519
  81.1409149  22.6354351  57.1911354  80.0879288  48.6884308  42.0320549
  79.5495148  47.8970337  42.0268173  80.9878387  48.3655739  42.0785027
  70.0058365  31.8795547  14.4602346  69.6024475  32.6660271  14.8276148
  70.1826935  32.1053467  13.5470152  18.4062691  60.3824921  10.8228092
  18.9256496  60.2411652  10.0312901  18.2324848  61.3237534  10.8303556
  28.3628616  21.7912273   6.3874030  29.0440521  21.5656185   5.7539124
  28.3723412  21.0697899   7.0164261  24.2662868  39.9150848  44.6937904
  24.7369099  39.2381439  45.1800995  24.5725327  40.7389641  45.0728302
  50.0733490  13.6071272  23.7880840  49.1973267  13.8182678  23.4652309
  50.5379105  14.4440289  23.7849770  86.4144669  67.7712555  44.7166214
  86.1447754  66.8561859  44.6382675  87.3579865  67.7303619  44.8725815
  10.5619631  44.3608246  49.3192711  10.2019129  44.7555122  50.1135101
  11.3705339  43.9373665  49.6075935  34.6824951   1.9115477  59.0672188
  35.3699646   2.0985899  59.7064629  35.0103531   2.2817690  58.2476578
  12.5680733  47.6499062  19.6741219  13.4480114  47.9147377  19.4061546
  12.0158815  48.4017181  19.4594288  59.6559143  62.2183952  37.9746208
  60.0655975  62.3828659  38.8239365  60.3048019  62.5115738  37.3349113
  50.2047577  31.9461613  71.4344406  50.1080284  32.7453575  71.9522781
  50.2243004  31.2418480  72.0823593  86.6564255  57.8589325  43.6852074
  86.5588608  57.2682190  44.4320488  85.7871628  57.8849792  43.2852783
  84.5663605  19.6484108  19.6457367  84.5315018  18.7017097  19.5087166
  85.1879730  19.7636700  20.3644428  65.4450989  39.7934875  67.9874039
  66.2811508  40.0974121  68.3407822  65.6793365  39.0684319  67.4080429
  68.6779099  28.0218201  59.4069405  69.1224060  28.6885471  58.8833656
  69.3390274  27.3427925  59.5414009  84.4352493  23.6204147  27.9976788
  85.3708038  23.5938492  28.1983337  84.0137177  23.7814980  28.8418331
  38.0988503  54.7241096  45.8633156  38.8133698  55.3516350  45.9724274
  37.9434319  54.6999016  44.9191284  52.3373070   7.5624290  28.3628273
  51.9789925   8.4144430  28.1140003  51.6037140   7.1047583  28.7734547
  13.3709278  62.8518066  24.0266895  12.8932533  62.0381088  23.8655968
  12.7208548  63.5416031  23.8932056  12.8922739  54.6977806  54.6169701
  12.4980440  55.5694504  54.5852356  13.7349110  54.7997589  54.1744843
  72.5781403  34.6508636  22.9611835  72.4590530  35.5408516  23.2927990
  72.9232330  34.7691765  22.0762291  63.0941505  18.1972351  68.5406036
  63.2711983  17.9737492  69.4543533  63.7478256  17.7060680  68.0429153
  23.0789680  53.0097771  86.6548843  23.6346035  52.2323837  86.5986557
  22.5597115  52.8761978  87.4478302  84.7494812  54.6974106  52.9316521
  84.1091690  55.3984871  53.0530014  84.8788452  54.3367233  53.8088074
  53.7691765  13.7421246  38.5828362  54.3276024  13.2932978  39.2176132
  53.0132713  13.1643057  38.4780998   0.5506154  65.7015152  27.5836735
   0.6176016  64.9246521  27.0284863   1.2567044  65.6012421  28.2221222
  45.8793297  30.4069748  12.6883688  44.9448891  30.2032051  12.7275076
  45.9155006  31.3633766  12.6736298  86.2711105  32.7165680  29.5529537
  85.5877533  33.0071487  28.9489479  86.6506424  33.5268707  29.8929520
  10.3555746  24.9978542  68.2410126  10.9726620  24.5865803  68.8462296
  10.7263441  24.8352261  67.3736496  62.9271774  32.1776428   7.1431308
  63.3230553  31.3405457   7.3855867  63.5109177  32.8364906   7.5191631
  53.2039337  17.6585941  10.2804632  53.8825760  18.0071487  10.8585529
  53.4858894  16.7633476  10.0926657  77.0792389  50.8591461  75.0292282
  77.5196991  50.2926979  75.6627655  77.0792770  51.7236099  75.4402466
  24.2817764  38.0639496  63.3600426  24.0121498  38.6913376  62.6892815
  23.6995106  37.3145828  63.2349739  50.2297592  31.3874397  82.2360916
  49.9760551  31.0531750  81.3757782  50.1237221  30.6398048  82.8243332
  30.6686802  58.6663208  41.8936462  30.6169643  58.1131248  42.6730881
  31.3963013  59.2624626  42.0708885  34.2113724  28.9348717  17.5281143
  33.4882202  28.4940872  17.9742012  33.7990875  29.6664238  17.0686760
  81.3744354  66.2645798  73.6969604  81.6212006  66.6827087  72.8720322
  81.4610062  66.9572678  74.3518753  56.4737282  70.0488434  66.0409546
  56.8894577  69.4939346  66.7008591  55.8122520  70.5426788  66.5255203
  47.9601936  48.8728867  69.1679077  47.5885010  48.0130806  69.3649063
  47.3199005  49.4953156  69.5126343  45.4535332  24.5613461  33.4772339
  44.5170860  24.3681545  33.5216255  45.5868645  24.8981800  32.5912323
  23.2736340  31.2128429  77.4604263  22.8174591  31.5256138  76.6792068
  22.6771984  30.5704994  77.8449936  85.4158173  55.1685181  56.3322639
  86.2851028  54.8055153  56.1625366  85.5733643  56.0968170  56.5045242
  75.9249725  54.5729141  46.5770683  76.3080368  54.0881920  45.8459511
  74.9974442  54.3369675  46.5611000   3.3289301  55.4982147  42.7789307
   3.4317129  54.7841530  43.4080429   4.0593462  55.3880768  42.1701660
  73.0542984  46.8524132  40.5627823  72.4620056  47.5960350  40.6743469
  72.5679245  46.1046333  40.9099159  27.0357533  45.9155045  82.1846313
  27.1837521  46.0111275  81.2437897  26.3132954  46.5137253  82.3754654
  49.5790901  50.2692604   1.2571745  49.7272530  51.1235161   1.6627942
  49.3442993  49.6953621   1.9863840  66.8968735  67.1674957  12.2663202
  67.5353394  66.8008957  12.8780327  66.0834503  66.7023239  12.4617567
  41.1993675  58.4669189  11.6007318  41.1140213  59.0347252  12.3665934
  42.0767746  58.0920067  11.6771173  54.6753311  65.3050003  40.4852905
  54.3388214  64.4654922  40.7986908  54.0380363  65.5888901  39.8299332
  27.3372517  61.8701782  48.5326958  28.1971645  61.4673882  48.4120941
  26.7425709  61.3235664  48.0190811  70.8184738  10.3873243  58.4980545
  71.1434631   9.5028553  58.3297424  69.8981628  10.2641220  58.7305870
  39.1793900  33.4925079  46.1487961  39.2076797  34.4403763  46.2790909
  38.4723206  33.3584976  45.5176659  15.1491270  33.3426895  77.1292419
  14.9057245  32.5923195  76.5870895  14.7875404  33.1418266  77.9924545
  40.4628029  32.2899323  51.5961800  40.2225990  32.4719429  50.6876640
  40.1722870  31.3901176  51.7450676  78.0583267  16.9512291  60.7472534
  78.9277878  17.2961693  60.9504509  78.0816803  16.0456219  61.0563850
  34.8458061  60.5214653  21.2620888  34.3927040  60.4590530  22.1029434
  35.6222496  61.0498238  21.4470444  42.3978195  53.7851982  70.5499039
  42.0433426  52.9135361  70.7253647  41.8469658  54.1308403  69.8475266
  45.1337738  58.6159668  64.7304840  44.6183319  58.7696648  63.9386940
  45.2890396  59.4899635  65.0886154  52.3424492  51.1014519  47.4874077
  52.2993736  50.2055626  47.8217125  52.9218330  51.0459366  46.7274971
  54.7150993  18.4524250  76.4983826  54.7741241  19.3488026  76.8289185
  54.5856018  18.5529385  75.5553207  16.2800140  46.9277229  37.3835182
  16.0278091  46.6460075  38.2628708  16.8888283  47.6518097  37.5293846
  69.4239197  13.1894121  12.1749773  68.5872803  13.5854120  11.9311590
  70.0835037  13.7834835  11.8168373  24.3673401  13.3610048  45.4975128
  24.8884754  12.6107178  45.2116470  24.4102917  13.3322334  46.4533157
   2.2143073  27.6955509  85.2717209   3.0580659  27.9208794  85.6635437
   1.5745914  27.8756447  85.9606018   1.5779349   4.2762928  57.1563988
   1.3550458   3.3574984  57.0068398   2.5011103   4.2607684  57.4088631
  14.0065718  51.1219254  27.7840118  13.4191151  50.8470650  28.4879837
  14.7756329  50.5603180  27.8808422  18.4892178  16.8772964  57.6016006
  18.2883987  16.2231388  56.9322891  19.4455833  16.9022198  57.6328278
  14.7286243  43.4948921   8.7805138  14.6982851  42.6260643   8.3799496
  14.2401228  44.0542526   8.1765985  55.3798447  37.3427849  58.8540077
  55.8808479  37.5579834  58.0672951  54.6491203  37.9610481  58.8491974
  12.4248676  38.1959724  41.9309769  13.3805733  38.2484322  41.9413109
  12.1408291  38.8811913  42.5359840  43.2801094  27.8305912  56.1894913
  43.6721611  27.1204014  55.6813965  43.4091644  28.6106472  55.6499634
  21.0082855  60.0700340   6.1575656  21.0541611  59.3030319   5.5867467
  21.9209900  60.2660332   6.3691945  32.0313721  42.9053307  24.1946812
  32.4976883  43.7276726  24.0445728  31.1497459  43.1737061  24.4534168
   2.7374821  70.0135193  43.3907585   3.1035547  70.1479950  42.5166092
   3.3883274  70.3895187  43.9834290  77.4238586  56.4414101  76.7043533
  77.7612000  55.6015434  77.0158844  76.7367783  56.2070007  76.0804825
  46.0400810  62.9580536  80.7041702  46.2926521  63.5970650  80.0377655
  45.4867096  62.3315849  80.2377548  49.0578804  56.0900459   4.8867540
  48.8862000  56.8034439   5.5014267  49.7825317  55.6040001   5.2802863
  76.9700012  55.1160660  60.3864746  77.8760834  54.8074684  60.3821144
  76.7609100  55.2581100  59.4632568  42.0329781  12.7931337  85.8408661
  42.2672386  13.0127115  84.9391251  42.8376312  12.9365377  86.3390656
  74.6237030  61.3990173  88.8107986  74.0533524  61.7719727  89.4829865
  75.3020248  62.0611725  88.6778946  50.9931641  69.8457642  11.8600416
  51.1616173  68.9387894  12.1154833  50.2926445  70.1333313  12.4455385
  15.7671518  14.6289196  80.8919601  15.5370035  14.4143047  79.9879608
  14.9371738  14.5866346  81.3669128  46.9050560  28.6599140  86.7402420
  46.5746460  29.0730991  87.5379486  47.6456566  28.1295624  87.0343018
  77.3313904  41.6426353  12.7097845  77.8026810  41.7976265  13.5283775
  76.5720978  41.1191216  12.9659891  37.7532654  45.5476952   1.3159381
  36.8190193  45.5462494   1.5242881  38.0474854  44.6620331   1.5287062
  36.4545097  44.2558250  24.3308125  37.0874634  44.6948776  23.7626286
  36.9046059  44.1727028  25.1714859  12.7731295  11.2950430  75.8336105
  12.4595499  10.4315786  76.1025543  13.3746738  11.1169205  75.1106644
  83.7064667  33.6077042  11.5122929  83.1599731  32.8680077  11.7776670
  84.5759354  33.3974953  11.8529787  30.9446831  16.2106953  83.0162888
  30.4695110  15.4108868  82.7910156  30.3817387  16.6527882  83.6518021
  50.6496315  28.4653931  34.2608566  51.0252762  28.4705601  33.3804626
  49.7187729  28.6423359  34.1251297  63.2719078  24.9001179  47.4475937
  62.4181862  24.4695969  47.4024315  63.2761269  25.3348122  48.3003883
  51.8255539  14.9158897  42.0028496  51.8790703  15.4866695  42.7693863
  51.8472481  14.0291157  42.3625603  55.7064018  27.0578251  44.6974983
  55.8073654  27.9437294  45.0456505  56.1184540  27.0913563  43.8341789
  47.3250237   0.4764994  57.3009720  47.3253021  -0.3185442  56.7679291
  47.5898018   1.1700653  56.6967468  24.1291866  64.6551819   1.4058021
  24.5018463  64.6942978   0.5249918  23.8198185  65.5451202   1.5747200
   8.2875462  45.9237137  51.1764755   8.7272310  46.3839951  50.4615974
   7.9751234  46.6204910  51.7536430  30.2329140  50.8154907  66.5642624
  29.5053310  50.4736519  67.0838776  30.8456097  51.1653481  67.2111282
  10.7321291  64.5238419  24.0042305  10.8057060  63.9968491  23.2085552
  10.9167337  65.4181213  23.7171383  41.3844833  23.7378445  68.8917236
  41.3515968  24.5706501  68.4209976  40.5144768  23.3583202  68.7680969
  62.9923363  41.3890228  22.4199638  62.7050400  41.2369537  21.5196495
  62.2246437  41.1849823  22.9540501  70.9343338  12.1433716  20.4762421
  71.8101578  12.2173300  20.0971737  71.0138550  11.4478931  21.1290951
  27.4761581   3.2499459  82.6388245  27.7796001   3.7520964  81.8825150
  26.8778133   3.8417797  83.0948334  62.4218369  16.5939922  22.2489834
  62.5534973  15.6919155  22.5407925  62.8882294  16.6463451  21.4147358
  18.3402996   8.2577410  86.6975937  19.2066269   8.2214613  87.1030426
  18.3260174   7.5133114  86.0960464  48.2420082  62.8086586  53.9548759
  47.7409401  62.1637154  53.4556656  48.2465858  62.4681473  54.8494492
  71.9312820  24.3860111  29.5980015  71.6912003  24.1982193  30.5053730
  72.8135452  24.0267124  29.5044174  12.2900524  47.2383423  50.2269478
  12.3818493  46.8643570  49.3506279  12.1190147  48.1676445  50.0740547
   3.9947662  48.6898079  69.0009460   4.1928825  47.8768730  69.4658279
   4.1406388  48.4798775  68.0785141  74.4363556  59.2833595  58.4303207
  73.8116302  59.9568901  58.6992149  75.1579971  59.3632927  59.0540848
  45.1079369  35.5161247  47.9683838  45.6313248  35.2069855  47.2289696
  45.2572784  34.8667984  48.6556282  66.3443756  45.1313171  84.4596100
  67.0649796  44.6801682  84.8994064  65.7869949  44.4268799  84.1289673
  21.5403919  50.8910370   9.1644020  20.7308025  51.0841904   9.6371489
  21.3937950  50.0259399   8.7818518  19.0474777  68.7956619   6.3983660
  18.7884541  69.5640030   6.9070811  20.0030422  68.8410721   6.3656669
  60.3283310  20.3989601  71.2642288  59.4819565  20.5176964  71.6952515
  60.9149284  20.1107769  71.9635773  84.1400452  15.0231075  77.2122726
  84.5019760  14.3205223  76.6722641  84.7747421  15.7354803  77.1353760
  68.2388840  57.5720406  24.5975800  67.5496140  56.9970856  24.9300880
  68.4843292  58.1113091  25.3493633   3.3424959  58.3819237  35.2032166
   3.1290529  57.9570808  36.0339890   4.0713763  57.8699570  34.8527107
  65.2671204   4.4283996  50.2391052  64.5077591   3.8462589  50.2123604
  65.0923538   5.0813317  49.5613403  54.7930336  63.2110329  20.1432743
  54.6165047  63.7380943  19.3639946  54.3070679  63.6476631  20.8428631
  56.8087540  44.8527565  10.2834949  56.0979080  45.4269791   9.9985418
  56.3834343  44.2069397  10.8476381   0.7661787  26.9498901  33.9709549
   0.5100586  27.8542938  34.1517525   0.1498343  26.4206543  34.4771767
  14.6290579  29.5351009  87.3954468  15.4867964  29.2315826  87.0981369
  14.5249968  30.3951435  86.9883423  75.5165787  23.1675968  24.2797546
  74.7189484  22.6724262  24.4663410  75.2455215  23.8262520  23.6402779
  52.4459076  61.7438278  28.2810688  52.5434875  60.9470901  28.8025265
  51.5189133  61.9692192  28.3592548  32.4620628  52.6371193   7.7334857
  32.4972229  53.4712982   7.2653613  31.6016617  52.6339340   8.1529264
  61.4724693  22.6537724   5.7467446  61.7665176  23.5354805   5.5179243
  62.1883240  22.0826969   5.4680729   8.4135427  11.9604883   6.3619394
   8.3477688  12.8754778   6.0886273   9.0377703  11.9715319   7.0875087
  56.3773918  21.8833828  13.1158600  57.0063820  21.9335232  13.8356457
  56.9137764  21.7205009  12.3399754  39.0264626  36.8586044  59.3986931
  39.9363823  37.1085968  59.5592651  39.0424118  35.9019699  59.3699036
  21.8347073  21.2491188   8.8479147  21.8401756  22.1453266   9.1840925
  22.7346497  20.9443302   8.9638462  80.2345123  11.3494911  57.1398888
  80.2707977  12.0471897  56.4855690  80.4269333  10.5505667  56.6490479
  85.3491058  69.2197113  87.7646179  84.4570618  69.2979050  88.1028061
  85.7554398  70.0632706  87.9634552  12.6767559  62.5769920  64.2188568
  13.0915699  62.5798874  65.0814972  13.1640244  61.9205437  63.7209816
  14.4127131  55.8125229  42.7064018  14.7355061  55.8943939  43.6038055
  14.8643560  55.0435600  42.3586273   7.8958383  30.7425079  14.8085804
   7.9544725  30.9767437  13.8823376   8.1571131  29.8221893  14.8398981
  24.9829369  30.9039745  65.6100082  25.9195614  30.9457626  65.8029327
  24.9140301  30.2739506  64.8926849  68.8807831  15.2215042   6.1185308
  69.1433411  14.5474863   5.4916391  69.0727768  14.8397846   6.9750700
  34.3741989  31.4336472   6.7513394  33.8406219  31.5849190   5.9711823
  34.8708267  32.2443199   6.8627324  38.0799751  33.0084152  29.2428589
  38.7777290  32.7132607  28.6578331  37.2999535  32.5446129  28.9384136
  27.2685623  68.4867935  47.7899323  27.7265854  69.1991119  48.2360802
  26.5281601  68.9120178  47.3572502  67.9077682   0.1580850  50.5437851
  67.2766418   0.8395154  50.7752304  67.8544388  -0.4718573  51.2625046
  63.3532944   9.6683273  22.7547588  64.2640152   9.6158142  23.0446949
  62.9122429  10.1700764  23.4402905  64.2724609   6.3886542  83.4154510
  63.6598549   5.9003983  83.9654999  64.8161850   5.7153234  83.0065308
  32.9798965   8.2886133   5.3108745  33.6084175   7.5951262   5.1102061
  32.7873230   8.6898851   4.4634495  33.8237610  59.7315483  38.8273087
  33.0321198  59.8522911  38.3029442  34.0033607  60.5977859  39.1928406
  44.4700813  12.5326109  69.4419250  45.2703285  12.9578238  69.7501984
  43.7671013  13.1279907  69.7018661  52.8204079  31.7148743  16.7482224
  52.4027863  30.8578796  16.6623058  52.2544975  32.3077354  16.2537613
   2.1153865  23.0505390  57.6547775   2.3850412  23.1813469  56.7457085
   2.6217425  23.6945534  58.1498375  26.4168015  60.0664635  18.2988949
  27.3331699  60.2446136  18.5104752  26.3616276  59.1117249  18.2581825
  29.8397541  68.2536621  27.8282433  30.7327690  68.4964981  28.0727558
  29.3019962  68.9874802  28.1258392  83.7126007  49.7392693  87.4816360
  84.4242020  49.7202835  86.8417206  83.6619110  48.8416443  87.8101654
  24.2693253  40.3717690  21.4351482  25.1478786  40.4350204  21.8098145
  23.7016087  40.1926575  22.1847134  82.8868179  11.3243866  53.1695137
  83.5404816  12.0086498  53.3135376  82.4391937  11.5862865  52.3649826
  52.6141167  35.3280792  48.5987358  52.0654564  35.6919289  49.2935867
  52.3529663  34.4088249  48.5439491  58.9478798  39.9330330  86.2130432
  58.1161041  39.5506477  86.4926224  58.7352905  40.8428116  86.0048599
  60.7151299  69.6552963  86.6346970  60.1222267  69.7709351  85.8921890
  60.9941139  68.7413864  86.5783539  13.7039194   4.3959203  22.4175148
  14.0450077   3.5342920  22.1777477  13.8115025   4.9246063  21.6268501
  20.3842964   3.6328294  84.5651016  20.4612598   3.0317421  85.3060455
  21.2309990   3.5766797  84.1221848  66.3908157  21.0830383  32.0118904
  67.2038040  21.1367626  31.5095043  65.7824020  20.6220379  31.4343586
  70.4626923   2.1649551  46.0670700  70.0721054   1.3110214  45.8814049
  69.7882843   2.6353571  46.5570984  20.6040382  42.7729034  52.7465858
  21.4445419  42.9714890  52.3338547  20.7903633  42.0341759  53.3260612
  72.1195984  62.3951836  35.8498878  72.4454193  63.2888336  35.7427979
  71.1845703  62.4561119  35.6543274  75.3472443  11.0062027  73.3258896
  74.4392395  11.2502260  73.5053864  75.6278305  11.6140070  72.6417236
  39.8176308  63.0411644  42.5799561  39.0232811  62.9680939  42.0509033
  40.3355484  63.7168045  42.1423416  72.8082504   6.0105577   3.7645984
  73.1253433   6.2866549   4.6245146  71.9783783   5.5692549   3.9456933
  27.1102009  49.5054893  73.9718857  26.4327850  50.1308136  74.2293930
  27.7605667  50.0339127  73.5092621  64.9278946  53.5780220   8.0593100
  64.4327316  53.7998657   7.2707481  65.0277328  54.4102783   8.5214901
  85.3944473  21.7904015  82.1454849  84.7061768  21.2890110  81.7083054
  86.1264954  21.1781521  82.2195663  64.0160065  21.9232597  86.6178360
  64.0596924  21.3005009  85.8922424  63.0824051  22.1092968  86.7179184
  80.6086197  65.6876984  62.3217316  80.6237411  64.8070297  61.9469948
  80.1678314  66.2216797  61.6608238  69.4269562  42.5163574  77.5167084
  70.1109695  42.1620865  76.9485092  69.1240234  41.7637901  78.0247498
  63.0248718  68.6035004  69.0037384  62.9703331  69.5286942  69.2430496
  63.8954544  68.3318253  69.2944412  18.8164768  49.6751938  83.2130508
  19.2853966  48.8421059  83.1649780  17.8945732  49.4371490  83.1147690
  35.5797653  39.3428993  58.3572769  36.1386909  39.0838547  59.0898972
  35.9983177  40.1271591  58.0023308   7.0067515   2.9467084  53.2804489
   6.0529079   3.0156188  53.2396355   7.3168931   3.8450387  53.1662254
  79.8303452  42.6231346   2.3751726  79.4594421  42.2599449   3.1793845
  80.7540436  42.3736954   2.4034584   4.4724407  31.4414864  82.2846375
   4.5566034  30.6941814  81.6924515   5.3324904  31.5176945  82.6978378
  70.3525009   4.6073503  52.5623016  69.6316833   4.0796442  52.2185249
  71.0979691   4.3875184  52.0035667   5.9101677  13.5395489  10.2446060
   5.8636832  12.8914719   9.5417070   5.2298250  14.1770697  10.0279655
  18.1858635   4.8088078  75.6593704  17.5251102   5.1649275  76.2533493
  18.5838299   5.5792985  75.2541504  74.1265259  52.3501549  22.3104267
  74.6490250  52.1563034  23.0886593  73.2192917  52.2802238  22.6075230
  14.0783882  68.2663727  15.7739162  14.4752541  68.8358841  15.1148357
  13.4931068  68.8417282  16.2665024  66.8668900  38.5260468  10.5154953
  67.1868668  38.9953918  11.2859259  66.9925919  37.6014633  10.7289677
  23.4355049  24.4290237   0.9382906  22.7698002  24.7090797   1.5664940
  23.4419422  25.1174507   0.2732641  42.9244347  39.0792007  59.2216873
  43.8158112  38.9887123  58.8848076  42.3655701  38.7843246  58.5026970
  44.8753738  21.2423019  29.5956020  44.9212685  20.4209976  29.1061306
  44.6226959  21.8959236  28.9435558  84.4255600  27.0738316  49.3130722
  85.0555344  26.6157055  49.8693848  84.1314163  26.4110355  48.6882401
  61.4638901  53.7789955  58.9322243  61.6178322  53.2686272  59.7272415
  60.9729424  53.1890793  58.3602104  84.6509476  29.3593559  68.8272400
  84.4833908  29.0731354  69.7251511  84.2711105  28.6707630  68.2815399
  35.8046570  46.1120338   6.3885961  35.2594986  46.8858566   6.2463675
  35.6992188  45.5947304   5.5901532  53.2909241   7.4562764  20.9440022
  53.5924454   7.1248856  20.0981312  53.6861572   8.3251305  21.0155258
  74.2898712  59.0367241  15.0650473  74.6434860  59.3992729  15.8772945
  74.2538071  58.0928078  15.2198114  44.0035973  29.9343796  21.4532471
  43.4995232  30.3746452  22.1375790  44.5811195  30.6142826  21.1062164
  70.1738892  42.1769943  27.4745407  70.1069946  42.7371750  26.7012634
  70.1133041  41.2857666  27.1306324  71.0828934  55.0368996  28.5037670
  71.7818680  55.0096207  27.8503799  70.6195145  54.2066154  28.3936024
  31.7027206  65.7116776  40.4861412  32.0323677  65.9429932  39.6177750
  30.8224106  66.0863876  40.5157852  54.2137260  19.5949287  49.5689011
  54.2354584  18.7568970  49.1068840  53.5518723  19.4757996  50.2500687
  74.7453918  57.0339775  50.6118050  74.9489899  57.2278862  51.5267792
  73.8185043  56.7950859  50.6181145  84.2074585   2.5862269   7.4257903
  84.0964661   3.5294516   7.5451207  83.7924347   2.4009042   6.5833874
  50.8121414   7.0229826   2.2352180  51.2098198   7.8432255   1.9431809
  50.3717384   6.6801300   1.4575748   7.4381270  68.7196503  27.4779034
   7.5447431  69.3205185  28.2153492   8.2578459  68.2261429  27.4506130
  54.3679924   2.2938330  86.5334930  54.7305145   2.9457543  85.9336548
  54.0298767   1.6043798  85.9620361  18.1187534  13.5897322  77.0035248
  18.5180511  13.8972616  76.1897583  17.6505508  12.7928972  76.7543869
  42.1150093   3.8260415  33.9147682  42.6073380   4.6027746  33.6491890
  41.3597069   3.8086617  33.3270187  54.9373665  68.2480469  21.2599449
  55.5295258  68.8599701  21.6971188  54.2963333  68.0141449  21.9312134
  67.0131302   4.4468126  85.4029999  67.1273956   4.2076740  84.4832230
  67.7447281   5.0349865  85.5902176  13.9805889  14.5263443  12.7111979
  14.8206968  14.0934153  12.5594645  13.8950138  15.1442842  11.9852085
  69.0178757   6.3754807  49.2673035  68.8129120   7.2062249  48.8382492
  68.2606277   6.2013974  49.8263206  64.7436752  67.0108948  86.2229538
  65.5113678  67.5695496  86.3446198  64.4694977  66.7837906  87.1114807
   4.2797513  35.9225159  49.1573181   5.1014276  35.7562904  48.6953125
   3.9143379  35.0522957  49.3167572  38.0497475  14.5795765   5.4438486
  39.0068207  14.5950718   5.4415202  37.8215485  13.9864578   6.1596465
  78.3020020  17.9994030  64.5199585  77.7716141  18.1646309  63.7404556
  78.3063202  17.0463753  64.6091156  33.7858849  59.1545219  24.3283119
  34.1487122  58.3324356  23.9985180  32.9175644  59.2102013  23.9293766
  51.0316772  51.7085190  41.1239586  50.8974228  52.6434975  41.2789421
  51.3667107  51.3735542  41.9556923  76.4267731  12.7280912  65.1788330
  76.8979568  12.2684164  65.8737564  75.5325165  12.8108530  65.5100098
  76.8720932  66.3098068  86.2294617  77.4345703  65.5398026  86.3127441
  76.4224319  66.3702393  87.0722961  51.7260513  25.0436687  12.8696079
  52.0573883  25.0891266  11.9727345  52.2238655  24.3326111  13.2731009
   8.1316891   2.0322812  28.9999123   8.8032284   2.1685472  29.6682663
   7.3981357   2.5783763  29.2825985   6.5436339  32.7359772  23.0153351
   6.1795111  33.0328064  22.1813450   6.8976989  33.5289650  23.4178791
  40.3982849  23.5119419  44.7721329  40.0135612  22.7968864  45.2789993
  40.9249077  23.0748501  44.1029167  36.4406471  11.9985075  10.5430336
  37.1585541  12.2859545   9.9789257  35.9422379  12.7959824  10.7215109
  73.3426132  14.2844448  34.3751755  73.7466202  14.1362801  35.2301979
  72.9541931  15.1567593  34.4417305  58.5955811  61.9784088  73.9279175
  59.3179436  61.3532257  73.8681793  58.7642097  62.6070290  73.2260437
  20.3101959   4.4470701  27.0510674  20.6341171   3.7192593  26.5204105
  20.3974228   5.2138124  26.4847374  84.0705948  25.2159595   9.7340565
  84.5038528  25.9766541  10.1211805  83.7135239  24.7372589  10.4821053
  46.8695717  55.9741364  58.7059479  47.1666451  56.7032166  58.1615028
  46.9789734  56.2859535  59.6042976  59.2456512   2.5186179  26.4851189
  59.6382866   3.3104780  26.1176586  58.4357262   2.4003963  25.9888535
  38.9913979   6.5251789  77.2745895  38.3880081   5.8566175  77.5989075
  38.9927254   7.1974378  77.9559784  78.5110703  44.8420410  49.8419571
  78.9369965  45.6950264  49.7568741  77.5822220  45.0226784  49.6976051
  47.5665855  43.5082359  78.6828003  47.5528107  44.4533157  78.5315781
  48.3584251  43.2060165  78.2379608  83.5672226  21.4206753  53.9530602
  84.4741898  21.2382545  53.7073822  83.5711823  22.3405132  54.2178574
  46.2850800  64.2419052  12.2248974  46.4875488  64.9264374  12.8625908
  46.6171379  63.4374771  12.6234674  78.7809448  46.7383041  83.3441696
  78.5828247  47.5228920  83.8554459  79.7351837  46.7360649  83.2689743
   4.6813865  63.7056999  65.4853134   4.6749220  62.9668465  66.0938263
   5.5160851  63.6281509  65.0232620  40.3141708  18.7098026  82.5459900
  39.9626122  17.8279037  82.6680222  41.0395622  18.7666588  83.1679230
  14.7783241  20.9307785  77.4073944  15.0476351  20.3417912  76.7025604
  14.0162964  21.3916035  77.0564194  47.9499016  17.4275150  34.4076500
  48.7291718  17.9533863  34.5877228  48.0310097  17.1874409  33.4846001
  86.7893372   1.2654967  55.0156212  86.1382904   1.9087399  55.2959900
  86.3991013   0.8490549  54.2471657  49.4100037  59.7033424  74.6631699
  48.6095695  59.4037895  75.0942230  49.7693062  60.3627357  75.2567520
   3.0138087  69.0037308   3.0487711   2.9202583  68.5293198   2.2226887
   2.4368672  68.5417099   3.6569705  59.4407310  40.3961067  38.9782028
  59.6198959  40.2342758  39.9044533  58.4864540  40.4478531  38.9243126
  16.9007339  70.9196854  24.5120544  16.9935093  71.5117340  23.7656612
  15.9552670  70.8397217  24.6382675  70.1800385  64.8727951  13.8618431
  70.1016769  65.3152771  13.0166788  71.1038589  64.9640427  14.0952206
  73.9661407  53.6126633  17.6598568  74.0003128  53.0072289  16.9192390
  73.7422791  53.0614319  18.4096966  65.4447021  55.0942039  76.5685806
  65.3704147  54.1401138  76.5479050  65.1347198  55.3772736  75.7083435
  86.7888570  71.6094339  89.1496601  90.0000000  90.0000000  90.0000000
